  ==> Input File <==

--------------------------------------------------------------------------
set {
	reference rhf
	basis cc-pvtz
}

set_num_threads( 4 )
memory 2 gb

molecule MOL {
0 1

O	 1.214497	 1.307430	 -0.051654
C	 1.117414	 0.132065	 -0.152418
C	 -0.175142	 -0.643015	 -0.148845
O	 2.159649	 -0.672073	 -0.284655
C	 -1.413045	 0.229353	 0.001137
H	 -0.207681	 -1.216576	 -1.069416
H	 -0.109294	 -1.372826	 0.651468
C	 -2.702562	 -0.586401	 0.000228
H	 -1.438073	 0.956748	 -0.802486
H	 -1.339984	 0.799848	 0.920235
C	 -3.953810	 0.284959	 -0.000782
H	 -2.717793	 -1.238567	 -0.869075
H	 -2.719108	 -1.238472	 0.869576
H	 -3.983727	 0.924403	 -0.876454
H	 -4.852989	 -0.320147	 -0.001515
H	 -3.985140	 0.924399	 0.874841
C	 3.440889	 -0.075938	 -0.303806
H	 3.528655	 0.612918	 -1.130850
H	 4.143952	 -0.885074	 -0.417251
H	 3.628509	 0.454487	 0.617970

	symmetry c1
}
set optking {
	frozen_dihedral = ("
		9 5 8 12
	")
}

ee = optimize('scf')
oeprop('DIPOLE', 'QUADRUPOLE', 'MULLIKEN_CHARGES')
f=open( 'psi4out.xyz', 'w' )
f.write( "20  " )
f.write( str(ee) + "\n" )
f.write( MOL.save_string_xyz() )
f.close()
--------------------------------------------------------------------------

    Molecular point group: c1
  Charge       = 0
  Multiplicity = 1
  Basis Set: CC-PVTZ
  Basis Set:
  @DF-RHF Final Energy:  -384.08312535870760
    Total Energy =                       -384.0831253587077754
    Molecular point group: c1
  Basis Set: CC-PVTZ
  Basis Set:
  Basis Set: CC-PVTZ
  Basis Set:
  @DF-RHF Final Energy:  -384.08314641801195
    Total Energy =                       -384.0831464180123476
  Basis Set: CC-PVTZ
  Basis Set:
  Basis Set: CC-PVTZ
  Basis Set:
  @DF-RHF Final Energy:  -384.08311865207588
    Total Energy =                       -384.0831186520763367
  Basis Set: CC-PVTZ
  Basis Set:
  Basis Set: CC-PVTZ
  Basis Set:
  @DF-RHF Final Energy:  -384.08315182413520
    Total Energy =                       -384.0831518241354843
  Basis Set: CC-PVTZ
  Basis Set:
  Charge       = 0
  Multiplicity = 1
  Basis Set: CC-PVTZ
  Basis Set:

    Orbital Energies (a.u.)
    -----------------------

    Doubly Occupied:

       1A    -20.596455     2A    -20.534275     3A    -11.364763
       4A    -11.278589     5A    -11.234074     6A    -11.218399
       7A    -11.217234     8A    -11.208863     9A     -1.472366
      10A     -1.365947    11A     -1.089973    12A     -1.025584
      13A     -0.970020    14A     -0.886550    15A     -0.804732
      16A     -0.769662    17A     -0.699231    18A     -0.686854
      19A     -0.675985    20A     -0.646515    21A     -0.599028
      22A     -0.592586    23A     -0.580351    24A     -0.540832
      25A     -0.538407    26A     -0.524254    27A     -0.501270
      28A     -0.479585    29A     -0.474987    30A     -0.470942
      31A     -0.459249    32A     -0.440247

  @DF-RHF Final Energy:  -384.08315239397740

   => Energetics <=

    Nuclear Repulsion Energy =            381.7112434583356730
    One-Electron Energy =               -1279.6931764298938106
    Two-Electron Energy =                 513.8987805775805100
    DFT Exchange-Correlation Energy =       0.0000000000000000
    Empirical Dispersion Energy =           0.0000000000000000
    PCM Polarization Energy =               0.0000000000000000
    EFP Energy =                            0.0000000000000000
    Total Energy =                       -384.0831523939775707
    Molecular point group: c1
  Basis Set: CC-PVTZ
  Basis Set:

  -Total Gradient:
     Atom            X                  Y                   Z
    ------   -----------------  -----------------  -----------------
       1        0.000000506370     0.000007496386    -0.000010594580
       2       -0.000003326983    -0.000003832503     0.000021343979
       3        0.000011836377    -0.000015806195    -0.000009949965
       4       -0.000005223535     0.000000879165    -0.000003609183
       5        0.000767810956    -0.001214442493    -0.000770639078
       6       -0.000000060882    -0.000000439034    -0.000003691294
       7       -0.000009269036     0.000004715904    -0.000002606652
       8       -0.000813919019     0.001266447504    -0.000613285115
       9       -0.000505664394     0.000816413618     0.000763692636
      10       -0.000005178930     0.000005182249    -0.000007623972
      11       -0.000010074737     0.000017561437    -0.000011236402
      12        0.000549475583    -0.000872668459     0.000656080943
      13        0.000008711027    -0.000001689202    -0.000007456430
      14       -0.000000617063     0.000003586987    -0.000000613607
      15        0.000005408653    -0.000006314515     0.000000684991
      16        0.000008186090    -0.000007867121     0.000000137568
      17        0.000002439024     0.000001251478    -0.000000055150
      18       -0.000000166437    -0.000000065480     0.000000115437
      19       -0.000000300245    -0.000000108564    -0.000000235013
      20       -0.000000572814    -0.000000301158    -0.000000459113

  **** Optimization is complete! (in 5 steps) ****
    Final optimized geometry and variables:
    Molecular point group: c1

    Geometry (in Angstrom), charge = 0, multiplicity = 1:

    O            1.218231776999     1.301673993244     0.069471606029
    C            1.121266364856     0.126574073842    -0.034136290509
    C           -0.171616454624    -0.647977590535    -0.041040079354
    O            2.163896633249    -0.677930771680    -0.160987053090
    C           -1.409942020807     0.224344431207     0.100345281660
    H           -0.197357578287    -1.220942326774    -0.962095494495
    H           -0.112465028893    -1.378346462016     0.759399090717
    C           -2.700251405167    -0.590689386586     0.113320714480
    H           -1.438988147613     0.949308234529    -0.705461007966
    H           -1.336665051883     0.803813384436     1.013955455019
    C           -3.952009382684     0.278860661650     0.134587251617
    H           -2.725753540548    -1.247471081532    -0.752335890648
    H           -2.701842422943    -1.244050531007     0.982088745962
    H           -4.003238491757     0.911563888019    -0.744909844778
    H           -4.850134309105    -0.327231611914     0.159930082076
    H           -3.963428115993     0.924922361357     1.005889579530
    C            3.445545316417    -0.082548203711    -0.170658135893
    H            3.539166852767     0.607703107472    -0.995898305155
    H            4.148891334170    -0.891885378474    -0.280883401503
    H            3.627413340133     0.446169016396     0.753255132201

  Mulliken Charges: (a.u.)
   Center  Symbol    Alpha    Beta     Spin     Total
       1     O     4.19679  4.19679  0.00000 -0.39358
       2     C     2.80653  2.80653  0.00000  0.38695
       3     C     3.10018  3.10018  0.00000 -0.20036
       4     O     4.14655  4.14655  0.00000 -0.29310
       5     C     3.08134  3.08134  0.00000 -0.16269
       6     H     0.44018  0.44018  0.00000  0.11965
       7     H     0.44022  0.44022  0.00000  0.11956
       8     C     3.08683  3.08683  0.00000 -0.17366
       9     H     0.44730  0.44730  0.00000  0.10540
      10     H     0.44650  0.44650  0.00000  0.10699
      11     C     3.14911  3.14911  0.00000 -0.29822
      12     H     0.45591  0.45591  0.00000  0.08818
      13     H     0.45482  0.45482  0.00000  0.09035
      14     H     0.45397  0.45397  0.00000  0.09205
      15     H     0.44837  0.44837  0.00000  0.10327
      16     H     0.45367  0.45367  0.00000  0.09266
      17     C     3.03770  3.03770  0.00000 -0.07539
      18     H     0.45434  0.45434  0.00000  0.09131
      19     H     0.44534  0.44534  0.00000  0.10932
      20     H     0.45434  0.45434  0.00000  0.09132

   Total alpha = 32.00000, Total beta = 32.00000, Total charge =  0.00000
