  ==> Input File <==

--------------------------------------------------------------------------
set {
	reference rhf
	basis 6-31G*
}

set_num_threads( 1 )
memory 2 gb

molecule MOL {
0 1

H	 -4.215606	 0.219666	 0.384429
O	 -3.517110	 -0.026191	 -0.205115
C	 -2.306886	 0.532354	 0.237577
C	 -1.177863	 -0.397191	 -0.171080
H	 -2.156308	 1.517575	 -0.201710
H	 -2.315015	 0.655684	 1.319734
C	 0.198102	 0.111031	 0.262842
H	 -1.208843	 -0.518759	 -1.250427
H	 -1.368741	 -1.376554	 0.258909
C	 1.331804	 -0.827780	 -0.158768
H	 0.361943	 1.100838	 -0.156218
H	 0.217265	 0.229072	 1.345532
C	 2.723619	 -0.410569	 0.329459
H	 1.342964	 -0.912588	 -1.244120
H	 1.116806	 -1.824343	 0.220779
C	 3.243875	 0.895854	 -0.272975
H	 3.424222	 -1.207124	 0.091250
H	 2.714788	 -0.329854	 1.414619
H	 3.251977	 0.848779	 -1.358681
H	 2.637085	 1.747371	 0.016682
H	 4.259473	 1.094070	 0.055697

	symmetry c1
}
set optking {
	frozen_dihedral = ("
		2 3 4 8,
		8 4 7 10,
		4 7 10 14,
		16 13 10 14
	")
}

ee = energy('scf')
oeprop('DIPOLE', 'QUADRUPOLE', 'MULLIKEN_CHARGES')
f=open( 'psi4out.xyz', 'w' )
f.write( "21  " )
f.write( str(ee) + "\n" )
f.write( MOL.save_string_xyz() )
f.close()
--------------------------------------------------------------------------

    Molecular point group: c1

    Geometry (in Angstrom), charge = 0, multiplicity = 1:

       Center              X                  Y                   Z               Mass
    ------------   -----------------  -----------------  -----------------  -----------------
           H         -4.215811998133     0.222809533199     0.381027062257     1.007825032070
           O         -3.517315998133    -0.023047466801    -0.208516937743    15.994914619560
           C         -2.307091998133     0.535497533199     0.234175062257    12.000000000000
           C         -1.178068998133    -0.394047466801    -0.174481937743    12.000000000000
           H         -2.156513998133     1.520718533199    -0.205111937743     1.007825032070
           H         -2.315220998133     0.658827533199     1.316332062257     1.007825032070
           C          0.197896001867     0.114174533199     0.259440062257    12.000000000000
           H         -1.209048998133    -0.515615466801    -1.253828937743     1.007825032070
           H         -1.368946998133    -1.373410466801     0.255507062257     1.007825032070
           C          1.331598001867    -0.824636466801    -0.162169937743    12.000000000000
           H          0.361737001867     1.103981533199    -0.159619937743     1.007825032070
           H          0.217059001867     0.232215533199     1.342130062257     1.007825032070
           C          2.723413001867    -0.407425466801     0.326057062257    12.000000000000
           H          1.342758001867    -0.909444466801    -1.247521937743     1.007825032070
           H          1.116600001867    -1.821199466801     0.217377062257     1.007825032070
           C          3.243669001867     0.898997533199    -0.276376937743    12.000000000000
           H          3.424016001867    -1.203980466801     0.087848062257     1.007825032070
           H          2.714582001867    -0.326710466801     1.411217062257     1.007825032070
           H          3.251771001867     0.851922533199    -1.362082937743     1.007825032070
           H          2.636879001867     1.750514533199     0.013280062257     1.007825032070
           H          4.259267001867     1.097213533199     0.052295062257     1.007825032070

  Charge       = 0
  Multiplicity = 1
  Basis Set: 6-31G*
  Basis Set:

    Orbital Energies (a.u.)
    -----------------------

    Doubly Occupied:

       1A    -20.551511     2A    -11.267211     3A    -11.215318
       4A    -11.215061     5A    -11.213465     6A    -11.209867
       7A    -11.208033     8A     -1.358779     9A     -1.086040
      10A     -1.032956    11A     -0.954229    12A     -0.875689
      13A     -0.807563    14A     -0.778849    15A     -0.695928
      16A     -0.657535    17A     -0.620583    18A     -0.609193
      19A     -0.585833    20A     -0.567489    21A     -0.539385
      22A     -0.521185    23A     -0.506659    24A     -0.491182
      25A     -0.475802    26A     -0.460318    27A     -0.455841
      28A     -0.451863    29A     -0.426380

  @DF-RHF Final Energy:  -310.21173377582903

   => Energetics <=

    Nuclear Repulsion Energy =            312.4889096769100547
    One-Electron Energy =               -1039.7218786626010569
    Two-Electron Energy =                 417.0212352098633346
    DFT Exchange-Correlation Energy =       0.0000000000000000
    Empirical Dispersion Energy =           0.0000000000000000
    PCM Polarization Energy =               0.0000000000000000
    EFP Energy =                            0.0000000000000000
    Total Energy =                       -310.2117337758277245

  Mulliken Charges: (a.u.)
   Center  Symbol    Alpha    Beta     Spin     Total
       1     H     0.28050  0.28050  0.00000  0.43900
       2     O     4.37220  4.37220  0.00000 -0.74439
       3     C     2.99096  2.99096  0.00000  0.01809
       4     C     3.15738  3.15738  0.00000 -0.31476
       5     H     0.42961  0.42961  0.00000  0.14077
       6     H     0.43371  0.43371  0.00000  0.13257
       7     C     3.16234  3.16234  0.00000 -0.32469
       8     H     0.41444  0.41444  0.00000  0.17111
       9     H     0.41716  0.41716  0.00000  0.16569
      10     C     3.15163  3.15163  0.00000 -0.30326
      11     H     0.42111  0.42111  0.00000  0.15778
      12     H     0.42496  0.42496  0.00000  0.15009
      13     C     3.15245  3.15245  0.00000 -0.30491
      14     H     0.42285  0.42285  0.00000  0.15429
      15     H     0.42134  0.42134  0.00000  0.15732
      16     C     3.24117  3.24117  0.00000 -0.48233
      17     H     0.42070  0.42070  0.00000  0.15859
      18     H     0.42377  0.42377  0.00000  0.15246
      19     H     0.42187  0.42187  0.00000  0.15627
      20     H     0.42055  0.42055  0.00000  0.15890
      21     H     0.41931  0.41931  0.00000  0.16139

   Total alpha = 29.00000, Total beta = 29.00000, Total charge =  0.00000
