  ==> Input File <==

--------------------------------------------------------------------------
set {
	reference rhf
	basis 6-31G*
}

set_num_threads( 4 )
memory 2 gb

molecule MOL {
0 1

H	 2.591676	 2.013956	 0.335017
O	 3.341076	 1.666752	 -0.126416
C	 3.569581	 0.339145	 0.272707
C	 2.539767	 -0.640285	 -0.279495
H	 4.553106	 0.084646	 -0.100901
H	 3.608576	 0.269204	 1.359154
C	 1.738009	 -0.097687	 -1.465091
H	 3.053672	 -1.551924	 -0.573066
H	 1.858094	 -0.905931	 0.526806
C	 0.676279	 -1.083137	 -1.961514
H	 2.418990	 0.141482	 -2.277143
H	 1.252806	 0.835167	 -1.177508
C	 -0.212910	 -0.555487	 -3.093446
H	 1.163359	 -2.001335	 -2.284795
H	 0.039590	 -1.357336	 -1.122978
C	 0.511573	 -0.305947	 -4.419090
H	 -1.010996	 -1.274902	 -3.264666
H	 -0.699440	 0.363376	 -2.769693
C	 -0.434282	 0.117955	 -5.544746
H	 1.038769	 -1.211468	 -4.716087
H	 1.271577	 0.461161	 -4.291645
C	 0.287188	 0.373900	 -6.867485
H	 -1.189605	 -0.651552	 -5.689084
H	 -0.969078	 1.017141	 -5.245843
H	 0.805513	 -0.517238	 -7.210175
H	 -0.409821	 0.670437	 -7.645224
H	 1.024707	 1.165131	 -6.765590

	symmetry c1
}
set optking {
	frozen_dihedral = ("
		8 4 3 2
	")
}

ee = optimize('scf')
oeprop('DIPOLE', 'QUADRUPOLE', 'MULLIKEN_CHARGES')
f=open( 'psi4out.xyz', 'w' )
f.write( "27  " )
f.write( str(ee) + "\n" )
f.write( MOL.save_string_xyz() )
f.close()
--------------------------------------------------------------------------

    Molecular point group: c1
  Charge       = 0
  Multiplicity = 1
  Basis Set: 6-31G*
  Basis Set:
  @DF-RHF Final Energy:  -388.27478208409980
    Total Energy =                       -388.2747820840995701
    Molecular point group: c1
  Basis Set: 6-31G*
  Basis Set:
  Basis Set: 6-31G*
  Basis Set:
  @DF-RHF Final Energy:  -388.27555214909972
    Total Energy =                       -388.2755521490993260
  Basis Set: 6-31G*
  Basis Set:
  Basis Set: 6-31G*
  Basis Set:
  @DF-RHF Final Energy:  -388.27609960357557
    Total Energy =                       -388.2760996035756307
  Basis Set: 6-31G*
  Basis Set:
  Basis Set: 6-31G*
  Basis Set:
  @DF-RHF Final Energy:  -388.27611838874333
    Total Energy =                       -388.2761183887432708
  Basis Set: 6-31G*
  Basis Set:
  Basis Set: 6-31G*
  Basis Set:
  @DF-RHF Final Energy:  -388.27612536887773
    Total Energy =                       -388.2761253688779561
  Basis Set: 6-31G*
  Basis Set:
  Charge       = 0
  Multiplicity = 1
  Basis Set: 6-31G*
  Basis Set:

    Orbital Energies (a.u.)
    -----------------------

    Doubly Occupied:

       1A    -20.553995     2A    -11.267960     3A    -11.216117
       4A    -11.212548     5A    -11.212465     6A    -11.211582
       7A    -11.211388     8A    -11.209676     9A    -11.206078
      10A     -1.359933    11A     -1.090310    12A     -1.056562
      13A     -1.007097    14A     -0.944732    15A     -0.885257
      16A     -0.818453    17A     -0.798533    18A     -0.773245
      19A     -0.686458    20A     -0.645473    21A     -0.639563
      22A     -0.613262    23A     -0.602033    24A     -0.584765
      25A     -0.569801    26A     -0.556903    27A     -0.539359
      28A     -0.521330    29A     -0.499976    30A     -0.494356
      31A     -0.476780    32A     -0.467747    33A     -0.462661
      34A     -0.456184    35A     -0.450508    36A     -0.439781
      37A     -0.421946

  @DF-RHF Final Energy:  -388.27612618695736

   => Energetics <=

    Nuclear Repulsion Energy =            460.6788568778402464
    One-Electron Energy =               -1439.5803319969477343
    Two-Electron Energy =                 590.6253489321502457
    DFT Exchange-Correlation Energy =       0.0000000000000000
    Empirical Dispersion Energy =           0.0000000000000000
    PCM Polarization Energy =               0.0000000000000000
    EFP Energy =                            0.0000000000000000
    Total Energy =                       -388.2761261869572991
    Molecular point group: c1
  Basis Set: 6-31G*
  Basis Set:

  -Total Gradient:
     Atom            X                  Y                   Z
    ------   -----------------  -----------------  -----------------
       1        0.000003390154     0.000004321734     0.000000119260
       2        0.002307725150    -0.000842205075    -0.003737208162
       3       -0.003089174391     0.001595800870     0.004048910752
       4        0.000153609255    -0.002681887735     0.004836660329
       5        0.000005435617    -0.000009939140     0.000005305342
       6       -0.000012548710    -0.000000045538    -0.000005756225
       7       -0.000015158481     0.000011774760     0.000011968079
       8        0.000620407097     0.001945431280    -0.005151668820
       9       -0.000005229970    -0.000015904018     0.000000000214
      10       -0.000016241258     0.000009201298     0.000012288843
      11        0.000015668891    -0.000027134707    -0.000016180195
      12        0.000028264938     0.000011184134    -0.000014880371
      13       -0.000005390894     0.000010014901     0.000010739462
      14        0.000000412382     0.000005950510    -0.000006144539
      15        0.000003307499    -0.000010535238     0.000005858052
      16        0.000001687801     0.000008590172     0.000000316093
      17        0.000012191500    -0.000006912653     0.000000245590
      18       -0.000009469335    -0.000004032284    -0.000000451621
      19        0.000001691640     0.000004059249    -0.000000420994
      20       -0.000004468433    -0.000001989255    -0.000002786733
      21        0.000003868213    -0.000004480001     0.000002486465
      22       -0.000000491306    -0.000000691020     0.000000004179
      23       -0.000000469715    -0.000000426566     0.000000388219
      24        0.000000888713    -0.000000100142     0.000000047621
      25        0.000000037593    -0.000000043018    -0.000000138594
      26       -0.000000085556    -0.000000100409     0.000000122451
      27        0.000000141599     0.000000097891     0.000000175297

  **** Optimization is complete! (in 6 steps) ****
    Final optimized geometry and variables:
    Molecular point group: c1

    Geometry (in Angstrom), charge = 0, multiplicity = 1:

    H            1.347397635355     2.052249727492     2.887200091854
    O            2.077150067225     1.657629098942     2.430506983540
    C            2.218601731991     0.316982263851     2.825850004129
    C            1.095833747439    -0.623296019343     2.340993356778
    H            3.158924175853     0.005746464408     2.390225012661
    H            2.330654664995     0.246254935870     3.905183397623
    C            0.317483982797    -0.097688193801     1.129274343181
    H            1.553591419519    -1.563423477755     2.043251674009
    H            0.401352827978    -0.843497966312     3.148310593360
    C           -0.702728200102    -1.117710786266     0.615827514431
    H            1.019364828667     0.164351173726     0.344663037677
    H           -0.199629258115     0.822249551121     1.388722060324
    C           -1.595445973932    -0.612194993481    -0.523537393328
    H           -0.182907459646    -2.017756353619     0.290849957231
    H           -1.341621087242    -1.421410638198     1.443193643520
    C           -0.860338799140    -0.318989521638    -1.834165189424
    H           -2.363335608419    -1.359075118667    -0.715200875132
    H           -2.120724403701     0.284110324741    -0.197106158765
    C           -1.803316300683     0.087522905402    -2.968600478451
    H           -0.298060539237    -1.202004914411    -2.135260970750
    H           -0.129661500046     0.471516426285    -1.683476489512
    C           -1.071373205041     0.384300642058    -4.276997073284
    H           -2.530833908360    -0.704393409696    -3.134017028012
    H           -2.371654195882     0.964909356957    -2.666790869340
    H           -0.519416690997    -0.485078698819    -4.623238080147
    H           -1.766156255639     0.668471380740    -5.061435665108
    H           -0.361498062035     1.197309718123    -4.153481024285

  Mulliken Charges: (a.u.)
   Center  Symbol    Alpha    Beta     Spin     Total
       1     H     0.28275  0.28275  0.00000  0.43450
       2     O     4.36796  4.36796  0.00000 -0.73591
       3     C     2.99366  2.99366  0.00000  0.01268
       4     C     3.18292  3.18292  0.00000 -0.36583
       5     H     0.41531  0.41531  0.00000  0.16939
       6     H     0.42774  0.42774  0.00000  0.14452
       7     C     3.14542  3.14542  0.00000 -0.29085
       8     H     0.41873  0.41873  0.00000  0.16255
       9     H     0.42263  0.42263  0.00000  0.15475
      10     C     3.15421  3.15421  0.00000 -0.30842
      11     H     0.41315  0.41315  0.00000  0.17370
      12     H     0.42815  0.42815  0.00000  0.14369
      13     C     3.15264  3.15264  0.00000 -0.30527
      14     H     0.42449  0.42449  0.00000  0.15101
      15     H     0.42397  0.42397  0.00000  0.15206
      16     C     3.15311  3.15311  0.00000 -0.30621
      17     H     0.42265  0.42265  0.00000  0.15469
      18     H     0.42470  0.42470  0.00000  0.15059
      19     C     3.15104  3.15104  0.00000 -0.30209
      20     H     0.42512  0.42512  0.00000  0.14976
      21     H     0.41989  0.41989  0.00000  0.16022
      22     C     3.23915  3.23915  0.00000 -0.47830
      23     H     0.42379  0.42379  0.00000  0.15241
      24     H     0.42341  0.42341  0.00000  0.15319
      25     H     0.42213  0.42213  0.00000  0.15574
      26     H     0.41994  0.41994  0.00000  0.16011
      27     H     0.42134  0.42134  0.00000  0.15732

   Total alpha = 37.00000, Total beta = 37.00000, Total charge =  0.00000
