  ==> Input File <==

--------------------------------------------------------------------------
set {
	reference rhf
	basis 6-31G*
}

set_num_threads( 4 )
memory 2 gb

molecule MOL {
0 1

H	 -1.836216	 1.387520	 -0.000064
C	 -1.301823	 0.443321	 -0.000031
O	 -0.003969	 0.658512	 0.000451
O	 -1.829879	 -0.616434	 -0.000857
C	 0.484567	 1.724316	 -0.813540
C	 1.987796	 1.771855	 -0.645129
H	 0.015619	 2.646453	 -0.498787
H	 0.200755	 1.537779	 -1.840160
H	 2.253552	 1.951468	 0.390316
H	 2.400705	 2.572581	 -1.249760
H	 2.439742	 0.837483	 -0.957510

	symmetry c1
}
set optking {
	frozen_dihedral = ("
		5 3 2 4
	")
}

ee = optimize('scf')
oeprop('DIPOLE', 'QUADRUPOLE', 'MULLIKEN_CHARGES')
f=open( 'psi4out.xyz', 'w' )
f.write( "11  " )
f.write( str(ee) + "\n" )
f.write( MOL.save_string_xyz() )
f.close()
--------------------------------------------------------------------------

    Molecular point group: c1
  Charge       = 0
  Multiplicity = 1
  Basis Set: 6-31G*
  Basis Set:
  @DF-RHF Final Energy:  -266.81438052232591
    Total Energy =                       -266.8143805223259619
    Molecular point group: c1
  Basis Set: 6-31G*
  Basis Set:
  Basis Set: 6-31G*
  Basis Set:
  @DF-RHF Final Energy:  -266.81523604288452
    Total Energy =                       -266.8152360428844077
  Basis Set: 6-31G*
  Basis Set:
  Basis Set: 6-31G*
  Basis Set:
  @DF-RHF Final Energy:  -266.81540377114231
    Total Energy =                       -266.8154037711422575
  Basis Set: 6-31G*
  Basis Set:
  Basis Set: 6-31G*
  Basis Set:
  @DF-RHF Final Energy:  -266.81565169885027
    Total Energy =                       -266.8156516988505018
  Basis Set: 6-31G*
  Basis Set:
  Basis Set: 6-31G*
  Basis Set:
  @DF-RHF Final Energy:  -266.81565732193383
    Total Energy =                       -266.8156573219338270
  Basis Set: 6-31G*
  Basis Set:
  Basis Set: 6-31G*
  Basis Set:
  @DF-RHF Final Energy:  -266.81565856818929
    Total Energy =                       -266.8156585681893489
  Basis Set: 6-31G*
  Basis Set:
  Charge       = 0
  Multiplicity = 1
  Basis Set: 6-31G*
  Basis Set:

    Orbital Energies (a.u.)
    -----------------------

    Doubly Occupied:

       1A    -20.606140     2A    -20.561411     3A    -11.380456
       4A    -11.306407     5A    -11.232809     6A     -1.471173
       7A     -1.381322     8A     -1.053984     9A     -0.888333
      10A     -0.844049    11A     -0.740673    12A     -0.691559
      13A     -0.661033    14A     -0.619949    15A     -0.569327
      16A     -0.552756    17A     -0.537251    18A     -0.513236
      19A     -0.461409    20A     -0.450859

  @DF-RHF Final Energy:  -266.81565892368542

   => Energetics <=

    Nuclear Repulsion Energy =            176.3398435504285260
    One-Electron Energy =                -713.2627353686161769
    Two-Electron Energy =                 270.1072328945023173
    DFT Exchange-Correlation Energy =       0.0000000000000000
    Empirical Dispersion Energy =           0.0000000000000000
    PCM Polarization Energy =               0.0000000000000000
    EFP Energy =                            0.0000000000000000
    Total Energy =                       -266.8156589236853051
    Molecular point group: c1
  Basis Set: 6-31G*
  Basis Set:

  -Total Gradient:
     Atom            X                  Y                   Z
    ------   -----------------  -----------------  -----------------
       1       -0.000010114118    -0.000008585764    -0.000003577579
       2        0.000804778240    -0.002072131943     0.006359604671
       3       -0.000038653068     0.003834847633     0.002621790862
       4       -0.000616579070     0.000607795805    -0.005421924553
       5       -0.000140068979    -0.002373110842    -0.003561650654
       6       -0.000001128107     0.000006259414     0.000000557413
       7        0.000005032607     0.000003890493     0.000004882647
       8        0.000003917571     0.000003649012     0.000000494075
       9       -0.000002158320     0.000000351045     0.000000402865
      10       -0.000003155999    -0.000002743986    -0.000000347606
      11       -0.000001870754    -0.000000220864    -0.000000232143

  **** Optimization is complete! (in 7 steps) ****
    Final optimized geometry and variables:
    Molecular point group: c1

    Geometry (in Angstrom), charge = 0, multiplicity = 1:

    H           -1.676077249632     0.627663553423     0.496133002284
    C           -1.168246040652    -0.325960510906     0.348251855193
    O            0.148098266744    -0.208368927592     0.212368234377
    O           -1.740968056674    -1.353713863487     0.303370948227
    C            0.632842188501     0.889859364394    -0.544123324922
    C            2.125168207648     0.996148034735    -0.314690913619
    H            0.127224179324     1.800332633470    -0.234178294172
    H            0.410713771566     0.718040687778    -1.590886397236
    H            2.336654686321     1.172240098347     0.733402066345
    H            2.532952704437     1.817374497461    -0.894681849746
    H            2.619479562953     0.080524962876    -0.615764787231

  Mulliken Charges: (a.u.)
   Center  Symbol    Alpha    Beta     Spin     Total
       1     H     0.43109  0.43109  0.00000  0.13782
       2     C     2.72539  2.72539  0.00000  0.54923
       3     O     4.28892  4.28892  0.00000 -0.57784
       4     O     4.23854  4.23854  0.00000 -0.47709
       5     C     3.00827  3.00827  0.00000 -0.01655
       6     C     3.24699  3.24699  0.00000 -0.49398
       7     H     0.42024  0.42024  0.00000  0.15952
       8     H     0.41158  0.41158  0.00000  0.17685
       9     H     0.40877  0.40877  0.00000  0.18247
      10     H     0.41566  0.41566  0.00000  0.16868
      11     H     0.40456  0.40456  0.00000  0.19089

   Total alpha = 20.00000, Total beta = 20.00000, Total charge = -0.00000
