                              Psi4 1.0.54 Driver

  ==> Input File <==

--------------------------------------------------------------------------
set {
	reference rhf
	basis cc-pvtz
}

set_num_threads( 4 )
memory 2 gb

molecule MOL {
0 1

H	 -3.144994	 -1.202467	 -0.018751
O	 -2.321472	 -0.864941	 -0.318626
C	 -2.021813	 0.336996	 0.342658
C	 -0.669613	 0.837286	 -0.127252
H	 -2.780861	 1.084746	 0.127159
H	 -2.006390	 0.184138	 1.420053
C	 0.490865	 -0.082543	 0.241244
H	 -0.708709	 0.967192	 -1.204587
H	 -0.507562	 1.822272	 0.303070
C	 0.145224	 -1.061225	 1.359869
H	 1.342852	 0.519333	 0.536068
H	 0.798054	 -0.641099	 -0.640669
C	 1.302012	 -1.986110	 1.723481
H	 -0.159699	 -0.503809	 2.241352
H	 -0.713996	 -1.658634	 1.065705
H	 2.165281	 -1.419238	 2.055652
H	 1.026141	 -2.666698	 2.520976
H	 1.608815	 -2.583093	 0.870880

	symmetry c1
}
set optking {
	frozen_dihedral = ("
		10 7 4 8
	")
}

ee,wfn = optimize('scf', return_wfn=True)
oeprop( wfn, 'DIPOLE', 'QUADRUPOLE', 'MULLIKEN_CHARGES')
f=open( 'psi4out.xyz', 'w' )
f.write( "18  " )
f.write( str(ee) + "\n" )
f.write( MOL.save_string_xyz() )
f.close()
--------------------------------------------------------------------------

    Molecular point group: c1
  Charge       = 0
  Multiplicity = 1
  Basis Set: CC-PVTZ
  Basis Set:
  @DF-RHF Final Energy:  -271.27530497035315
    Total Energy =                       -271.2753049703528063
    Molecular point group: c1
  Basis Set: CC-PVTZ
  Basis Set:
  Basis Set: CC-PVTZ
  Basis Set:
  @DF-RHF Final Energy:  -271.23014655863778
    Total Energy =                       -271.2301465586378981
  Basis Set: CC-PVTZ
  Basis Set:
  Basis Set: CC-PVTZ
  Basis Set:
  @DF-RHF Final Energy:  -271.27554295643199
    Total Energy =                       -271.2755429564319911
  Basis Set: CC-PVTZ
  Basis Set:
  Basis Set: CC-PVTZ
  Basis Set:
  @DF-RHF Final Energy:  -271.27909656042971
    Total Energy =                       -271.2790965604300482
  Basis Set: CC-PVTZ
  Basis Set:
  Basis Set: CC-PVTZ
  Basis Set:
  @DF-RHF Final Energy:  -271.27929208937360
    Total Energy =                       -271.2792920893739392
  Basis Set: CC-PVTZ
  Basis Set:
  Basis Set: CC-PVTZ
  Basis Set:
  @DF-RHF Final Energy:  -271.27932035659757
    Total Energy =                       -271.2793203565977365
  Basis Set: CC-PVTZ
  Basis Set:
  Charge       = 0
  Multiplicity = 1
  Basis Set: CC-PVTZ
  Basis Set:

    Orbital Energies (a.u.)
    -----------------------

    Doubly Occupied:

       1A    -20.547133     2A    -11.265398     3A    -11.211425
       4A    -11.207290     5A    -11.205632     6A    -11.201502
       7A     -1.364616     8A     -1.072788     9A     -1.007296
      10A     -0.913899    11A     -0.834364    12A     -0.765789
      13A     -0.709164    14A     -0.645010    15A     -0.628513
      16A     -0.584369    17A     -0.562721    18A     -0.554988
      19A     -0.537254    20A     -0.495517    21A     -0.494069
      22A     -0.466378    23A     -0.454112    24A     -0.445236
      25A     -0.430806

  @DF-RHF Final Energy:  -271.27932100540204

   => Energetics <=

    Nuclear Repulsion Energy =            255.3565066776976948
    One-Electron Energy =                -874.0611186105702473
    Two-Electron Energy =                 347.4252909274707690
    DFT Exchange-Correlation Energy =       0.0000000000000000
    Empirical Dispersion Energy =           0.0000000000000000
    PCM Polarization Energy =               0.0000000000000000
    EFP Energy =                            0.0000000000000000
    Total Energy =                       -271.2793210054018118
    Molecular point group: c1
  Basis Set: CC-PVTZ
  Basis Set:

  -Total Gradient:
     Atom            X                  Y                   Z
    ------   -----------------  -----------------  -----------------
       1        0.000011712973     0.000032313077    -0.000009935439
       2        0.000032677846     0.000028030596     0.000015480448
       3       -0.000069769715    -0.000062670993     0.000044913413
       4        0.002217178296     0.005242155804    -0.001003291353
       5        0.000038595642     0.000012663863     0.000022547712
       6        0.000011881028     0.000030563256    -0.000040865301
       7        0.000072701663     0.003600516975     0.004147412565
       8       -0.001933017428    -0.005522880247    -0.000270473784
       9       -0.000010155096    -0.000004748372     0.000004826478
      10       -0.000360345013    -0.003384462935    -0.002890664340
      11        0.000009311278     0.000007463281    -0.000010856729
      12       -0.000014423636     0.000000447096     0.000005379065
      13       -0.000026200554    -0.000003036227    -0.000007451119
      14       -0.000010553158     0.000005981707    -0.000014343105
      15        0.000011204141    -0.000015218829    -0.000008517536
      16        0.000024360415     0.000017145025     0.000008545230
      17        0.000000112856     0.000016423535     0.000002126903
      18       -0.000005271538    -0.000000686612     0.000005166890

  **** Optimization is complete! (in 7 steps) ****
    Final optimized geometry and variables:
    Molecular point group: c1

    Geometry (in Angstrom), charge = 0, multiplicity = 1:

    H           -2.381585853766    -1.440909788187    -0.728133411470
    O           -1.652466928698    -0.894043447381    -0.955288519248
    C           -1.723772130847     0.323051979998    -0.256048242489
    C           -0.535277588142     1.185584153769    -0.646008997077
    H           -2.636356148729     0.851759068051    -0.519468532192
    H           -1.748113409805     0.146890289979     0.814886403793
    C            0.862911130926     0.673358324644    -0.230848606232
    H           -0.576414452299     1.252431232630    -1.727209910991
    H           -0.706468605872     2.178019040422    -0.242900068595
    C            0.924979333750    -0.331755011293     0.918971251367
    H            1.486850739355     1.528403881826     0.010276878940
    H            1.325269778087     0.204341878811    -1.093102391539
    C            2.357790604912    -0.746330144892     1.239313863061
    H            0.474604963342     0.093362510500     1.812695110089
    H            0.345722044143    -1.209172669309     0.663142758366
    H            2.960150328079     0.108114415672     1.530360811827
    H            2.385818082821    -1.462417028411     2.052854746949
    H            2.832575577928    -1.205763474645     0.378704353702

  Mulliken Charges: (a.u.)
   Center  Symbol    Alpha    Beta     Spin     Total
       1     H     0.39446  0.39446  0.00000  0.21107
       2     O     4.20282  4.20282  0.00000 -0.40564
       3     C     2.98449  2.98449  0.00000  0.03101
       4     C     3.09849  3.09849  0.00000 -0.19697
       5     H     0.45740  0.45740  0.00000  0.08519
       6     H     0.46539  0.46539  0.00000  0.06923
       7     C     3.08437  3.08437  0.00000 -0.16874
       8     H     0.44996  0.44996  0.00000  0.10009
       9     H     0.45113  0.45113  0.00000  0.09775
      10     C     3.09046  3.09046  0.00000 -0.18092
      11     H     0.45261  0.45261  0.00000  0.09478
      12     H     0.45240  0.45240  0.00000  0.09520
      13     C     3.15178  3.15178  0.00000 -0.30355
      14     H     0.45744  0.45744  0.00000  0.08511
      15     H     0.44609  0.44609  0.00000  0.10783
      16     H     0.45655  0.45655  0.00000  0.08691
      17     H     0.44960  0.44960  0.00000  0.10079
      18     H     0.45457  0.45457  0.00000  0.09087

   Total alpha = 25.00000, Total beta = 25.00000, Total charge = -0.00000

*** Psi4 exiting successfully. Buy a developer a beer!
