                              Psi4 1.0.54 Driver

  ==> Input File <==

--------------------------------------------------------------------------
set {
	reference rhf
	basis cc-pvtz
}

set_num_threads( 4 )
memory 2 gb

molecule MOL {
0 1

O	 2.868453	 1.353349	 -0.000734
C	 2.841259	 0.166180	 -0.000295
C	 1.542794	 -0.614730	 -0.000853
C	 4.113372	 -0.651103	 0.000743
C	 0.288398	 0.247429	 0.000314
H	 1.557171	 -1.273139	 -0.866508
H	 1.557484	 -1.274998	 0.863344
C	 -0.993089	 -0.581367	 -0.000217
H	 0.305153	 0.900562	 -0.864701
H	 0.305567	 0.898805	 0.866656
C	 -2.258482	 0.271340	 0.000669
H	 -1.002280	 -1.233920	 -0.870484
H	 -1.002061	 -1.235367	 0.868958
C	 -2.003995	 1.736064	 -0.343649
H	 -2.731260	 0.209964	 0.977822
H	 -2.971314	 -0.144460	 -0.707221
C	 -3.273100	 2.581731	 -0.340667
H	 -1.292474	 2.152843	 0.364146
H	 -1.532593	 1.798453	 -1.320791
H	 -3.750098	 2.567937	 0.633666
H	 -3.057744	 3.614796	 -0.588494
H	 -3.991870	 2.211099	 -1.063886
H	 4.145311	 -1.294584	 -0.871587
H	 4.970080	 0.004978	 -0.000091
H	 4.145223	 -1.291980	 0.874988

	symmetry c1
}
set optking {
	frozen_dihedral = ("
		15 11 8 12
	")
}

ee,wfn = optimize('scf', return_wfn=True)
oeprop( wfn, 'DIPOLE', 'QUADRUPOLE', 'MULLIKEN_CHARGES')
f=open( 'psi4out.xyz', 'w' )
f.write( "25  " )
f.write( str(ee) + "\n" )
f.write( MOL.save_string_xyz() )
f.close()
--------------------------------------------------------------------------

    Molecular point group: c1
  Charge       = 0
  Multiplicity = 1
  Basis Set: CC-PVTZ
  Basis Set:
  @DF-RHF Final Energy:  -387.26175528190180
    Total Energy =                       -387.2617552819019693
    Molecular point group: c1
  Basis Set: CC-PVTZ
  Basis Set:
  Basis Set: CC-PVTZ
  Basis Set:
  @DF-RHF Final Energy:  -387.25902166436026
    Total Energy =                       -387.2590216643607164
  Basis Set: CC-PVTZ
  Basis Set:
  Basis Set: CC-PVTZ
  Basis Set:
  @DF-RHF Final Energy:  -387.26559938820139
    Total Energy =                       -387.2655993882011671
  Basis Set: CC-PVTZ
  Basis Set:
  Basis Set: CC-PVTZ
  Basis Set:
  @DF-RHF Final Energy:  -387.26604146252049
    Total Energy =                       -387.2660414625205476
  Basis Set: CC-PVTZ
  Basis Set:
  @DF-RHF Final Energy:  -387.26585049988427
    Total Energy =                       -387.2658504998840954
  Basis Set: CC-PVTZ
  Basis Set:
  @DF-RHF Final Energy:  -387.26559841210172
    Total Energy =                       -387.2655984121017809
  Basis Set: CC-PVTZ
  Basis Set:
  Basis Set: CC-PVTZ
  Basis Set:
  @DF-RHF Final Energy:  -387.26610315769670
    Total Energy =                       -387.2661031576964206
  Basis Set: CC-PVTZ
  Basis Set:
  Basis Set: CC-PVTZ
  Basis Set:
  @DF-RHF Final Energy:  -387.26610513852751
    Total Energy =                       -387.2661051385274504
  Basis Set: CC-PVTZ
  Basis Set:
  Charge       = 0
  Multiplicity = 1
  Basis Set: CC-PVTZ
  Basis Set:

    Orbital Energies (a.u.)
    -----------------------

    Doubly Occupied:

       1A    -20.538879     2A    -11.320484     3A    -11.229978
       4A    -11.226543     5A    -11.215582     6A    -11.214588
       7A    -11.212087     8A    -11.210944     9A    -11.204723
      10A     -1.398948    11A     -1.092882    12A     -1.055171
      13A     -1.013866    14A     -0.968569    15A     -0.890102
      16A     -0.835785    17A     -0.769111    18A     -0.732058
      19A     -0.659524    20A     -0.653417    21A     -0.631918
      22A     -0.626471    23A     -0.596133    24A     -0.581416
      25A     -0.571361    26A     -0.560502    27A     -0.552926
      28A     -0.514461    29A     -0.506245    30A     -0.498322
      31A     -0.491898    32A     -0.484807    33A     -0.460760
      34A     -0.450089    35A     -0.445046    36A     -0.401900

  @DF-RHF Final Energy:  -387.26610518931079

   => Energetics <=

    Nuclear Repulsion Energy =            446.4523968313573050
    One-Electron Energy =               -1409.8020162153939054
    Two-Electron Energy =                 576.0835141947260354
    DFT Exchange-Correlation Energy =       0.0000000000000000
    Empirical Dispersion Energy =           0.0000000000000000
    PCM Polarization Energy =               0.0000000000000000
    EFP Energy =                            0.0000000000000000
    Total Energy =                       -387.2661051893105650
    Molecular point group: c1
  Basis Set: CC-PVTZ
  Basis Set:

  -Total Gradient:
     Atom            X                  Y                   Z
    ------   -----------------  -----------------  -----------------
       1       -0.000013009776    -0.000116556523     0.000019697350
       2        0.000043723624     0.000061704511    -0.000065732167
       3        0.000018766755     0.000011666048     0.000041320720
       4       -0.000016416758     0.000006317220    -0.000002952914
       5        0.000001276035    -0.000004174489    -0.000056440609
       6        0.000008207003     0.000010592700     0.000006756976
       7       -0.000000050928    -0.000007637320    -0.000003040573
       8        0.002235026484     0.003743447968    -0.004030705779
       9        0.000009881586    -0.000022010315     0.000009300717
      10       -0.000012534149     0.000007355533     0.000001852270
      11        0.002916401286     0.004505236944     0.002587576690
      12       -0.002337711345    -0.003850331264     0.002975861494
      13        0.000007781834    -0.000000445225    -0.000009066323
      14       -0.000023233868     0.000027152160     0.000070948422
      15       -0.002809621911    -0.004344602221    -0.001546993552
      16        0.000014283704     0.000011477933     0.000009874577
      17        0.000011450302     0.000000172883    -0.000046464406
      18       -0.000026038643    -0.000018137369    -0.000007884155
      19       -0.000009639139    -0.000005605377     0.000006157768
      20        0.000020689163     0.000001259135    -0.000012769976
      21       -0.000001394969    -0.000061829626     0.000010833175
      22        0.000010002724     0.000016116097     0.000013712429
      23       -0.000009322868     0.000038268016     0.000050281754
      24       -0.000039138088    -0.000011184144    -0.000006456714
      25        0.000000621943     0.000001746730    -0.000015667174

  **** Optimization is complete! (in 9 steps) ****
    Final optimized geometry and variables:
    Molecular point group: c1

    Geometry (in Angstrom), charge = 0, multiplicity = 1:

    O            2.662428447258     0.759254536965     0.149617839756
    C            2.569567101150    -0.424163934440     0.119557126974
    C            1.230342465802    -1.131716289267     0.077370476138
    C            3.794254665156    -1.310875309438     0.122440321672
    C            0.026132599895    -0.200247048702     0.076772172145
    H            1.224635770574    -1.769267499519    -0.803861072186
    H            1.192721016824    -1.812035719831     0.925110183558
    C           -1.288347954546    -0.975990567435     0.036359872060
    H            0.103729466107     0.470933310778    -0.768299420518
    H            0.065135019930     0.424355410557     0.961377568546
    C           -2.594330468164    -0.147780059294     0.081093610109
    H           -1.308857596432    -1.631519661256    -0.829652238897
    H           -1.301441427298    -1.657044275895     0.883591990080
    C           -2.513033991233     1.315344688722    -0.347631030986
    H           -3.030136904018    -0.217982888802     1.073294062031
    H           -3.319166545529    -0.640466588284    -0.561473135257
    C           -3.873683731024     2.003576761080    -0.306409836669
    H           -1.822465187155     1.856571617672     0.289186433237
    H           -2.113099394511     1.378981207702    -1.355335346276
    H           -4.290278748435     1.986563218112     0.695315214752
    H           -3.797495158263     3.039812340763    -0.614728828417
    H           -4.582274791034     1.513244751890    -0.965706931264
    H            3.806166249113    -1.934912476013    -0.764268258307
    H            4.685891376638    -0.703839691297     0.151620072017
    H            3.774637004336    -1.972324006362     0.981567818912

  Mulliken Charges: (a.u.)
   Center  Symbol    Alpha    Beta     Spin     Total
       1     O     4.17087  4.17087  0.00000 -0.34174
       2     C     2.86096  2.86096  0.00000  0.27808
       3     C     3.11596  3.11596  0.00000 -0.23192
       4     C     3.15168  3.15168  0.00000 -0.30336
       5     C     3.08560  3.08560  0.00000 -0.17120
       6     H     0.44553  0.44553  0.00000  0.10894
       7     H     0.44493  0.44493  0.00000  0.11014
       8     C     3.09973  3.09973  0.00000 -0.19946
       9     H     0.44191  0.44191  0.00000  0.11617
      10     H     0.44470  0.44470  0.00000  0.11060
      11     C     3.09103  3.09103  0.00000 -0.18206
      12     H     0.45276  0.45276  0.00000  0.09447
      13     H     0.45320  0.45320  0.00000  0.09359
      14     C     3.08980  3.08980  0.00000 -0.17959
      15     H     0.45225  0.45225  0.00000  0.09549
      16     H     0.45301  0.45301  0.00000  0.09397
      17     C     3.15139  3.15139  0.00000 -0.30277
      18     H     0.44779  0.44779  0.00000  0.10443
      19     H     0.45247  0.45247  0.00000  0.09506
      20     H     0.45540  0.45540  0.00000  0.08919
      21     H     0.44746  0.44746  0.00000  0.10508
      22     H     0.45542  0.45542  0.00000  0.08916
      23     H     0.45047  0.45047  0.00000  0.09905
      24     H     0.43537  0.43537  0.00000  0.12925
      25     H     0.45029  0.45029  0.00000  0.09942

   Total alpha = 36.00000, Total beta = 36.00000, Total charge = -0.00000

*** Psi4 exiting successfully. Buy a developer a beer!
