  ==> Input File <==

--------------------------------------------------------------------------
set {
	reference rhf
	basis 6-31G*
}

set_num_threads( 4 )
memory 2 gb

molecule MOL {
0 1

H	 0.369554	 0.069849	 2.095845
C	 0.210393	 -0.484033	 1.193199
C	 0.209005	 -1.867295	 1.185326
C	 0.000000	 0.183220	 0.000000
H	 0.370547	 -2.404452	 2.101477
C	 0.000000	 -2.555744	 0.000000
N	 0.000000	 1.642018	 0.000000
C	 -0.210393	 -0.484034	 -1.193199
H	 0.000000	 -3.630640	 0.000000
C	 -0.209005	 -1.867295	 -1.185326
O	 1.057097	 2.196749	 0.000000
O	 -1.057097	 2.196749	 0.000000
H	 -0.369554	 0.069849	 -2.095845
H	 -0.370547	 -2.404452	 -2.101477

	symmetry c1
}
set optking {
	frozen_dihedral = ("
		2 4 7 11
	")
}

ee = optimize('scf')
oeprop('DIPOLE', 'QUADRUPOLE', 'MULLIKEN_CHARGES')
f=open( 'psi4out.xyz', 'w' )
f.write( "14  " )
f.write( str(ee) + "\n" )
f.write( MOL.save_string_xyz() )
f.close()
--------------------------------------------------------------------------

    Molecular point group: c1
  Charge       = 0
  Multiplicity = 1
  Basis Set: 6-31G*
  Basis Set:
  @DF-RHF Final Energy:  -434.16256312433279
    Total Energy =                       -434.1625631243329053
    Molecular point group: c1
  Basis Set: 6-31G*
  Basis Set:
  Basis Set: 6-31G*
  Basis Set:
  @DF-RHF Final Energy:  -434.15869943940146
    Total Energy =                       -434.1586994394015164
  Basis Set: 6-31G*
  Basis Set:
  Basis Set: 6-31G*
  Basis Set:
  @DF-RHF Final Energy:  -434.16259195145273
    Total Energy =                       -434.1625919514527823
  Basis Set: 6-31G*
  Basis Set:
  Basis Set: 6-31G*
  Basis Set:
  @DF-RHF Final Energy:  -434.16290301611758
    Total Energy =                       -434.1629030161177525
  Basis Set: 6-31G*
  Basis Set:
  Charge       = 0
  Multiplicity = 1
  Basis Set: 6-31G*
  Basis Set:

    Orbital Energies (a.u.)
    -----------------------

    Doubly Occupied:

       1A    -20.607188     2A    -20.607099     3A    -15.855851
       4A    -11.309604     5A    -11.270991     6A    -11.270864
       7A    -11.263882     8A    -11.263520     9A    -11.261458
      10A     -1.638569    11A     -1.422617    12A     -1.203141
      13A     -1.094775    14A     -1.054285    15A     -0.957214
      16A     -0.872147    17A     -0.827510    18A     -0.781029
      19A     -0.734031    20A     -0.731331    21A     -0.715761
      22A     -0.648833    23A     -0.647072    24A     -0.623968
      25A     -0.559348    26A     -0.547495    27A     -0.531964
      28A     -0.495211    29A     -0.482567    30A     -0.452486
      31A     -0.367820    32A     -0.366718

  @DF-RHF Final Energy:  -434.16290406118225

   => Energetics <=

    Nuclear Repulsion Energy =            416.1737968868895337
    One-Electron Energy =               -1415.7407027152426053
    Two-Electron Energy =                 565.4040017671708256
    DFT Exchange-Correlation Energy =       0.0000000000000000
    Empirical Dispersion Energy =           0.0000000000000000
    PCM Polarization Energy =               0.0000000000000000
    EFP Energy =                            0.0000000000000000
    Total Energy =                       -434.1629040611823029
    Molecular point group: c1
  Basis Set: 6-31G*
  Basis Set:

  -Total Gradient:
     Atom            X                  Y                   Z
    ------   -----------------  -----------------  -----------------
       1       -0.000001177186    -0.000027453496    -0.000048326444
       2       -0.002954061786    -0.000140595883     0.000602445050
       3        0.000024914574     0.000043155731     0.000065532934
       4        0.004251576015     0.000267303188    -0.001999477642
       5       -0.000009493386     0.000000918515     0.000006508151
       6        0.000020532712     0.000009377692    -0.000033283548
       7       -0.001432204688    -0.000036306333     0.004910660485
       8        0.000052250805    -0.000023800095    -0.000103508754
       9        0.000001984690     0.000005035152     0.000002525857
      10       -0.000062002762    -0.000011504464    -0.000021045980
      11        0.000231094037    -0.000010146329    -0.003437536837
      12       -0.000141019619    -0.000050399762     0.000018079733
      13        0.000013190860    -0.000032202066     0.000044978167
      14        0.000004415732     0.000006618150    -0.000007551173

  **** Optimization is complete! (in 5 steps) ****
    Final optimized geometry and variables:
    Molecular point group: c1

    Geometry (in Angstrom), charge = 0, multiplicity = 1:

    H            0.388836706419     0.071077686132     2.100271452059
    C            0.221263367106    -0.479850705839     1.193859190899
    C            0.206871589389    -1.864775483205     1.185885587750
    C            0.021983089964     0.180765473406     0.000957609744
    H            0.359042637968    -2.402573503257     2.103364065610
    C           -0.002927554904    -2.552195940980     0.000811994572
    N           -0.001208187909     1.643260550800     0.005158140628
    C           -0.209162478264    -0.475693851558    -1.188771393860
    H           -0.009570626240    -3.626806994823     0.000018754719
    C           -0.208678619077    -1.860428802558    -1.182763709001
    O            1.050250642851     2.204488543206     0.025623961184
    O           -1.069960169342     2.169101456487    -0.038393356026
    H           -0.382783681543     0.078461467976    -2.091968667645
    H           -0.375391771232    -2.395152562569    -2.099516633296

  Mulliken Charges: (a.u.)
   Center  Symbol    Alpha    Beta     Spin     Total
       1     H     0.37674  0.37674  0.00000  0.24653
       2     C     3.08872  3.08872  0.00000 -0.17745
       3     C     3.10301  3.10301  0.00000 -0.20603
       4     C     2.89678  2.89678  0.00000  0.20645
       5     H     0.38859  0.38859  0.00000  0.22282
       6     C     3.09359  3.09359  0.00000 -0.18717
       7     N     3.25742  3.25742  0.00000  0.48517
       8     C     3.08797  3.08797  0.00000 -0.17594
       9     H     0.39022  0.39022  0.00000  0.21956
      10     C     3.10318  3.10318  0.00000 -0.20636
      11     O     4.22392  4.22392  0.00000 -0.44785
      12     O     4.22475  4.22475  0.00000 -0.44949
      13     H     0.37656  0.37656  0.00000  0.24689
      14     H     0.38856  0.38856  0.00000  0.22288

   Total alpha = 32.00000, Total beta = 32.00000, Total charge =  0.00000
