  ==> Input File <==

--------------------------------------------------------------------------
set {
	reference rhf
	basis cc-pvtz
}

set_num_threads( 4 )
memory 2 gb

molecule MOL {
0 1

H	 -1.088256	 -1.364742	 0.152233
O	 -1.432053	 -0.565244	 -0.200812
C	 -0.727158	 0.534527	 0.310686
C	 0.680222	 0.664433	 -0.252229
H	 -1.306802	 1.408001	 0.044211
H	 -0.690821	 0.490158	 1.397609
C	 1.591331	 -0.512791	 0.082539
H	 0.613147	 0.781485	 -1.328812
H	 1.114541	 1.580095	 0.139662
H	 1.220211	 -1.437793	 -0.344973
H	 2.588223	 -0.356359	 -0.311528
H	 1.679399	 -0.649359	 1.156108

	symmetry c1
}
set optking {
	frozen_dihedral = ("
		8 4 3 2
	")
}

ee = optimize('scf')
oeprop('DIPOLE', 'QUADRUPOLE', 'MULLIKEN_CHARGES')
f=open( 'psi4out.xyz', 'w' )
f.write( "12  " )
f.write( str(ee) + "\n" )
f.write( MOL.save_string_xyz() )
f.close()
--------------------------------------------------------------------------

    Molecular point group: c1
  Charge       = 0
  Multiplicity = 1
  Basis Set: CC-PVTZ
  Basis Set:
  @DF-RHF Final Energy:  -193.19059035830290
    Total Energy =                       -193.1905903583025577
    Molecular point group: c1
  Basis Set: CC-PVTZ
  Basis Set:
  Basis Set: CC-PVTZ
  Basis Set:
  @DF-RHF Final Energy:  -193.19059281454565
    Total Energy =                       -193.1905928145456812
  Basis Set: CC-PVTZ
  Basis Set:
  Basis Set: CC-PVTZ
  Basis Set:
  @DF-RHF Final Energy:  -193.19059443286727
    Total Energy =                       -193.1905944328673002
  Basis Set: CC-PVTZ
  Basis Set:
  Charge       = 0
  Multiplicity = 1
  Basis Set: CC-PVTZ
  Basis Set:

    Orbital Energies (a.u.)
    -----------------------

    Doubly Occupied:

       1A    -20.546181     2A    -11.266029     3A    -11.217040
       4A    -11.214872     5A     -1.364331     6A     -1.051953
       7A     -0.928644     8A     -0.810040     9A     -0.699136
      10A     -0.637421    11A     -0.603352    12A     -0.589955
      13A     -0.540363    14A     -0.511309    15A     -0.493227
      16A     -0.469744    17A     -0.432854

  @DF-RHF Final Energy:  -193.19059445740407

   => Energetics <=

    Nuclear Repulsion Energy =            133.2485783757596778
    One-Electron Energy =                -526.1254397601924211
    Two-Electron Energy =                 199.6862669270287540
    DFT Exchange-Correlation Energy =       0.0000000000000000
    Empirical Dispersion Energy =           0.0000000000000000
    PCM Polarization Energy =               0.0000000000000000
    EFP Energy =                            0.0000000000000000
    Total Energy =                       -193.1905944574039893
    Molecular point group: c1
  Basis Set: CC-PVTZ
  Basis Set:

  -Total Gradient:
     Atom            X                  Y                   Z
    ------   -----------------  -----------------  -----------------
       1       -0.000001145890     0.000008303552     0.000002735287
       2        0.000123955722    -0.000224887658     0.000275214314
       3       -0.000177564102     0.000402315574    -0.000366299880
       4        0.000075878950    -0.000675196213     0.000042534802
       5       -0.000001636961    -0.000009032928    -0.000004384668
       6        0.000000518377     0.000008043662     0.000002515667
       7       -0.000002892531    -0.000005779180    -0.000003277122
       8       -0.000020217284     0.000483734284     0.000056969861
       9        0.000004498382     0.000005282379    -0.000002256381
      10        0.000003306763     0.000000502908    -0.000000289054
      11        0.000000024884     0.000002583893    -0.000000072890
      12       -0.000004726312     0.000004129725    -0.000003389934

  **** Optimization is complete! (in 4 steps) ****
    Final optimized geometry and variables:
    Molecular point group: c1

    Geometry (in Angstrom), charge = 0, multiplicity = 1:

    H           -1.088246303197    -1.357830863010     0.162735895147
    O           -1.431588688996    -0.557670363222    -0.188846955581
    C           -0.722634046270     0.540214859970     0.320819615217
    C            0.684012762619     0.668011409372    -0.244622516107
    H           -1.300791604291     1.415663583110     0.057813944153
    H           -0.682883436926     0.493848555846     1.407561501139
    C            1.596720925752    -0.506850113687     0.092795324671
    H            0.617290801822     0.785727124932    -1.321177662080
    H            1.117255119659     1.585121450493     0.145374057728
    H            1.231143205914    -1.431916198295    -0.338937103482
    H            2.595303583140    -0.345936980979    -0.295019419597
    H            1.679254495928    -0.645209044561     1.166623176108

  Mulliken Charges: (a.u.)
   Center  Symbol    Alpha    Beta     Spin     Total
       1     H     0.39234  0.39234  0.00000  0.21532
       2     O     4.20550  4.20550  0.00000 -0.41101
       3     C     2.97672  2.97672  0.00000  0.04656
       4     C     3.08174  3.08174  0.00000 -0.16347
       5     H     0.45003  0.45003  0.00000  0.09994
       6     H     0.47033  0.47033  0.00000  0.05934
       7     C     3.16046  3.16046  0.00000 -0.32093
       8     H     0.45168  0.45168  0.00000  0.09664
       9     H     0.45671  0.45671  0.00000  0.08659
      10     H     0.45592  0.45592  0.00000  0.08817
      11     H     0.44469  0.44469  0.00000  0.11061
      12     H     0.45388  0.45388  0.00000  0.09224

   Total alpha = 17.00000, Total beta = 17.00000, Total charge = -0.00000
