  ==> Input File <==

--------------------------------------------------------------------------
set {
	reference rhf
	basis 6-31G*
}

set_num_threads( 1 )
memory 2 gb

molecule MOL {
0 1

H	 -3.446403	 -0.253695	 -1.121164
O	 -3.517110	 -0.026191	 -0.205115
C	 -2.306886	 0.532354	 0.237577
C	 -1.177863	 -0.397191	 -0.171080
H	 -2.156308	 1.517575	 -0.201710
H	 -2.315015	 0.655684	 1.319734
C	 0.198102	 0.111031	 0.262842
H	 -1.208843	 -0.518759	 -1.250427
H	 -1.368741	 -1.376554	 0.258909
C	 1.331804	 -0.827780	 -0.158768
H	 0.361943	 1.100838	 -0.156218
H	 0.217265	 0.229072	 1.345532
C	 2.723619	 -0.410569	 0.329459
H	 1.342964	 -0.912588	 -1.244120
H	 1.116806	 -1.824343	 0.220779
C	 3.243875	 0.895854	 -0.272975
H	 3.424222	 -1.207124	 0.091250
H	 2.714788	 -0.329854	 1.414619
H	 3.251977	 0.848779	 -1.358681
H	 2.637085	 1.747371	 0.016682
H	 4.259473	 1.094070	 0.055697

	symmetry c1
}
set optking {
	frozen_dihedral = ("
		2 3 4 8,
		8 4 7 10,
		4 7 10 14,
		16 13 10 14
	")
}

ee = energy('scf')
oeprop('DIPOLE', 'QUADRUPOLE', 'MULLIKEN_CHARGES')
f=open( 'psi4out.xyz', 'w' )
f.write( "21  " )
f.write( str(ee) + "\n" )
f.write( MOL.save_string_xyz() )
f.close()
--------------------------------------------------------------------------

    Molecular point group: c1

    Geometry (in Angstrom), charge = 0, multiplicity = 1:

       Center              X                  Y                   Z               Mass
    ------------   -----------------  -----------------  -----------------  -----------------
           H         -3.454201438264    -0.245879143562    -1.109704939132     1.007825032070
           O         -3.524908438264    -0.018375143562    -0.193655939132    15.994914619560
           C         -2.314684438264     0.540169856438     0.249036060868    12.000000000000
           C         -1.185661438264    -0.389375143562    -0.159620939132    12.000000000000
           H         -2.164106438264     1.525390856438    -0.190250939132     1.007825032070
           H         -2.322813438264     0.663499856438     1.331193060868     1.007825032070
           C          0.190303561736     0.118846856438     0.274301060868    12.000000000000
           H         -1.216641438264    -0.510943143562    -1.238967939132     1.007825032070
           H         -1.376539438264    -1.368738143562     0.270368060868     1.007825032070
           C          1.324005561736    -0.819964143562    -0.147308939132    12.000000000000
           H          0.354144561736     1.108653856438    -0.144758939132     1.007825032070
           H          0.209466561736     0.236887856438     1.356991060868     1.007825032070
           C          2.715820561736    -0.402753143562     0.340918060868    12.000000000000
           H          1.335165561736    -0.904772143562    -1.232660939132     1.007825032070
           H          1.109007561736    -1.816527143562     0.232238060868     1.007825032070
           C          3.236076561736     0.903669856438    -0.261515939132    12.000000000000
           H          3.416423561736    -1.199308143562     0.102709060868     1.007825032070
           H          2.706989561736    -0.322038143562     1.426078060868     1.007825032070
           H          3.244178561736     0.856594856438    -1.347221939132     1.007825032070
           H          2.629286561736     1.755186856438     0.028141060868     1.007825032070
           H          4.251674561736     1.101885856438     0.067156060868     1.007825032070

  Charge       = 0
  Multiplicity = 1
  Basis Set: 6-31G*
  Basis Set:

    Orbital Energies (a.u.)
    -----------------------

    Doubly Occupied:

       1A    -20.550168     2A    -11.267926     3A    -11.219565
       4A    -11.217911     5A    -11.217182     6A    -11.217002
       7A    -11.210593     8A     -1.359046     9A     -1.089954
      10A     -1.035852    11A     -0.955983    12A     -0.879702
      13A     -0.821669    14A     -0.782038    15A     -0.688539
      16A     -0.645741    17A     -0.625635    18A     -0.617801
      19A     -0.593334    20A     -0.570966    21A     -0.550402
      22A     -0.525228    23A     -0.504245    24A     -0.501103
      25A     -0.481215    26A     -0.465044    27A     -0.459223
      28A     -0.455884    29A     -0.420919

  @DF-RHF Final Energy:  -310.21056792372173

   => Energetics <=

    Nuclear Repulsion Energy =            313.1843657552266791
    One-Electron Energy =               -1040.9302211152614746
    Two-Electron Energy =                 417.5352874363126716
    DFT Exchange-Correlation Energy =       0.0000000000000000
    Empirical Dispersion Energy =           0.0000000000000000
    PCM Polarization Energy =               0.0000000000000000
    EFP Energy =                            0.0000000000000000
    Total Energy =                       -310.2105679237220670

  Mulliken Charges: (a.u.)
   Center  Symbol    Alpha    Beta     Spin     Total
       1     H     0.28186  0.28186  0.00000  0.43627
       2     O     4.37222  4.37222  0.00000 -0.74445
       3     C     2.98490  2.98490  0.00000  0.03019
       4     C     3.17063  3.17063  0.00000 -0.34125
       5     H     0.43107  0.43107  0.00000  0.13785
       6     H     0.41667  0.41667  0.00000  0.16666
       7     C     3.16181  3.16181  0.00000 -0.32362
       8     H     0.42943  0.42943  0.00000  0.14114
       9     H     0.41316  0.41316  0.00000  0.17368
      10     C     3.15187  3.15187  0.00000 -0.30374
      11     H     0.42079  0.42079  0.00000  0.15843
      12     H     0.42195  0.42195  0.00000  0.15610
      13     C     3.15266  3.15266  0.00000 -0.30532
      14     H     0.42420  0.42420  0.00000  0.15159
      15     H     0.42098  0.42098  0.00000  0.15804
      16     C     3.24138  3.24138  0.00000 -0.48277
      17     H     0.42038  0.42038  0.00000  0.15923
      18     H     0.42286  0.42286  0.00000  0.15428
      19     H     0.42231  0.42231  0.00000  0.15538
      20     H     0.42028  0.42028  0.00000  0.15945
      21     H     0.41858  0.41858  0.00000  0.16285

   Total alpha = 29.00000, Total beta = 29.00000, Total charge = -0.00000
