  ==> Input File <==

--------------------------------------------------------------------------
set {
	reference rhf
	basis 6-31G*
}

set_num_threads( 1 )
memory 2 gb

molecule MOL {
0 1

O	 1.296871	 1.171044	 -0.530828
C	 1.122059	 0.121804	 -0.000188
C	 -0.170150	 -0.657997	 -0.000612
O	 2.067439	 -0.514996	 0.679310
C	 -1.412532	 0.227344	 -0.000452
H	 -0.153702	 -1.313099	 -0.867402
H	 -0.153924	 -1.313811	 0.865644
C	 -2.706999	 -0.587347	 -0.000541
H	 -1.388000	 0.879466	 -0.868000
H	 -1.387972	 0.879138	 0.867341
C	 -3.956778	 0.291888	 0.000910
H	 -2.726114	 -1.239230	 -0.871609
H	 -2.725217	 -1.240844	 0.869333
H	 -3.985213	 0.933254	 -0.875158
H	 -4.860123	 -0.309979	 0.000519
H	 -3.984618	 0.931166	 0.878514
C	 3.335046	 0.111246	 0.757629
H	 3.754497	 0.244893	 -0.229127
H	 3.955665	 -0.550684	 1.341264
H	 3.254235	 1.073453	 1.242536

	symmetry c1
}
set optking {
	frozen_dihedral = ("
		9 5 8 12,
		9 5 3 6,
		1 2 4 17
	")
}

ee = energy('scf')
oeprop('DIPOLE', 'QUADRUPOLE', 'MULLIKEN_CHARGES')
f=open( 'psi4out.xyz', 'w' )
f.write( "20  " )
f.write( str(ee) + "\n" )
f.write( MOL.save_string_xyz() )
f.close()
--------------------------------------------------------------------------

    Molecular point group: c1

    Geometry (in Angstrom), charge = 0, multiplicity = 1:

       Center              X                  Y                   Z               Mass
    ------------   -----------------  -----------------  -----------------  -----------------
           O          1.315325497798     1.140528267025    -0.649950489846    15.994914619560
           C          1.140513497798     0.091288267025    -0.119310489846    12.000000000000
           C         -0.151695502202    -0.688512732975    -0.119734489846    12.000000000000
           O          2.085893497798    -0.545511732975     0.560187510154    15.994914619560
           C         -1.394077502202     0.196828267025    -0.119574489846    12.000000000000
           H         -0.135247502202    -1.343614732975    -0.986524489846     1.007825032070
           H         -0.135469502202    -1.344326732975     0.746521510154     1.007825032070
           C         -2.688544502202    -0.617862732975    -0.119663489846    12.000000000000
           H         -1.369545502202     0.848950267025    -0.987122489846     1.007825032070
           H         -1.369517502202     0.848622267025     0.748218510154     1.007825032070
           C         -3.938323502202     0.261372267025    -0.118212489846    12.000000000000
           H         -2.707659502202    -1.269745732975    -0.990731489846     1.007825032070
           H         -2.706762502202    -1.271359732975     0.750210510154     1.007825032070
           H         -3.966758502202     0.902738267025    -0.994280489846     1.007825032070
           H         -4.841668502202    -0.340494732975    -0.118603489846     1.007825032070
           H         -3.966163502202     0.900650267025     0.759391510154     1.007825032070
           C          3.353500497798     0.080730267025     0.638506510154    12.000000000000
           H          3.772951497798     0.214377267025    -0.348249489846     1.007825032070
           H          3.974119497798    -0.581199732975     1.222141510154     1.007825032070
           H          3.272689497798     1.042937267025     1.123413510154     1.007825032070

  Charge       = 0
  Multiplicity = 1
  Basis Set: 6-31G*
  Basis Set:

    Orbital Energies (a.u.)
    -----------------------

    Doubly Occupied:

       1A    -20.604792     2A    -20.544496     3A    -11.372230
       4A    -11.280742     5A    -11.234720     6A    -11.222326
       7A    -11.221301     8A    -11.211595     9A     -1.469542
      10A     -1.362564    11A     -1.089809    12A     -1.024732
      13A     -0.969278    14A     -0.886759    15A     -0.805084
      16A     -0.769409    17A     -0.695759    18A     -0.682716
      19A     -0.672097    20A     -0.646285    21A     -0.598284
      22A     -0.592182    23A     -0.576954    24A     -0.545682
      25A     -0.535260    26A     -0.523484    27A     -0.500736
      28A     -0.479299    29A     -0.476346    30A     -0.470423
      31A     -0.455846    32A     -0.434847

  @DF-RHF Final Energy:  -383.94060425315939

   => Energetics <=

    Nuclear Repulsion Energy =            381.1433955395522730
    One-Electron Energy =               -1278.2569783008527793
    Two-Electron Energy =                 513.1729785081404316
    DFT Exchange-Correlation Energy =       0.0000000000000000
    Empirical Dispersion Energy =           0.0000000000000000
    PCM Polarization Energy =               0.0000000000000000
    EFP Energy =                            0.0000000000000000
    Total Energy =                       -383.9406042531600178

  Mulliken Charges: (a.u.)
   Center  Symbol    Alpha    Beta     Spin     Total
       1     O     4.28606  4.28606  0.00000 -0.57211
       2     C     2.60433  2.60433  0.00000  0.79134
       3     C     3.20990  3.20990  0.00000 -0.41979
       4     O     4.30598  4.30598  0.00000 -0.61195
       5     C     3.15507  3.15507  0.00000 -0.31014
       6     H     0.39989  0.39989  0.00000  0.20022
       7     H     0.40071  0.40071  0.00000  0.19858
       8     C     3.15395  3.15395  0.00000 -0.30790
       9     H     0.40612  0.40612  0.00000  0.18776
      10     H     0.41657  0.41657  0.00000  0.16686
      11     C     3.23963  3.23963  0.00000 -0.47926
      12     H     0.42193  0.42193  0.00000  0.15613
      13     H     0.42235  0.42235  0.00000  0.15531
      14     H     0.41939  0.41939  0.00000  0.16123
      15     H     0.41840  0.41840  0.00000  0.16320
      16     H     0.42043  0.42043  0.00000  0.15915
      17     C     3.09314  3.09314  0.00000 -0.18629
      18     H     0.40899  0.40899  0.00000  0.18202
      19     H     0.40840  0.40840  0.00000  0.18320
      20     H     0.40877  0.40877  0.00000  0.18245

   Total alpha = 32.00000, Total beta = 32.00000, Total charge = -0.00000
