  ==> Input File <==

--------------------------------------------------------------------------
set {
	reference rhf
	basis cc-pvtz
}

set_num_threads( 4 )
memory 2 gb

molecule MOL {
0 1

H	 -0.098674	 1.285938	 -1.085101
O	 0.057669	 1.301365	 -0.158528
C	 0.004145	 -0.005141	 0.363049
C	 1.199168	 -0.827145	 -0.096690
C	 -1.316386	 -0.602081	 -0.083515
H	 0.012026	 0.043363	 1.450619
H	 1.216685	 -0.896776	 -1.178167
H	 2.129940	 -0.372354	 0.228035
H	 1.160783	 -1.829622	 0.314294
H	 -1.357882	 -0.655920	 -1.165207
H	 -2.140147	 0.011735	 0.257253
H	 -1.440790	 -1.601175	 0.317669

	symmetry c1
}
set optking {
	frozen_dihedral = ("
		1 2 3 4
	")
}

ee = optimize('scf')
oeprop('DIPOLE', 'QUADRUPOLE', 'MULLIKEN_CHARGES')
f=open( 'psi4out.xyz', 'w' )
f.write( "12  " )
f.write( str(ee) + "\n" )
f.write( MOL.save_string_xyz() )
f.close()
--------------------------------------------------------------------------

    Molecular point group: c1
  Charge       = 0
  Multiplicity = 1
  Basis Set: CC-PVTZ
  Basis Set:
  @DF-RHF Final Energy:  -193.19356280473536
    Total Energy =                       -193.1935628047352225
    Molecular point group: c1
  Basis Set: CC-PVTZ
  Basis Set:
  Basis Set: CC-PVTZ
  Basis Set:
  @DF-RHF Final Energy:  -193.19517963085374
    Total Energy =                       -193.1951796308536018
  Basis Set: CC-PVTZ
  Basis Set:
  Basis Set: CC-PVTZ
  Basis Set:
  @DF-RHF Final Energy:  -193.19553539054579
    Total Energy =                       -193.1955353905458992
  Basis Set: CC-PVTZ
  Basis Set:
  Charge       = 0
  Multiplicity = 1
  Basis Set: CC-PVTZ
  Basis Set:

    Orbital Energies (a.u.)
    -----------------------

    Doubly Occupied:

       1A    -20.543887     2A    -11.273929     3A    -11.211989
       4A    -11.209571     5A     -1.364629     6A     -1.042918
       7A     -0.941831     8A     -0.820514     9A     -0.663539
      10A     -0.645195    11A     -0.603330    12A     -0.576651
      13A     -0.545014    14A     -0.517673    15A     -0.511055
      16A     -0.466636    17A     -0.434092

  @DF-RHF Final Energy:  -193.19553744527661

   => Energetics <=

    Nuclear Repulsion Energy =            135.5806098261266470
    One-Electron Energy =                -530.8073880356996597
    Two-Electron Energy =                 202.0312407642963137
    DFT Exchange-Correlation Energy =       0.0000000000000000
    Empirical Dispersion Energy =           0.0000000000000000
    PCM Polarization Energy =               0.0000000000000000
    EFP Energy =                            0.0000000000000000
    Total Energy =                       -193.1955374452766989
    Molecular point group: c1
  Basis Set: CC-PVTZ
  Basis Set:

  -Total Gradient:
     Atom            X                  Y                   Z
    ------   -----------------  -----------------  -----------------
       1       -0.000563670587     0.000025001496     0.000089381185
       2        0.000783541188    -0.000073918647     0.000076089985
       3       -0.000310088138    -0.000181110234    -0.000425632849
       4        0.000120609383     0.000190870657     0.000274325736
       5       -0.000099148367    -0.000032465856    -0.000053301424
       6        0.000020771432     0.000026548209    -0.000039309604
       7       -0.000001890348     0.000007478221     0.000030505010
       8        0.000039608839    -0.000004417863     0.000001215615
       9       -0.000031792410     0.000017647207     0.000020857654
      10        0.000005208254     0.000000669132     0.000009479651
      11        0.000010333205     0.000014279022     0.000010487368
      12        0.000026517549     0.000009418658     0.000005901673

  **** Optimization is complete! (in 4 steps) ****
    Final optimized geometry and variables:
    Molecular point group: c1

    Geometry (in Angstrom), charge = 0, multiplicity = 1:

    H           -0.004509123103     1.356268731064    -1.036375775642
    O            0.108267547741     1.329202649818    -0.102695463858
    C            0.004409136940     0.002305679826     0.353959334994
    C            1.204913464342    -0.820683140120    -0.088911094652
    C           -1.318680664508    -0.620027145368    -0.066272178691
    H            0.021317912995     0.084003478830     1.433913202970
    H            1.228412005027    -0.917973874526    -1.170751032295
    H            2.123622321422    -0.343372942343     0.227165869229
    H            1.170402454988    -1.818172340241     0.334731444261
    H           -1.377172160637    -0.708334460389    -1.147984154619
    H           -2.146340792338    -0.007963520432     0.269153301663
    H           -1.431909444812    -1.613028485713     0.353206167630

  Mulliken Charges: (a.u.)
   Center  Symbol    Alpha    Beta     Spin     Total
       1     H     0.39451  0.39451  0.00000  0.21097
       2     O     4.20933  4.20933  0.00000 -0.41865
       3     C     2.92763  2.92763  0.00000  0.14475
       4     C     3.14463  3.14463  0.00000 -0.28926
       5     C     3.14759  3.14759  0.00000 -0.29518
       6     H     0.45121  0.45121  0.00000  0.09759
       7     H     0.46147  0.46147  0.00000  0.07706
       8     H     0.44504  0.44504  0.00000  0.10992
       9     H     0.45693  0.45693  0.00000  0.08614
      10     H     0.46168  0.46168  0.00000  0.07663
      11     H     0.44442  0.44442  0.00000  0.11115
      12     H     0.45555  0.45555  0.00000  0.08890

   Total alpha = 17.00000, Total beta = 17.00000, Total charge =  0.00000
