  ==> Input File <==

--------------------------------------------------------------------------
set {
	reference rhf
	basis 6-31G*
}

set_num_threads( 4 )
memory 2 gb

molecule MOL {
0 1

H	 -2.313956	 -0.725251	 1.059772
N	 -1.531467	 -0.099909	 1.048055
C	 -0.563778	 -0.502042	 0.037919
H	 -1.120220	 -0.133401	 1.961570
C	 0.575259	 0.508231	 -0.048326
H	 -1.079637	 -0.541420	 -0.916824
H	 -0.149995	 -1.498781	 0.211240
C	 1.954651	 -0.143624	 0.035137
H	 0.475158	 1.060484	 -0.977307
H	 0.469181	 1.234488	 0.755973
H	 2.103292	 -0.853109	 -0.774172
H	 2.742821	 0.599562	 -0.030094
H	 2.083613	 -0.679371	 0.971560

	symmetry c1
}
set optking {
	frozen_dihedral = ("
		6 3 5 9
	")
}

ee = optimize('scf')
oeprop('DIPOLE', 'QUADRUPOLE', 'MULLIKEN_CHARGES')
f=open( 'psi4out.xyz', 'w' )
f.write( "13  " )
f.write( str(ee) + "\n" )
f.write( MOL.save_string_xyz() )
f.close()
--------------------------------------------------------------------------

    Molecular point group: c1
  Charge       = 0
  Multiplicity = 1
  Basis Set: 6-31G*
  Basis Set:
  @DF-RHF Final Energy:  -173.27589966721044
    Total Energy =                       -173.2758996672104672
    Molecular point group: c1
  Basis Set: 6-31G*
  Basis Set:
  Basis Set: 6-31G*
  Basis Set:
  @DF-RHF Final Energy:  -173.27626037736886
    Total Energy =                       -173.2762603773688852
  Basis Set: 6-31G*
  Basis Set:
  Basis Set: 6-31G*
  Basis Set:
  @DF-RHF Final Energy:  -173.27638744271147
    Total Energy =                       -173.2763874427115525
  Basis Set: 6-31G*
  Basis Set:
  Basis Set: 6-31G*
  Basis Set:
  @DF-RHF Final Energy:  -173.27638862185120
    Total Energy =                       -173.2763886218511402
  Basis Set: 6-31G*
  Basis Set:
  Charge       = 0
  Multiplicity = 1
  Basis Set: 6-31G*
  Basis Set:

    Orbital Energies (a.u.)
    -----------------------

    Doubly Occupied:

       1A    -15.532739     2A    -11.240399     3A    -11.211988
       4A    -11.209385     5A     -1.175518     6A     -1.032520
       7A     -0.898649     8A     -0.799190     9A     -0.666467
      10A     -0.621387    11A     -0.600463    12A     -0.564795
      13A     -0.539178    14A     -0.488729    15A     -0.477107
      16A     -0.464803    17A     -0.380282

  @DF-RHF Final Energy:  -173.27638885640593

   => Energetics <=

    Nuclear Repulsion Energy =            131.7603580656352449
    One-Electron Energy =                -494.2662946917067757
    Two-Electron Energy =                 189.2295477696655439
    DFT Exchange-Correlation Energy =       0.0000000000000000
    Empirical Dispersion Energy =           0.0000000000000000
    PCM Polarization Energy =               0.0000000000000000
    EFP Energy =                            0.0000000000000000
    Total Energy =                       -173.2763888564059584
    Molecular point group: c1
  Basis Set: 6-31G*
  Basis Set:

  -Total Gradient:
     Atom            X                  Y                   Z
    ------   -----------------  -----------------  -----------------
       1       -0.000030931052     0.000003519825     0.000023792253
       2        0.000001345095    -0.000021879056    -0.000055747314
       3        0.002121295837    -0.002419933055    -0.001107957959
       4        0.000018856763    -0.000014680961    -0.000034228098
       5       -0.001945718768     0.002315479428     0.001485758660
       6       -0.001442511619     0.001696569355     0.000723076326
       7        0.000000172310     0.000016457241     0.000000664039
       8       -0.000010506103     0.000010247857     0.000031515907
       9        0.001286616253    -0.001590791240    -0.001072546157
      10        0.000007462898    -0.000008334894     0.000013813367
      11       -0.000027240725    -0.000003832947     0.000006657009
      12        0.000008170567     0.000005462658    -0.000010643905
      13        0.000012988544     0.000011715789    -0.000004154128

  **** Optimization is complete! (in 5 steps) ****
    Final optimized geometry and variables:
    Molecular point group: c1

    Geometry (in Angstrom), charge = 0, multiplicity = 1:

    H           -2.423358088915    -0.651718773820     0.755591446928
    N           -1.644371853703    -0.021371536060     0.748575758411
    C           -0.658669717903    -0.432617183045    -0.244544429733
    H           -1.245785340589    -0.044473999682     1.668288525091
    C            0.494957132224     0.586729722529    -0.329791115645
    H           -1.179558124391    -0.481358882175    -1.194321204144
    H           -0.256291864874    -1.428844606388    -0.051347230049
    C            1.880127099452    -0.059405369334    -0.268958230349
    H            0.417274189848     1.150244398070    -1.254469080333
    H            0.389447668071     1.304129950402     0.477427598492
    H            2.021471628016    -0.765681505303    -1.082508239247
    H            2.664873701363     0.687220070250    -0.341665258872
    H            2.022351172516    -0.600235093662     0.662984169999

  Mulliken Charges: (a.u.)
   Center  Symbol    Alpha    Beta     Spin     Total
       1     H     0.33364  0.33364  0.00000  0.33273
       2     N     3.92092  3.92092  0.00000 -0.84184
       3     C     3.06426  3.06426  0.00000 -0.12852
       4     H     0.33602  0.33602  0.00000  0.32796
       5     C     3.15704  3.15704  0.00000 -0.31407
       6     H     0.41818  0.41818  0.00000  0.16364
       7     H     0.43125  0.43125  0.00000  0.13750
       8     C     3.24288  3.24288  0.00000 -0.48575
       9     H     0.41746  0.41746  0.00000  0.16508
      10     H     0.41353  0.41353  0.00000  0.17293
      11     H     0.42189  0.42189  0.00000  0.15622
      12     H     0.41929  0.41929  0.00000  0.16142
      13     H     0.42365  0.42365  0.00000  0.15270

   Total alpha = 17.00000, Total beta = 17.00000, Total charge = -0.00000
