  ==> Input File <==

--------------------------------------------------------------------------
set {
	reference rhf
	basis cc-pvtz
}

set_num_threads( 4 )
memory 2 gb

molecule MOL {
0 1

H	 2.025894	 -0.025717	 -1.109409
O	 1.675515	 -0.612943	 -0.465627
C	 1.135873	 0.113391	 0.608264
C	 0.027642	 1.012027	 0.090274
H	 1.902972	 0.727968	 1.072615
H	 0.756163	 -0.561896	 1.370018
C	 -1.138737	 0.285728	 -0.581921
H	 0.464661	 1.708096	 -0.618252
H	 -0.340737	 1.603071	 0.925246
C	 -1.933983	 -0.631436	 0.343653
H	 -0.763151	 -0.285569	 -1.422081
H	 -1.808359	 1.035291	 -0.992333
H	 -2.789188	 -1.049673	 -0.174718
H	 -1.335629	 -1.461368	 0.700418
H	 -2.305435	 -0.092167	 1.209725

	symmetry c1
}
set optking {
	frozen_dihedral = ("
		1 2 3 4
	")
}

ee = optimize('scf')
oeprop('DIPOLE', 'QUADRUPOLE', 'MULLIKEN_CHARGES')
f=open( 'psi4out.xyz', 'w' )
f.write( "15  " )
f.write( str(ee) + "\n" )
f.write( MOL.save_string_xyz() )
f.close()
--------------------------------------------------------------------------

    Molecular point group: c1
  Charge       = 0
  Multiplicity = 1
  Basis Set: CC-PVTZ
  Basis Set:
  @DF-RHF Final Energy:  -232.23557081331995
    Total Energy =                       -232.2355708133199528
    Molecular point group: c1
  Basis Set: CC-PVTZ
  Basis Set:
  Basis Set: CC-PVTZ
  Basis Set:
  @DF-RHF Final Energy:  -232.23704409571738
    Total Energy =                       -232.2370440957173514
  Basis Set: CC-PVTZ
  Basis Set:
  Basis Set: CC-PVTZ
  Basis Set:
  @DF-RHF Final Energy:  -232.23735915805921
    Total Energy =                       -232.2373591580591778
  Basis Set: CC-PVTZ
  Basis Set:
  Basis Set: CC-PVTZ
  Basis Set:
  @DF-RHF Final Energy:  -232.23736049545570
    Total Energy =                       -232.2373604954555617
  Basis Set: CC-PVTZ
  Basis Set:
  Charge       = 0
  Multiplicity = 1
  Basis Set: CC-PVTZ
  Basis Set:

    Orbital Energies (a.u.)
    -----------------------

    Doubly Occupied:

       1A    -20.546703     2A    -11.265173     3A    -11.216643
       4A    -11.212976     5A    -11.205475     6A     -1.364681
       7A     -1.068486     8A     -0.972483     9A     -0.877315
      10A     -0.789722    11A     -0.680334    12A     -0.642813
      13A     -0.633731    14A     -0.582802    15A     -0.566475
      16A     -0.540619    17A     -0.505978    18A     -0.486975
      19A     -0.472696    20A     -0.456233    21A     -0.430323

  @DF-RHF Final Energy:  -232.23736126807705

   => Energetics <=

    Nuclear Repulsion Energy =            191.6186211271040065
    One-Electron Energy =                -694.6746948063946547
    Two-Electron Energy =                 270.8187124112135962
    DFT Exchange-Correlation Energy =       0.0000000000000000
    Empirical Dispersion Energy =           0.0000000000000000
    PCM Polarization Energy =               0.0000000000000000
    EFP Energy =                            0.0000000000000000
    Total Energy =                       -232.2373612680770520
    Molecular point group: c1
  Basis Set: CC-PVTZ
  Basis Set:

  -Total Gradient:
     Atom            X                  Y                   Z
    ------   -----------------  -----------------  -----------------
       1       -0.000334493236     0.000028323473    -0.000057533211
       2        0.000326559297     0.000153935510     0.000298341305
       3       -0.000259889456    -0.000174221893    -0.000041306588
       4        0.000207202932     0.000042501510    -0.000075309005
       5        0.000065849880    -0.000032286343    -0.000100375204
       6        0.000041164331    -0.000022014332    -0.000038119563
       7        0.000028726168     0.000033666590    -0.000020071474
       8       -0.000034288887    -0.000028316901     0.000013833814
       9       -0.000005374573     0.000005418225     0.000033150290
      10       -0.000025089975     0.000002544307     0.000019890851
      11        0.000034655035     0.000007930260    -0.000001637134
      12       -0.000005606002    -0.000022629470    -0.000017572852
      13       -0.000001205480     0.000004318274     0.000006714127
      14       -0.000036717419     0.000005574202    -0.000028905607
      15       -0.000001492615    -0.000004743413     0.000008900251

  **** Optimization is complete! (in 5 steps) ****
    Final optimized geometry and variables:
    Molecular point group: c1

    Geometry (in Angstrom), charge = 0, multiplicity = 1:

    H            2.077958867538    -0.097726814486    -1.087749481056
    O            1.720630098123    -0.659523787537    -0.424007689215
    C            1.141306068391     0.113211386191     0.593471357202
    C            0.011996957812     1.007922846127     0.101379384405
    H            1.897287082221     0.724835822850     1.079682181701
    H            0.781812429260    -0.591212159813     1.330318706229
    C           -1.152203119123     0.279393876713    -0.572063824502
    H            0.425974087504     1.732234869518    -0.597497004467
    H           -0.355175779909     1.582410362037     0.948638941973
    C           -1.940236823230    -0.642736088253     0.354557739026
    H           -0.777261351626    -0.292618927660    -1.413060957559
    H           -1.826364293497     1.024797305569    -0.982452567624
    H           -2.792677707927    -1.066994167933    -0.163169372262
    H           -1.335479571429    -1.467385675147     0.711427651018
    H           -2.314750995000    -0.104119271378     1.219510581062

  Mulliken Charges: (a.u.)
   Center  Symbol    Alpha    Beta     Spin     Total
       1     H     0.39440  0.39440  0.00000  0.21120
       2     O     4.20471  4.20471  0.00000 -0.40941
       3     C     2.97808  2.97808  0.00000  0.04384
       4     C     3.10874  3.10874  0.00000 -0.21747
       5     H     0.45981  0.45981  0.00000  0.08038
       6     H     0.45672  0.45672  0.00000  0.08656
       7     C     3.08039  3.08039  0.00000 -0.16078
       8     H     0.45313  0.45313  0.00000  0.09374
       9     H     0.45305  0.45305  0.00000  0.09389
      10     C     3.15474  3.15474  0.00000 -0.30948
      11     H     0.45235  0.45235  0.00000  0.09529
      12     H     0.45006  0.45006  0.00000  0.09988
      13     H     0.44664  0.44664  0.00000  0.10671
      14     H     0.45067  0.45067  0.00000  0.09867
      15     H     0.45651  0.45651  0.00000  0.08698

   Total alpha = 21.00000, Total beta = 21.00000, Total charge = -0.00000
