                              Psi4 1.0.54 Driver

  ==> Input File <==

--------------------------------------------------------------------------
set {
	reference rhf
	basis cc-pvtz
}

set_num_threads( 4 )
memory 2 gb

molecule MOL {
0 1

H	 -3.941973	 0.934228	 -0.390224
C	 -3.240162	 0.342701	 0.161016
C	 -2.105997	 -0.000418	 -0.398703
H	 -3.485368	 0.047206	 1.162193
O	 -1.391948	 0.855131	 -1.165511
H	 -1.674746	 -0.976362	 -0.269536
C	 -0.260713	 0.384661	 -1.807450
C	 -0.574690	 -0.146278	 -3.191125
H	 0.231609	 -0.404444	 -1.251838
H	 0.426167	 1.209294	 -1.924135
F	 0.538914	 -0.548867	 -3.769822
F	 -1.396347	 -1.173190	 -3.148258
F	 -1.119137	 0.767155	 -3.957724

	symmetry c1
}
set optking {
	frozen_dihedral = ("
		6 3 2 1
	")
}

ee,wfn = optimize('scf', return_wfn=True)
oeprop( wfn, 'DIPOLE', 'QUADRUPOLE', 'MULLIKEN_CHARGES')
f=open( 'psi4out.xyz', 'w' )
f.write( "13  " )
f.write( str(ee) + "\n" )
f.write( MOL.save_string_xyz() )
f.close()
--------------------------------------------------------------------------

    Molecular point group: c1
  Charge       = 0
  Multiplicity = 1
  Basis Set: CC-PVTZ
  Basis Set:
  @DF-RHF Final Energy:  -527.70812160331343
    Total Energy =                       -527.7081216033136570
    Molecular point group: c1
  Basis Set: CC-PVTZ
  Basis Set:
  Basis Set: CC-PVTZ
  Basis Set:
  @DF-RHF Final Energy:  -527.72383676345180
    Total Energy =                       -527.7238367634515726
  Basis Set: CC-PVTZ
  Basis Set:
  Basis Set: CC-PVTZ
  Basis Set:
  @DF-RHF Final Energy:  -527.49522380314613
    Total Energy =                       -527.4952238031460183
  Basis Set: CC-PVTZ
  Basis Set:
  Basis Set: CC-PVTZ
  Basis Set:
  @DF-RHF Final Energy:  -527.66066463462403
    Total Energy =                       -527.6606646346239131
  Basis Set: CC-PVTZ
  Basis Set:
  @DF-RHF Final Energy:  -527.72386137685862
    Total Energy =                       -527.7238613768588493
  @DF-RHF Final Energy:  -527.72736204127079
    Total Energy =                       -527.7273620412706805
  @DF-RHF Final Energy:  -527.72817438475454
    Total Energy =                       -527.7281743847545386
  @DF-RHF Final Energy:  -527.72840422550121
    Total Energy =                       -527.7284042255016629
  @DF-RHF Final Energy:  -527.72848023015706
    Total Energy =                       -527.7284802301569471
  @DF-RHF Final Energy:  -527.72850632028144
    Total Energy =                       -527.7285063202814399
  Basis Set: CC-PVTZ
  Basis Set:
  @DF-RHF Final Energy:  -527.72851041754234
    Total Energy =                       -527.7285104175422248
  Basis Set: CC-PVTZ
  Basis Set:
  Basis Set: CC-PVTZ
  Basis Set:
  @DF-RHF Final Energy:  -527.72851152233034
    Total Energy =                       -527.7285115223299954
  Basis Set: CC-PVTZ
  Basis Set:
  Basis Set: CC-PVTZ
  Basis Set:
  @DF-RHF Final Energy:  -527.72851190661686
    Total Energy =                       -527.7285119066170864
  Basis Set: CC-PVTZ
  Basis Set:
  Charge       = 0
  Multiplicity = 1
  Basis Set: CC-PVTZ
  Basis Set:

    Orbital Energies (a.u.)
    -----------------------

    Doubly Occupied:

       1A    -26.342852     2A    -26.342197     3A    -26.339119
       4A    -20.603615     5A    -11.498746     6A    -11.319850
       7A    -11.302090     8A    -11.214842     9A     -1.751608
      10A     -1.648191    11A     -1.646529    12A     -1.444304
      13A     -1.088904    14A     -1.021346    15A     -0.932974
      16A     -0.845029    17A     -0.840828    18A     -0.828307
      19A     -0.797540    20A     -0.730331    21A     -0.720085
      22A     -0.704647    23A     -0.682005    24A     -0.668745
      25A     -0.662540    26A     -0.652196    27A     -0.640225
      28A     -0.588878    29A     -0.565729    30A     -0.532897
      31A     -0.512183    32A     -0.352638

  @DF-RHF Final Energy:  -527.72851163629343

   => Energetics <=

    Nuclear Repulsion Energy =            414.0337993717352560
    One-Electron Energy =               -1551.8806790431276568
    Two-Electron Energy =                 610.1183680350985696
    DFT Exchange-Correlation Energy =       0.0000000000000000
    Empirical Dispersion Energy =           0.0000000000000000
    PCM Polarization Energy =               0.0000000000000000
    EFP Energy =                            0.0000000000000000
    Total Energy =                       -527.7285116362937742
    Molecular point group: c1
  Basis Set: CC-PVTZ
  Basis Set:

  -Total Gradient:
     Atom            X                  Y                   Z
    ------   -----------------  -----------------  -----------------
       1       -0.010593182379    -0.019720114200    -0.003697794523
       2        0.008889522662     0.024249148426    -0.001086635389
       3        0.016645209497     0.004842077267     0.019388565323
       4       -0.000097788856    -0.000048270963    -0.000102635574
       5        0.000074570224    -0.000073042310    -0.000226469183
       6       -0.014713797991    -0.009368080017    -0.014464978598
       7       -0.000273087539    -0.000046382465     0.000022394624
       8        0.000107731493     0.000129343584     0.000139961916
       9       -0.000006948255     0.000019170145    -0.000007901149
      10       -0.000016128659    -0.000005852558     0.000016936787
      11        0.000005986864     0.000006407871     0.000018069013
      12       -0.000002276743    -0.000000829638     0.000004692879
      13       -0.000019810326     0.000016424859    -0.000004206130

  **** Optimization is complete! (in 14 steps) ****
    Final optimized geometry and variables:
    Molecular point group: c1

    Geometry (in Angstrom), charge = 0, multiplicity = 1:

    H           -2.133370700622     1.473612312977     2.419263855663
    C           -1.289199662469     0.944133820059     2.815779117804
    C           -0.285998182808     0.547060318956     2.065509996467
    H           -1.453492543551     0.417590264639     3.736154687750
    O           -0.024009396295     1.145454867189     0.877774416510
    H            0.197031350486    -0.405041240463     2.192564687747
    C            0.911599646948     0.571809169088     0.037135752927
    C            0.279147671788    -0.408234166424    -0.928828520958
    H            1.688024436661     0.047725747833     0.581717329533
    H            1.365301062432     1.357676451549    -0.547781495371
    F            1.204998646267    -0.902729273360    -1.725076308884
    F           -0.287901966318    -1.417575121176    -0.300849098000
    F           -0.636200750575     0.157339847946    -1.677680102664

  Mulliken Charges: (a.u.)
   Center  Symbol    Alpha    Beta     Spin     Total
       1     H     0.42262  0.42262  0.00000  0.15476
       2     C     3.19224  3.19224  0.00000 -0.38449
       3     C     2.96187  2.96187  0.00000  0.07626
       4     H     0.43266  0.43266  0.00000  0.13468
       5     O     4.14495  4.14495  0.00000 -0.28989
       6     H     0.42990  0.42990  0.00000  0.14020
       7     C     3.01923  3.01923  0.00000 -0.03847
       8     C     2.67432  2.67432  0.00000  0.65136
       9     H     0.45590  0.45590  0.00000  0.08820
      10     H     0.43547  0.43547  0.00000  0.12907
      11     F     4.61219  4.61219  0.00000 -0.22438
      12     F     4.61181  4.61181  0.00000 -0.22363
      13     F     4.60684  4.60684  0.00000 -0.21367

   Total alpha = 32.00000, Total beta = 32.00000, Total charge = -0.00000

*** Psi4 exiting successfully. Buy a developer a beer!
