  ==> Input File <==

--------------------------------------------------------------------------
set {
	reference rhf
	basis 6-31G*
}

set_num_threads( 1 )
memory 2 gb

molecule MOL {
0 1

H	 -3.261111	 -0.295142	 1.469456
C	 -3.306842	 -0.277400	 0.373456
C	 -2.660244	 0.921717	 -0.272021
O	 -3.838538	 -1.161155	 -0.216482
C	 -3.625435	 1.690815	 -1.184792
H	 -2.259727	 1.556645	 0.509747
H	 -1.823588	 0.553660	 -0.864639
C	 -4.770741	 2.369000	 -0.428724
H	 -3.059489	 2.440241	 -1.730091
H	 -4.030937	 1.013155	 -1.934526
C	 -5.717929	 3.141018	 -1.349397
H	 -4.354826	 3.045960	 0.314638
H	 -5.338229	 1.624604	 0.126588
C	 -6.852919	 3.831272	 -0.588281
H	 -5.144162	 3.875623	 -1.908754
H	 -6.141781	 2.458443	 -2.084805
C	 -7.874911	 4.549333	 -1.477094
H	 -6.431107	 4.542561	 0.120124
H	 -7.376590	 3.085857	 0.006562
C	 -7.319338	 5.753313	 -2.239585
H	 -8.698578	 4.883826	 -0.851285
H	 -8.300232	 3.839044	 -2.183149
H	 -6.872537	 6.473652	 -1.559329
H	 -6.561290	 5.463910	 -2.959713
H	 -8.108849	 6.261016	 -2.785391

	symmetry c1
}
set optking {
	frozen_dihedral = ("
		6 3 5 8,
		3 5 8 12,
		12 8 11 14,
		8 11 14 18,
		20 17 14 18
	")
}

ee = energy('scf')
oeprop('DIPOLE', 'QUADRUPOLE', 'MULLIKEN_CHARGES')
f=open( 'psi4out.xyz', 'w' )
f.write( "25  " )
f.write( str(ee) + "\n" )
f.write( MOL.save_string_xyz() )
f.close()
--------------------------------------------------------------------------

    Molecular point group: c1

    Geometry (in Angstrom), charge = 0, multiplicity = 1:

       Center              X                  Y                   Z               Mass
    ------------   -----------------  -----------------  -----------------  -----------------
           H          1.854301021313    -2.608572546353     2.296040459489     1.007825032070
           C          1.808570021313    -2.590830546353     1.200040459489    12.000000000000
           C          2.455168021313    -1.391713546353     0.554563459489    12.000000000000
           O          1.276874021313    -3.474585546353     0.610102459489    15.994914619560
           C          1.489977021313    -0.622615546353    -0.358207540511    12.000000000000
           H          2.855685021313    -0.756785546353     1.336331459489     1.007825032070
           H          3.291824021313    -1.759770546353    -0.038054540511     1.007825032070
           C          0.344671021313     0.055569453647     0.397860459489    12.000000000000
           H          2.055923021313     0.126810453647    -0.903506540511     1.007825032070
           H          1.084475021313    -1.300275546353    -1.107941540511     1.007825032070
           C         -0.602516978687     0.827587453647    -0.522812540511    12.000000000000
           H          0.760586021313     0.732529453647     1.141222459489     1.007825032070
           H         -0.222816978687    -0.688826546353     0.953172459489     1.007825032070
           C         -1.737506978687     1.517841453647     0.238303459489    12.000000000000
           H         -0.028749978687     1.562192453647    -1.082169540511     1.007825032070
           H         -1.026368978687     0.145012453647    -1.258220540511     1.007825032070
           C         -2.759498978687     2.235902453647    -0.650509540511    12.000000000000
           H         -1.315694978687     2.229130453647     0.946708459489     1.007825032070
           H         -2.261177978687     0.772426453647     0.833146459489     1.007825032070
           C         -2.203925978687     3.439882453647    -1.413000540511    12.000000000000
           H         -3.583165978687     2.570395453647    -0.024700540511     1.007825032070
           H         -3.184819978687     1.525613453647    -1.356564540511     1.007825032070
           H         -1.757124978687     4.160221453647    -0.732744540511     1.007825032070
           H         -1.445877978687     3.150479453647    -2.133128540511     1.007825032070
           H         -2.993436978687     3.947585453647    -1.958806540511     1.007825032070

  Charge       = 0
  Multiplicity = 1
  Basis Set: 6-31G*
  Basis Set:

    Orbital Energies (a.u.)
    -----------------------

    Doubly Occupied:

       1A    -20.562535     2A    -11.326605     3A    -11.234835
       4A    -11.229004     5A    -11.221805     6A    -11.217230
       7A    -11.216567     8A    -11.215568     9A    -11.209444
      10A     -1.402944    11A     -1.100312    12A     -1.066882
      13A     -1.011792    14A     -0.942553    15A     -0.877169
      16A     -0.823377    17A     -0.780528    18A     -0.766906
      19A     -0.685901    20A     -0.650663    21A     -0.631639
      22A     -0.623073    23A     -0.598620    24A     -0.593396
      25A     -0.574987    26A     -0.548051    27A     -0.534024
      28A     -0.523686    29A     -0.504126    30A     -0.493526
      31A     -0.489433    32A     -0.476162    33A     -0.462878
      34A     -0.457242    35A     -0.438864    36A     -0.408764

  @DF-RHF Final Energy:  -387.12029566743058

   => Energetics <=

    Nuclear Repulsion Energy =            441.5660407898924404
    One-Electron Energy =               -1399.5707443695703205
    Two-Electron Energy =                 570.8844079122475250
    DFT Exchange-Correlation Energy =       0.0000000000000000
    Empirical Dispersion Energy =           0.0000000000000000
    PCM Polarization Energy =               0.0000000000000000
    EFP Energy =                            0.0000000000000000
    Total Energy =                       -387.1202956674303550

  Mulliken Charges: (a.u.)
   Center  Symbol    Alpha    Beta     Spin     Total
       1     H     0.42863  0.42863  0.00000  0.14274
       2     C     2.84199  2.84199  0.00000  0.31603
       3     C     3.20419  3.20419  0.00000 -0.40838
       4     O     4.23788  4.23788  0.00000 -0.47577
       5     C     3.15718  3.15718  0.00000 -0.31436
       6     H     0.41558  0.41558  0.00000  0.16883
       7     H     0.39898  0.39898  0.00000  0.20204
       8     C     3.15734  3.15734  0.00000 -0.31469
       9     H     0.41682  0.41682  0.00000  0.16635
      10     H     0.40538  0.40538  0.00000  0.18925
      11     C     3.15436  3.15436  0.00000 -0.30873
      12     H     0.42391  0.42391  0.00000  0.15218
      13     H     0.41878  0.41878  0.00000  0.16245
      14     C     3.15306  3.15306  0.00000 -0.30613
      15     H     0.42128  0.42128  0.00000  0.15743
      16     H     0.42047  0.42047  0.00000  0.15907
      17     C     3.15271  3.15271  0.00000 -0.30542
      18     H     0.42467  0.42467  0.00000  0.15067
      19     H     0.42105  0.42105  0.00000  0.15790
      20     C     3.24131  3.24131  0.00000 -0.48261
      21     H     0.42062  0.42062  0.00000  0.15877
      22     H     0.42226  0.42226  0.00000  0.15548
      23     H     0.42259  0.42259  0.00000  0.15483
      24     H     0.42018  0.42018  0.00000  0.15963
      25     H     0.41878  0.41878  0.00000  0.16244

   Total alpha = 36.00000, Total beta = 36.00000, Total charge = -0.00000
