  ==> Input File <==

--------------------------------------------------------------------------
set {
	reference rhf
	basis 6-31G*
}

set_num_threads( 4 )
memory 2 gb

molecule MOL {
0 1

H	 -4.380018	 0.191805	 -1.132117
O	 -3.452007	 0.283848	 -0.965577
C	 -3.181085	 -0.079926	 0.364119
C	 -1.765924	 0.277073	 0.805136
H	 -3.327791	 -1.152017	 0.410903
H	 -3.905698	 0.375695	 1.036898
C	 -0.677594	 -0.417312	 -0.014550
H	 -1.637766	 1.358238	 0.744969
H	 -1.659588	 0.017670	 1.857098
C	 0.738335	 -0.034840	 0.421385
H	 -0.814977	 -0.178223	 -1.064632
H	 -0.802730	 -1.495410	 0.071702
C	 1.822265	 -0.738362	 -0.399735
H	 0.853533	 1.043532	 0.342250
H	 0.871597	 -0.279636	 1.474438
C	 3.258060	 -0.455774	 0.057203
H	 1.718003	 -0.459167	 -1.447053
H	 1.651028	 -1.811884	 -0.354513
C	 3.709143	 0.994797	 -0.123830
H	 3.930637	 -1.101717	 -0.501982
H	 3.365259	 -0.739518	 1.102287
H	 3.601178	 1.310569	 -1.158127
H	 4.753787	 1.110486	 0.148516
H	 3.135362	 1.678896	 0.492569

	symmetry c1
}
set optking {
	frozen_dihedral = ("
		1 2 3 5
	")
}

ee = optimize('scf')
oeprop('DIPOLE', 'QUADRUPOLE', 'MULLIKEN_CHARGES')
f=open( 'psi4out.xyz', 'w' )
f.write( "24  " )
f.write( str(ee) + "\n" )
f.write( MOL.save_string_xyz() )
f.close()
--------------------------------------------------------------------------

    Molecular point group: c1
  Charge       = 0
  Multiplicity = 1
  Basis Set: 6-31G*
  Basis Set:
  @DF-RHF Final Energy:  -349.24568864147483
    Total Energy =                       -349.2456886414746577
    Molecular point group: c1
  Basis Set: 6-31G*
  Basis Set:
  Basis Set: 6-31G*
  Basis Set:
  @DF-RHF Final Energy:  -349.24718407520731
    Total Energy =                       -349.2471840752074286
  Basis Set: 6-31G*
  Basis Set:
  Basis Set: 6-31G*
  Basis Set:
  @DF-RHF Final Energy:  -349.24750647127837
    Total Energy =                       -349.2475064712783137
  Basis Set: 6-31G*
  Basis Set:
  Basis Set: 6-31G*
  Basis Set:
  @DF-RHF Final Energy:  -349.24751060311252
    Total Energy =                       -349.2475106031126870
  Basis Set: 6-31G*
  Basis Set:
  Basis Set: 6-31G*
  Basis Set:
  @DF-RHF Final Energy:  -349.24751621505868
    Total Energy =                       -349.2475162150589085
  Basis Set: 6-31G*
  Basis Set:
  Charge       = 0
  Multiplicity = 1
  Basis Set: 6-31G*
  Basis Set:

    Orbital Energies (a.u.)
    -----------------------

    Doubly Occupied:

       1A    -20.552731     2A    -11.267819     3A    -11.211582
       4A    -11.211226     5A    -11.208428     6A    -11.207665
       7A    -11.205795     8A    -11.204403     9A     -1.359455
      10A     -1.084667    11A     -1.045554    12A     -0.983592
      13A     -0.911586    14A     -0.842967    15A     -0.788141
      16A     -0.772719    17A     -0.704001    18A     -0.645527
      19A     -0.630940    20A     -0.609554    21A     -0.586059
      22A     -0.575218    23A     -0.555677    24A     -0.530145
      25A     -0.521694    26A     -0.503044    27A     -0.489193
      28A     -0.480658    29A     -0.465928    30A     -0.454379
      31A     -0.449158    32A     -0.435018    33A     -0.426662

  @DF-RHF Final Energy:  -349.24751695678430

   => Energetics <=

    Nuclear Repulsion Energy =            384.7593045013435926
    One-Electron Energy =               -1236.1712652045882805
    Two-Electron Energy =                 502.1644437464599378
    DFT Exchange-Correlation Energy =       0.0000000000000000
    Empirical Dispersion Energy =           0.0000000000000000
    PCM Polarization Energy =               0.0000000000000000
    EFP Energy =                            0.0000000000000000
    Total Energy =                       -349.2475169567846933
    Molecular point group: c1
  Basis Set: 6-31G*
  Basis Set:

  -Total Gradient:
     Atom            X                  Y                   Z
    ------   -----------------  -----------------  -----------------
       1       -0.000166517881     0.001035486815     0.000374001762
       2        0.000468210045    -0.001319219498    -0.000475888707
       3       -0.001216530557     0.000370727168     0.000290672826
       4       -0.000019315303     0.000002205708     0.000064669160
       5        0.000924013957    -0.000108295016    -0.000196529950
       6        0.000032383753    -0.000004320564    -0.000007453316
       7       -0.000025517342    -0.000004754167    -0.000038317268
       8       -0.000014035575     0.000009362604    -0.000004939501
       9       -0.000000655487     0.000016942575    -0.000004119973
      10       -0.000007410389    -0.000008969874     0.000012319664
      11        0.000011109744     0.000005150466    -0.000006597297
      12        0.000002744040     0.000005201390    -0.000006374989
      13        0.000007054055     0.000004816100    -0.000002087610
      14       -0.000009980455    -0.000017553314    -0.000010132837
      15       -0.000000168271     0.000009073087     0.000008704580
      16       -0.000005393322     0.000000702032     0.000012793373
      17       -0.000002669487     0.000011542325     0.000003907632
      18        0.000008626365    -0.000003254576    -0.000009917316
      19        0.000008331904    -0.000000423861    -0.000006255272
      20       -0.000001091215    -0.000008067653     0.000005980814
      21       -0.000005599219     0.000008534778     0.000003688526
      22       -0.000003489142     0.000004045107    -0.000002767515
      23        0.000000536103    -0.000003412341    -0.000005064958
      24        0.000015363685    -0.000005519290    -0.000000291829

  **** Optimization is complete! (in 6 steps) ****
    Final optimized geometry and variables:
    Molecular point group: c1

    Geometry (in Angstrom), charge = 0, multiplicity = 1:

    H           -4.294803318563     0.245551132009    -1.173239444638
    O           -3.378856425226     0.323796011859    -0.948665250325
    C           -3.179086601191    -0.093491842161     0.378703279189
    C           -1.767854539093     0.279626804500     0.800936442428
    H           -3.314997701383    -1.171000144795     0.462523230342
    H           -3.897913610252     0.384426236426     1.041280573586
    C           -0.681249864223    -0.417254854764    -0.019611401443
    H           -1.659555627181     1.357789646084     0.716852191913
    H           -1.651139701858     0.029806295666     1.854003789520
    C            0.733407476829    -0.032060268688     0.418127867234
    H           -0.818062626615    -0.175153691870    -1.068508430154
    H           -0.804081165641    -1.495974059296     0.067670689765
    C            1.819899478278    -0.731140398104    -0.403376840129
    H            0.844846174888     1.046483044477     0.340067067032
    H            0.866961838623    -0.278154715401     1.471040397634
    C            3.254759599404    -0.444589551219     0.054096906558
    H            1.714933970544    -0.450872633863    -1.450260656488
    H            1.652359772496    -1.805486691539    -0.359617509706
    C            3.702565241619     1.006694161397    -0.129265338128
    H            3.929443372577    -1.090037795907    -0.503245322875
    H            3.361703987484    -0.726046129210     1.099892685364
    H            3.594071751294     1.320427232882    -1.164079183802
    H            4.746913156903     1.125319181401     0.143275001270
    H            3.126665790278     1.690366671337     0.485472081232

  Mulliken Charges: (a.u.)
   Center  Symbol    Alpha    Beta     Spin     Total
       1     H     0.28045  0.28045  0.00000  0.43909
       2     O     4.36999  4.36999  0.00000 -0.73998
       3     C     2.99744  2.99744  0.00000  0.00513
       4     C     3.15958  3.15958  0.00000 -0.31916
       5     H     0.43180  0.43180  0.00000  0.13641
       6     H     0.42978  0.42978  0.00000  0.14043
       7     C     3.15403  3.15403  0.00000 -0.30806
       8     H     0.41613  0.41613  0.00000  0.16773
       9     H     0.42452  0.42452  0.00000  0.15097
      10     C     3.15403  3.15403  0.00000 -0.30806
      11     H     0.40725  0.40725  0.00000  0.18549
      12     H     0.42697  0.42697  0.00000  0.14606
      13     C     3.15209  3.15209  0.00000 -0.30419
      14     H     0.42130  0.42130  0.00000  0.15739
      15     H     0.42663  0.42663  0.00000  0.14673
      16     C     3.15210  3.15210  0.00000 -0.30420
      17     H     0.42341  0.42341  0.00000  0.15317
      18     H     0.42318  0.42318  0.00000  0.15364
      19     C     3.24090  3.24090  0.00000 -0.48180
      20     H     0.42178  0.42178  0.00000  0.15645
      21     H     0.42423  0.42423  0.00000  0.15154
      22     H     0.42210  0.42210  0.00000  0.15580
      23     H     0.42021  0.42021  0.00000  0.15958
      24     H     0.42008  0.42008  0.00000  0.15984

   Total alpha = 33.00000, Total beta = 33.00000, Total charge = -0.00000
