                              Psi4 1.0.54 Driver

  ==> Input File <==

--------------------------------------------------------------------------
set {
	reference rhf
	basis cc-pvtz
}

set_num_threads( 4 )
memory 2 gb

molecule MOL {
0 1

H	 -2.676180	 0.721373	 0.053424
O	 -2.313989	 -0.142475	 -0.025864
C	 -0.943808	 -0.065018	 -0.330000
H	 -0.812293	 -0.225641	 -1.398673
C	 -0.231030	 -1.182113	 0.407592
C	 -0.353797	 1.300461	 0.050970
H	 -0.312800	 -0.992012	 1.473041
H	 -0.738841	 -2.119564	 0.220514
C	 1.246176	 -1.268044	 -0.015480
H	 -0.539537	 2.008579	 -0.751815
H	 -0.889989	 1.662858	 0.920677
C	 1.153605	 1.231851	 0.356834
H	 1.823096	 -1.684665	 0.802361
H	 1.352335	 -1.958223	 -0.845114
C	 1.826409	 0.100723	 -0.416008
H	 1.622968	 2.181508	 0.128734
H	 1.301983	 1.066493	 1.419367
H	 2.897299	 0.112407	 -0.249665
H	 1.683458	 0.265621	 -1.480024

	symmetry c1
}
set optking {
	frozen_dihedral = ("
		1 2 3 4
	")
}

ee,wfn = optimize('scf', return_wfn=True)
oeprop( wfn, 'DIPOLE', 'QUADRUPOLE', 'MULLIKEN_CHARGES')
f=open( 'psi4out.xyz', 'w' )
f.write( "19  " )
f.write( str(ee) + "\n" )
f.write( MOL.save_string_xyz() )
f.close()
--------------------------------------------------------------------------

    Molecular point group: c1
  Charge       = 0
  Multiplicity = 1
  Basis Set: CC-PVTZ
  Basis Set:
  @DF-RHF Final Energy:  -309.16209766386294
    Total Energy =                       -309.1620976638627667
    Molecular point group: c1
  Basis Set: CC-PVTZ
  Basis Set:
  Basis Set: CC-PVTZ
  Basis Set:
  @DF-RHF Final Energy:  -309.16220594969764
    Total Energy =                       -309.1622059496977499
  Basis Set: CC-PVTZ
  Basis Set:
  Basis Set: CC-PVTZ
  Basis Set:
  @DF-RHF Final Energy:  -309.16224075904432
    Total Energy =                       -309.1622407590443800
  Basis Set: CC-PVTZ
  Basis Set:
  Charge       = 0
  Multiplicity = 1
  Basis Set: CC-PVTZ
  Basis Set:

    Orbital Energies (a.u.)
    -----------------------

    Doubly Occupied:

       1A    -20.541714     2A    -11.267058     3A    -11.218524
       4A    -11.217878     5A    -11.214905     6A    -11.213491
       7A    -11.206190     8A     -1.362043     9A     -1.111618
      10A     -1.005392    11A     -0.990071    12A     -0.847221
      13A     -0.839870    14A     -0.741732    15A     -0.683470
      16A     -0.669384    17A     -0.626574    18A     -0.599922
      19A     -0.582971    20A     -0.550928    21A     -0.529069
      22A     -0.521177    23A     -0.502121    24A     -0.486812
      25A     -0.468777    26A     -0.450175    27A     -0.427432
      28A     -0.414872

  @DF-RHF Final Energy:  -309.16224139849982

   => Energetics <=

    Nuclear Repulsion Energy =            332.0602808070094056
    One-Electron Energy =               -1077.8622522119044334
    Two-Electron Energy =                 436.6397300063952116
    DFT Exchange-Correlation Energy =       0.0000000000000000
    Empirical Dispersion Energy =           0.0000000000000000
    PCM Polarization Energy =               0.0000000000000000
    EFP Energy =                            0.0000000000000000
    Total Energy =                       -309.1622413984998730
    Molecular point group: c1
  Basis Set: CC-PVTZ
  Basis Set:

  -Total Gradient:
     Atom            X                  Y                   Z
    ------   -----------------  -----------------  -----------------
       1        0.000313119572    -0.000019094650     0.001671053945
       2       -0.000374518060    -0.000365248968    -0.002001557590
       3       -0.000089723312     0.001751261342     0.000111771420
       4        0.000150639318    -0.001427633093     0.000273304252
       5       -0.000023148119    -0.000029544590    -0.000049751922
       6        0.000067319219     0.000014928313    -0.000020109254
       7        0.000000602509     0.000009103791    -0.000020935269
       8       -0.000013576525    -0.000020854442     0.000011082274
       9       -0.000013543407     0.000009998430    -0.000000949436
      10        0.000014485547     0.000007373973     0.000013536926
      11        0.000016061391     0.000004064533     0.000011403275
      12       -0.000012483232     0.000045226519    -0.000024242885
      13       -0.000008048948    -0.000006143713     0.000012632808
      14       -0.000007042539    -0.000003543471     0.000017015534
      15       -0.000011230192    -0.000011567633    -0.000004399553
      16        0.000003133103     0.000019161556     0.000015001744
      17       -0.000008088958    -0.000003779145    -0.000005989421
      18       -0.000005262528     0.000008505543    -0.000005189601
      19        0.000001305158     0.000017785706    -0.000003677245

  **** Optimization is complete! (in 4 steps) ****
    Final optimized geometry and variables:
    Molecular point group: c1

    Geometry (in Angstrom), charge = 0, multiplicity = 1:

    H           -2.695576009961     0.706444551250    -0.045803783154
    O           -2.319178865719    -0.151390358325    -0.107059461687
    C           -0.935070240932    -0.067833661289    -0.345579906224
    H           -0.769138251892    -0.231596042970    -1.408019112926
    C           -0.233665259172    -1.182998047445     0.408628545410
    C           -0.360167846380     1.296970319791     0.051372599492
    H           -0.332610612461    -0.992107210725     1.472777718408
    H           -0.737843698148    -2.121290656643     0.214958671578
    C            1.249615833760    -1.267461239279     0.007451129051
    H           -0.543199239700     2.009064341630    -0.747532290934
    H           -0.900324797464     1.654141586975     0.923333493064
    C            1.143895394263     1.233571866590     0.375741924552
    H            1.816041334278    -1.682467424379     0.833433099487
    H            1.369436035611    -1.957132305613    -0.820630976979
    C            1.831680534942     0.103205446574    -0.385325617031
    H            1.611613880448     2.184794965505     0.151293594818
    H            1.278998195256     1.071127868693     1.440319434700
    H            2.899434680456     0.120045762321    -0.200619564638
    H            1.705975812296     0.266950257524    -1.451400954645

  Mulliken Charges: (a.u.)
   Center  Symbol    Alpha    Beta     Spin     Total
       1     H     0.39294  0.39294  0.00000  0.21412
       2     O     4.20601  4.20601  0.00000 -0.41203
       3     C     2.92245  2.92245  0.00000  0.15510
       4     H     0.45922  0.45922  0.00000  0.08157
       5     C     3.09552  3.09552  0.00000 -0.19103
       6     C     3.12646  3.12646  0.00000 -0.25292
       7     H     0.45726  0.45726  0.00000  0.08548
       8     H     0.44086  0.44086  0.00000  0.11828
       9     C     3.11410  3.11410  0.00000 -0.22820
      10     H     0.44511  0.44511  0.00000  0.10978
      11     H     0.45237  0.45237  0.00000  0.09527
      12     C     3.10055  3.10055  0.00000 -0.20111
      13     H     0.44710  0.44710  0.00000  0.10580
      14     H     0.44707  0.44707  0.00000  0.10587
      15     C     3.10251  3.10251  0.00000 -0.20501
      16     H     0.44206  0.44206  0.00000  0.11588
      17     H     0.45233  0.45233  0.00000  0.09534
      18     H     0.44272  0.44272  0.00000  0.11456
      19     H     0.45337  0.45337  0.00000  0.09326

   Total alpha = 28.00000, Total beta = 28.00000, Total charge = -0.00000

*** Psi4 exiting successfully. Buy a developer a beer!
