  ==> Input File <==

--------------------------------------------------------------------------
set {
	reference rhf
	basis 6-31G*
}

set_num_threads( 4 )
memory 2 gb

molecule MOL {
0 1

O	 -2.660041	 1.089815	 -1.063721
C	 -2.582986	 0.013522	 -0.563450
C	 -3.725503	 -0.967326	 -0.501301
O	 -1.481751	 -0.454642	 0.000584
H	 -4.056087	 -1.180799	 -1.510759
H	 -3.442817	 -1.884360	 -0.005745
H	 -4.552870	 -0.504880	 0.023568
C	 -0.334255	 0.388708	 0.000906
C	 0.891947	 -0.504646	 0.000751
H	 -0.365390	 1.025305	 -0.873475
H	 -0.365484	 1.024911	 0.875569
C	 2.191998	 0.301789	 0.000897
H	 0.855148	 -1.151283	 -0.871571
H	 0.855132	 -1.151660	 0.872805
C	 3.441114	 -0.581407	 0.000108
H	 2.215074	 0.954890	 -0.869742
H	 2.215465	 0.953923	 0.872248
C	 4.739576	 0.224112	 -0.001102
H	 3.419457	 -1.233487	 -0.870178
H	 3.420834	 -1.233096	 0.870717
H	 4.804918	 0.861552	 -0.878265
H	 5.606527	 -0.429058	 -0.001824
H	 4.806469	 0.861674	 0.875853

	symmetry c1
}
set optking {
	frozen_dihedral = ("
		2 4 8 10
	")
}

ee = optimize('scf')
oeprop('DIPOLE', 'QUADRUPOLE', 'MULLIKEN_CHARGES')
f=open( 'psi4out.xyz', 'w' )
f.write( "23  " )
f.write( str(ee) + "\n" )
f.write( MOL.save_string_xyz() )
f.close()
--------------------------------------------------------------------------

    Molecular point group: c1
  Charge       = 0
  Multiplicity = 1
  Basis Set: 6-31G*
  Basis Set:
  @DF-RHF Final Energy:  -422.97823336109769
    Total Energy =                       -422.9782333610976366
    Molecular point group: c1
  Basis Set: 6-31G*
  Basis Set:
  Basis Set: 6-31G*
  Basis Set:
  @DF-RHF Final Energy:  -422.97831583197160
    Total Energy =                       -422.9783158319723952
  Basis Set: 6-31G*
  Basis Set:
  Basis Set: 6-31G*
  Basis Set:
  @DF-RHF Final Energy:  -422.97823657735535
    Total Energy =                       -422.9782365773548918
  Basis Set: 6-31G*
  Basis Set:
  Basis Set: 6-31G*
  Basis Set:
  @DF-RHF Final Energy:  -422.97848949061660
    Total Energy =                       -422.9784894906163117
  Basis Set: 6-31G*
  Basis Set:
  Basis Set: 6-31G*
  Basis Set:
  @DF-RHF Final Energy:  -422.97849368056893
    Total Energy =                       -422.9784936805694997
  Basis Set: 6-31G*
  Basis Set:
  Charge       = 0
  Multiplicity = 1
  Basis Set: 6-31G*
  Basis Set:

    Orbital Energies (a.u.)
    -----------------------

    Doubly Occupied:

       1A    -20.602636     2A    -20.540211     3A    -11.374799
       4A    -11.280826     5A    -11.232046     6A    -11.224578
       7A    -11.223940     8A    -11.221783     9A    -11.213027
      10A     -1.466621    11A     -1.361023    12A     -1.094262
      13A     -1.042279    14A     -1.003270    15A     -0.931355
      16A     -0.843164    17A     -0.802259    18A     -0.774125
      19A     -0.694729    20A     -0.681972    21A     -0.665868
      22A     -0.647107    23A     -0.605778    24A     -0.588395
      25A     -0.583303    26A     -0.568702    27A     -0.556700
      28A     -0.536903    29A     -0.523444    30A     -0.505732
      31A     -0.490758    32A     -0.478112    33A     -0.471651
      34A     -0.468931    35A     -0.447493    36A     -0.434129

  @DF-RHF Final Energy:  -422.97849391768239

   => Energetics <=

    Nuclear Repulsion Energy =            449.7790323952252720
    One-Electron Energy =               -1467.1512266714094039
    Two-Electron Energy =                 594.3937003585017465
    DFT Exchange-Correlation Energy =       0.0000000000000000
    Empirical Dispersion Energy =           0.0000000000000000
    PCM Polarization Energy =               0.0000000000000000
    EFP Energy =                            0.0000000000000000
    Total Energy =                       -422.9784939176823855
    Molecular point group: c1
  Basis Set: 6-31G*
  Basis Set:

  -Total Gradient:
     Atom            X                  Y                   Z
    ------   -----------------  -----------------  -----------------
       1       -0.000008620763    -0.000018207933     0.000015066680
       2        0.000359083112    -0.000518196017    -0.001241844271
       3        0.000000363283     0.000018415840     0.000039782279
       4       -0.000714697393     0.001012538974     0.001948340973
       5        0.000008481190    -0.000013345798    -0.000011181073
       6        0.000006385157     0.000006327633    -0.000004619310
       7       -0.000003587266     0.000003311910    -0.000016870543
       8        0.001110027839    -0.001622947134    -0.001549126015
       9       -0.000011392542     0.000007974532     0.000004114769
      10       -0.000765578732     0.001095669767     0.000836100466
      11        0.000029432727     0.000027301607     0.000005282899
      12       -0.000009103177     0.000001847864    -0.000005806370
      13        0.000006508820    -0.000004898598    -0.000004399156
      14       -0.000009952175     0.000007192633    -0.000004457294
      15        0.000000162379    -0.000000610967    -0.000010680740
      16        0.000001082934    -0.000001914690    -0.000001426387
      17       -0.000003031381     0.000000895402    -0.000004442520
      18        0.000002421435    -0.000001810041     0.000008798351
      19        0.000003041899     0.000002487037    -0.000002095893
      20       -0.000002156818    -0.000002075098    -0.000003025184
      21       -0.000001001227    -0.000003339072     0.000000002411
      22        0.000001731056     0.000000732689     0.000003194070
      23        0.000000399639     0.000002649465    -0.000000708141

  **** Optimization is complete! (in 6 steps) ****
    Final optimized geometry and variables:
    Molecular point group: c1

    Geometry (in Angstrom), charge = 0, multiplicity = 1:

    O           -2.750559893845     1.150372242701    -0.797159506525
    C           -2.635070739608     0.070513118591    -0.312399349788
    C           -3.754111874564    -0.936582345235    -0.239584808007
    O           -1.515166217938    -0.383896833724     0.226766647484
    H           -4.105388017526    -1.138888708123    -1.244355584270
    H           -3.439504883639    -1.855707149878     0.232151398091
    H           -4.577716117404    -0.501534823771     0.313868420100
    C           -0.356533227122     0.445450894160     0.199356720982
    C            0.865669230694    -0.453653862949     0.214350852105
    H           -0.390058478348     1.078168728038    -0.674283232010
    H           -0.382770630999     1.086842951296     1.072694400595
    C            2.169072368470     0.347110953012     0.232183373421
    H            0.836337219361    -1.098043448197    -0.660132432672
    H            0.815530600137    -1.102474836778     1.084264951385
    C            3.414422921217    -0.541295066665     0.243712936916
    H            2.205088618134     1.002855786828    -0.635991403896
    H            2.184942381758     0.996307109876     1.105972907243
    C            4.716063751380     0.258831479977     0.264454807475
    H            3.401934083410    -1.188612453437    -0.630276411041
    H            3.379503517414    -1.197490084571     1.110480472890
    H            4.796136232390     0.900308059680    -0.608513908916
    H            5.580232915811    -0.397951769285     0.272424602702
    H            4.773524139639     0.891763818631     1.145446096189

  Mulliken Charges: (a.u.)
   Center  Symbol    Alpha    Beta     Spin     Total
       1     O     4.28364  4.28364  0.00000 -0.56727
       2     C     2.61552  2.61552  0.00000  0.76896
       3     C     3.28807  3.28807  0.00000 -0.57614
       4     O     4.31317  4.31317  0.00000 -0.62634
       5     H     0.39772  0.39772  0.00000  0.20455
       6     H     0.39993  0.39993  0.00000  0.20013
       7     H     0.39748  0.39748  0.00000  0.20503
       8     C     2.99990  2.99990  0.00000  0.00020
       9     C     3.16380  3.16380  0.00000 -0.32759
      10     H     0.40051  0.40051  0.00000  0.19898
      11     H     0.41561  0.41561  0.00000  0.16879
      12     C     3.16045  3.16045  0.00000 -0.32091
      13     H     0.41523  0.41523  0.00000  0.16954
      14     H     0.41393  0.41393  0.00000  0.17214
      15     C     3.15142  3.15142  0.00000 -0.30283
      16     H     0.42020  0.42020  0.00000  0.15959
      17     H     0.42121  0.42121  0.00000  0.15758
      18     C     3.23989  3.23989  0.00000 -0.47978
      19     H     0.42126  0.42126  0.00000  0.15747
      20     H     0.42142  0.42142  0.00000  0.15716
      21     H     0.42068  0.42068  0.00000  0.15864
      22     H     0.41797  0.41797  0.00000  0.16406
      23     H     0.42099  0.42099  0.00000  0.15802

   Total alpha = 36.00000, Total beta = 36.00000, Total charge =  0.00000
