  ==> Input File <==

--------------------------------------------------------------------------
set {
	reference rhf
	basis cc-pvtz
}

set_num_threads( 4 )
memory 2 gb

molecule MOL {
0 1

H	 -2.498963	 -0.741158	 -0.729149
O	 -2.346257	 -0.289210	 0.080372
C	 -1.183935	 0.486039	 -0.009831
C	 0.062853	 -0.375310	 0.027457
H	 -1.178881	 1.094526	 -0.908634
H	 -1.184406	 1.155156	 0.838676
O	 0.976343	 0.215592	 0.892223
H	 0.485624	 -0.461698	 -0.974890
H	 -0.197926	 -1.378104	 0.359080
C	 2.164547	 -0.487877	 1.048828
H	 2.692948	 -0.590899	 0.103602
H	 2.787630	 0.063804	 1.737379
H	 1.987615	 -1.481270	 1.454273

	symmetry c1
}
set optking {
	frozen_dihedral = ("
		8 4 3 5
	")
}

ee = optimize('scf')
oeprop('DIPOLE', 'QUADRUPOLE', 'MULLIKEN_CHARGES')
f=open( 'psi4out.xyz', 'w' )
f.write( "13  " )
f.write( str(ee) + "\n" )
f.write( MOL.save_string_xyz() )
f.close()
--------------------------------------------------------------------------

    Molecular point group: c1
  Charge       = 0
  Multiplicity = 1
  Basis Set: CC-PVTZ
  Basis Set:
  @DF-RHF Final Energy:  -268.05643068316579
    Total Energy =                       -268.0564306831659565
    Molecular point group: c1
  Basis Set: CC-PVTZ
  Basis Set:
  Basis Set: CC-PVTZ
  Basis Set:
  @DF-RHF Final Energy:  -268.05700327269244
    Total Energy =                       -268.0570032726925547
  Basis Set: CC-PVTZ
  Basis Set:
  Basis Set: CC-PVTZ
  Basis Set:
  @DF-RHF Final Energy:  -268.05717305705400
    Total Energy =                       -268.0571730570542286
  Basis Set: CC-PVTZ
  Basis Set:
  Basis Set: CC-PVTZ
  Basis Set:
  @DF-RHF Final Energy:  -268.05717737054749
    Total Energy =                       -268.0571773705474925
  Basis Set: CC-PVTZ
  Basis Set:
  Charge       = 0
  Multiplicity = 1
  Basis Set: CC-PVTZ
  Basis Set:

    Orbital Energies (a.u.)
    -----------------------

    Doubly Occupied:

       1A    -20.553669     2A    -20.550623     3A    -11.268784
       4A    -11.267897     5A    -11.265843     6A     -1.388923
       7A     -1.366276     8A     -1.016718     9A     -0.912530
      10A     -0.842920    11A     -0.709071    12A     -0.668907
      13A     -0.666391    14A     -0.643581    15A     -0.584971
      16A     -0.572069    17A     -0.547411    18A     -0.491227
      19A     -0.482401    20A     -0.440564    21A     -0.422146

  @DF-RHF Final Energy:  -268.05717802812535

   => Energetics <=

    Nuclear Repulsion Energy =            190.2679417396011559
    One-Electron Energy =                -743.3243950348789895
    Two-Electron Energy =                 284.9992752671525977
    DFT Exchange-Correlation Energy =       0.0000000000000000
    Empirical Dispersion Energy =           0.0000000000000000
    PCM Polarization Energy =               0.0000000000000000
    EFP Energy =                            0.0000000000000000
    Total Energy =                       -268.0571780281252359
    Molecular point group: c1
  Basis Set: CC-PVTZ
  Basis Set:

  -Total Gradient:
     Atom            X                  Y                   Z
    ------   -----------------  -----------------  -----------------
       1        0.000001975250    -0.000023159281    -0.000009881580
       2        0.000012532874     0.000039875538    -0.000000016534
       3        0.003075689696     0.004684361993     0.002783642646
       4       -0.003425069178    -0.005022447335    -0.001476752653
       5       -0.002007035297    -0.003045284994    -0.002052278298
       6       -0.000009826820    -0.000015298930     0.000001463321
       7       -0.000002551551     0.000013381510     0.000016111501
       8        0.002338359066     0.003372626928     0.000738665745
       9        0.000008673077     0.000014375099     0.000008938726
      10        0.000016368675    -0.000026485480    -0.000020980229
      11        0.000004936699     0.000002243556     0.000000618577
      12       -0.000023420768     0.000007088950     0.000000790204
      13        0.000009368279    -0.000001277553     0.000009678574

  **** Optimization is complete! (in 5 steps) ****
    Final optimized geometry and variables:
    Molecular point group: c1

    Geometry (in Angstrom), charge = 0, multiplicity = 1:

    H           -2.443401959951    -0.569786179168    -1.197589193174
    O           -2.288635771260    -0.159082655764    -0.367054842390
    C           -1.099534029688     0.586805994046    -0.404405925050
    C            0.145614113194    -0.296510974565    -0.331327622441
    H           -1.084295718704     1.194207408449    -1.303242544362
    H           -1.108499926679     1.235913007330     0.456788941861
    O            1.068118853430     0.309783314752     0.521585199860
    H            0.603238283993    -0.409699962356    -1.313380600503
    H           -0.136231103611    -1.276836838258     0.042491283032
    C            2.274551430060    -0.368692904579     0.637637546522
    H            2.785279548431    -0.441295626541    -0.320320209585
    H            2.899913921659     0.183336066711     1.323948134995
    H            2.129952961811    -1.374096508058     1.026807552868

  Mulliken Charges: (a.u.)
   Center  Symbol    Alpha    Beta     Spin     Total
       1     H     0.39512  0.39512  0.00000  0.20976
       2     O     4.20057  4.20057  0.00000 -0.40113
       3     C     2.97339  2.97339  0.00000  0.05322
       4     C     2.97147  2.97147  0.00000  0.05706
       5     H     0.46757  0.46757  0.00000  0.06487
       6     H     0.44963  0.44963  0.00000  0.10073
       7     O     4.17371  4.17371  0.00000 -0.34741
       8     H     0.47998  0.47998  0.00000  0.04004
       9     H     0.46974  0.46974  0.00000  0.06052
      10     C     3.02979  3.02979  0.00000 -0.05958
      11     H     0.47219  0.47219  0.00000  0.05563
      12     H     0.44599  0.44599  0.00000  0.10803
      13     H     0.47087  0.47087  0.00000  0.05826

   Total alpha = 21.00000, Total beta = 21.00000, Total charge = -0.00000
