                              Psi4 1.0.54 Driver

  ==> Input File <==

--------------------------------------------------------------------------
set {
	reference rhf
	basis cc-pvtz
}

set_num_threads( 4 )
memory 2 gb

molecule MOL {
0 1

H	 -2.670090	 1.129958	 -1.130285
O	 -1.850806	 0.661227	 -1.183040
C	 -1.605397	 0.107680	 0.001145
C	 -0.310616	 -0.658853	 0.000791
O	 -2.341592	 0.231464	 0.918023
C	 0.926581	 0.227233	 0.000178
H	 -0.327628	 -1.313681	 -0.864448
H	 -0.327041	 -1.313334	 0.866298
C	 2.220156	 -0.582071	 -0.000088
H	 0.899945	 0.878221	 -0.866390
H	 0.900542	 0.878581	 0.866486
C	 3.466689	 0.296012	 -0.000457
H	 2.239073	 -1.234095	 -0.869382
H	 2.239505	 -1.233985	 0.869270
H	 3.493549	 0.935857	 -0.875887
H	 4.368821	 -0.304526	 -0.001199
H	 3.494559	 0.935166	 0.875458

	symmetry c1
}
set optking {
	frozen_dihedral = ("
		2 3 4 7
	")
}

ee,wfn = optimize('scf', return_wfn=True)
oeprop( wfn, 'DIPOLE', 'QUADRUPOLE', 'MULLIKEN_CHARGES')
f=open( 'psi4out.xyz', 'w' )
f.write( "17  " )
f.write( str(ee) + "\n" )
f.write( MOL.save_string_xyz() )
f.close()
--------------------------------------------------------------------------

    Molecular point group: c1
  Charge       = 0
  Multiplicity = 1
  Basis Set: CC-PVTZ
  Basis Set:
  @DF-RHF Final Energy:  -345.04718196842731
    Total Energy =                       -345.0471819684271395
    Molecular point group: c1
  Basis Set: CC-PVTZ
  Basis Set:
  Basis Set: CC-PVTZ
  Basis Set:
  @DF-RHF Final Energy:  -345.04763167124412
    Total Energy =                       -345.0476316712437210
  Basis Set: CC-PVTZ
  Basis Set:
  Basis Set: CC-PVTZ
  Basis Set:
  @DF-RHF Final Energy:  -345.04753637663032
    Total Energy =                       -345.0475363766306600
  Basis Set: CC-PVTZ
  Basis Set:
  Basis Set: CC-PVTZ
  Basis Set:
  @DF-RHF Final Energy:  -345.04766558420010
    Total Energy =                       -345.0476655841999900
  Basis Set: CC-PVTZ
  Basis Set:
  Basis Set: CC-PVTZ
  Basis Set:
  @DF-RHF Final Energy:  -345.04767453691238
    Total Energy =                       -345.0476745369127798
  Basis Set: CC-PVTZ
  Basis Set:
  Charge       = 0
  Multiplicity = 1
  Basis Set: CC-PVTZ
  Basis Set:

    Orbital Energies (a.u.)
    -----------------------

    Doubly Occupied:

       1A    -20.604452     2A    -20.539026     3A    -11.372297
       4A    -11.237705     5A    -11.230877     6A    -11.224750
       7A    -11.214276     8A     -1.476982     9A     -1.367792
      10A     -1.096617    11A     -1.021260    12A     -0.911981
      13A     -0.824800    14A     -0.807808    15A     -0.705612
      16A     -0.684946    17A     -0.653649    18A     -0.642374
      19A     -0.589623    20A     -0.587506    21A     -0.581917
      22A     -0.538541    23A     -0.516654    24A     -0.497367
      25A     -0.487166    26A     -0.479382    27A     -0.474480
      28A     -0.437919

  @DF-RHF Final Energy:  -345.04767473206823

   => Energetics <=

    Nuclear Repulsion Energy =            305.4887122367981647
    One-Electron Energy =               -1075.4572546936065010
    Two-Electron Energy =                 424.9208677247401624
    DFT Exchange-Correlation Energy =       0.0000000000000000
    Empirical Dispersion Energy =           0.0000000000000000
    PCM Polarization Energy =               0.0000000000000000
    EFP Energy =                            0.0000000000000000
    Total Energy =                       -345.0476747320681739
    Molecular point group: c1
  Basis Set: CC-PVTZ
  Basis Set:

  -Total Gradient:
     Atom            X                  Y                   Z
    ------   -----------------  -----------------  -----------------
       1       -0.000011518580     0.000016589151     0.000010932156
       2        0.000087689523     0.000042999305     0.000011169999
       3       -0.000100153533    -0.000109442955    -0.000050960910
       4        0.000105413907     0.000206793692    -0.000058747862
       5        0.000016855686    -0.000021695264     0.000022179118
       6       -0.000018582167    -0.000044968899     0.000009808947
       7       -0.000058036981    -0.000098136353     0.000037606747
       8       -0.000006848745    -0.000016424908     0.000023015993
       9       -0.000007799120     0.000001989058     0.000009567767
      10        0.000006732645     0.000011304117    -0.000012199316
      11        0.000005878787    -0.000008558101     0.000004943229
      12       -0.000001585910     0.000009987104    -0.000009745625
      13       -0.000013162600     0.000001699844     0.000002034464
      14       -0.000010009706     0.000004223584     0.000003074854
      15        0.000003829017     0.000005889703    -0.000002448617
      16        0.000000462262    -0.000001640517    -0.000002762967
      17        0.000000835496    -0.000000608561     0.000002532024

  **** Optimization is complete! (in 6 steps) ****
    Final optimized geometry and variables:
    Molecular point group: c1

    Geometry (in Angstrom), charge = 0, multiplicity = 1:

    H           -2.672416728544     1.130632863146    -1.044417885309
    O           -1.869218999199     0.637161516516    -1.116397121369
    C           -1.636734231389     0.040095074022     0.049443648814
    C           -0.357442502203    -0.750113098569     0.045913138431
    O           -2.371115526026     0.151893363246     0.969917145573
    C            0.879196329587     0.155018337251     0.035417988723
    H           -0.352942851595    -1.388414837477    -0.830089602784
    H           -0.364577394472    -1.373851930720     0.927927675785
    C            2.179498030730    -0.642631589671     0.059269193321
    H            0.855126490216     0.786978766363    -0.845244081044
    H            0.844021716508     0.814659299176     0.897370298217
    C            3.418440421166     0.246100176561     0.055046302391
    H            2.208087417430    -1.306584988982    -0.800152836225
    H            2.194460384786    -1.279441708785     0.939021247379
    H            3.448038253419     0.872029491321    -0.830375433556
    H            4.324755239551    -0.347655436402     0.070990837130
    H            3.434820050529     0.898492737268     0.921465417258

  Mulliken Charges: (a.u.)
   Center  Symbol    Alpha    Beta     Spin     Total
       1     H     0.38054  0.38054  0.00000  0.23892
       2     O     4.16425  4.16425  0.00000 -0.32850
       3     C     2.80661  2.80661  0.00000  0.38678
       4     C     3.08619  3.08619  0.00000 -0.17237
       5     O     4.19567  4.19567  0.00000 -0.39134
       6     C     3.09993  3.09993  0.00000 -0.19986
       7     H     0.44392  0.44392  0.00000  0.11217
       8     H     0.43673  0.43673  0.00000  0.12654
       9     C     3.08732  3.08732  0.00000 -0.17464
      10     H     0.44344  0.44344  0.00000  0.11311
      11     H     0.44643  0.44643  0.00000  0.10714
      12     C     3.14921  3.14921  0.00000 -0.29843
      13     H     0.45314  0.45314  0.00000  0.09373
      14     H     0.45201  0.45201  0.00000  0.09599
      15     H     0.45403  0.45403  0.00000  0.09193
      16     H     0.44710  0.44710  0.00000  0.10581
      17     H     0.45349  0.45349  0.00000  0.09302

   Total alpha = 28.00000, Total beta = 28.00000, Total charge = -0.00000

*** Psi4 exiting successfully. Buy a developer a beer!
