  ==> Input File <==

--------------------------------------------------------------------------
set {
	reference rhf
	basis 6-31G*
}

set_num_threads( 4 )
memory 2 gb

molecule MOL {
0 1

H	 -1.779309	 -0.956040	 -0.071111
O	 -2.035884	 -0.060112	 0.102722
C	 -0.955155	 0.788182	 -0.092531
C	 0.353668	 0.040312	 -0.004810
H	 -0.985057	 1.290372	 -1.054184
H	 -0.974469	 1.533190	 0.688632
F	 0.394464	 -0.937475	 -0.903053
F	 1.368604	 0.853376	 -0.249821
F	 0.546173	 -0.502608	 1.179981

	symmetry c1
}
set optking {
	frozen_dihedral = ("
		1 2 3 5
	")
}

ee = optimize('scf')
oeprop('DIPOLE', 'QUADRUPOLE', 'MULLIKEN_CHARGES')
f=open( 'psi4out.xyz', 'w' )
f.write( "9  " )
f.write( str(ee) + "\n" )
f.write( MOL.save_string_xyz() )
f.close()
--------------------------------------------------------------------------

    Molecular point group: c1
  Charge       = 0
  Multiplicity = 1
  Basis Set: 6-31G*
  Basis Set:
  @DF-RHF Final Energy:  -450.65908650508948
    Total Energy =                       -450.6590865050895900
    Molecular point group: c1
  Basis Set: 6-31G*
  Basis Set:
  Basis Set: 6-31G*
  Basis Set:
  @DF-RHF Final Energy:  -450.65935146278184
    Total Energy =                       -450.6593514627819559
  Basis Set: 6-31G*
  Basis Set:
  Basis Set: 6-31G*
  Basis Set:
  @DF-RHF Final Energy:  -450.65945523134474
    Total Energy =                       -450.6594552313449071
  Basis Set: 6-31G*
  Basis Set:
  Charge       = 0
  Multiplicity = 1
  Basis Set: 6-31G*
  Basis Set:

    Orbital Energies (a.u.)
    -----------------------

    Doubly Occupied:

       1A    -26.350950     2A    -26.350666     3A    -26.346778
       4A    -20.586964     5A    -11.508529     6A    -11.309316
       7A     -1.747929     8A     -1.647174     9A     -1.643542
      10A     -1.398802    11A     -1.051769    12A     -0.929243
      13A     -0.837390    14A     -0.836205    15A     -0.816144
      16A     -0.721974    17A     -0.719127    18A     -0.684454
      19A     -0.671197    20A     -0.669426    21A     -0.649876
      22A     -0.640184    23A     -0.621761    24A     -0.526243
      25A     -0.476676

  @DF-RHF Final Energy:  -450.65945814412669

   => Energetics <=

    Nuclear Repulsion Energy =            277.3264587057622066
    One-Electron Energy =               -1176.4871950027902585
    Two-Electron Energy =                 448.5012781529014205
    DFT Exchange-Correlation Energy =       0.0000000000000000
    Empirical Dispersion Energy =           0.0000000000000000
    PCM Polarization Energy =               0.0000000000000000
    EFP Energy =                            0.0000000000000000
    Total Energy =                       -450.6594581441266314
    Molecular point group: c1
  Basis Set: 6-31G*
  Basis Set:

  -Total Gradient:
     Atom            X                  Y                   Z
    ------   -----------------  -----------------  -----------------
       1        0.000924481468    -0.000431530608     0.003320716947
       2       -0.001685508766     0.001197661746    -0.003704693884
       3        0.002281247581    -0.003153308127    -0.001029460204
       4       -0.000121542993     0.000075115544     0.000282656566
       5       -0.001493282956     0.002280990078     0.001326962232
       6        0.000026846646    -0.000052553755     0.000027904089
       7       -0.000021376084     0.000023427114     0.000234296555
       8        0.000178121910     0.000162326941    -0.000126590316
       9       -0.000088986805    -0.000102128934    -0.000331791992

  **** Optimization is complete! (in 4 steps) ****
    Final optimized geometry and variables:
    Molecular point group: c1

    Geometry (in Angstrom), charge = 0, multiplicity = 1:

    H           -1.829905735541    -0.960165012846    -0.109398881052
    O           -2.053038491831    -0.059911448214     0.084256618034
    C           -0.959221983485     0.781310220058    -0.093471964479
    C            0.355139923593     0.047456132549    -0.011951988467
    H           -1.007040087989     1.297574032801    -1.045610432327
    H           -0.967103139330     1.525935217168     0.690877627973
    F            0.394936788873    -0.951780498570    -0.886458988683
    F            1.361202901030     0.859860412948    -0.275361376202
    F            0.555684906951    -0.479961802019     1.182094361071

  Mulliken Charges: (a.u.)
   Center  Symbol    Alpha    Beta     Spin     Total
       1     H     0.27066  0.27066  0.00000  0.45867
       2     O     4.37038  4.37038  0.00000 -0.74077
       3     C     3.02855  3.02855  0.00000 -0.05710
       4     C     2.48335  2.48335  0.00000  1.03330
       5     H     0.40765  0.40765  0.00000  0.18469
       6     H     0.40075  0.40075  0.00000  0.19850
       7     F     4.68415  4.68415  0.00000 -0.36831
       8     F     4.67811  4.67811  0.00000 -0.35622
       9     F     4.67639  4.67639  0.00000 -0.35278

   Total alpha = 25.00000, Total beta = 25.00000, Total charge = -0.00000
