                              Psi4 1.0.54 Driver

  ==> Input File <==

--------------------------------------------------------------------------
set {
	reference rhf
	basis cc-pvtz
}

set_num_threads( 4 )
memory 2 gb

molecule MOL {
0 1

H	 -1.974766	 0.482924	 2.283599
O	 -1.574520	 1.314763	 2.108248
C	 -0.815951	 1.248900	 0.933355
C	 0.468726	 0.472382	 1.144110
H	 -1.379640	 0.805246	 0.118766
H	 -0.579962	 2.265412	 0.652833
O	 1.172093	 0.457955	 -0.054438
H	 0.240106	 -0.545049	 1.465766
H	 1.051357	 0.941187	 1.934260
C	 2.395478	 -0.199028	 -0.000366
H	 2.505946	 -0.901710	 -0.823354
H	 3.174616	 0.545641	 -0.071768
H	 2.513730	 -0.742241	 0.934223

	symmetry c1
}
set optking {
	frozen_dihedral = ("
		4 7 10 13
	")
}

ee,wfn = optimize('scf', return_wfn=True)
oeprop( wfn, 'DIPOLE', 'QUADRUPOLE', 'MULLIKEN_CHARGES')
f=open( 'psi4out.xyz', 'w' )
f.write( "13  " )
f.write( str(ee) + "\n" )
f.write( MOL.save_string_xyz() )
f.close()
--------------------------------------------------------------------------

    Molecular point group: c1
  Charge       = 0
  Multiplicity = 1
  Basis Set: CC-PVTZ
  Basis Set:
  @DF-RHF Final Energy:  -268.05835569792174
    Total Energy =                       -268.0583556979216837
    Molecular point group: c1
  Basis Set: CC-PVTZ
  Basis Set:
  Basis Set: CC-PVTZ
  Basis Set:
  @DF-RHF Final Energy:  -268.05881670660870
    Total Energy =                       -268.0588167066084679
  Basis Set: CC-PVTZ
  Basis Set:
  Basis Set: CC-PVTZ
  Basis Set:
  @DF-RHF Final Energy:  -268.05893008808175
    Total Energy =                       -268.0589300880817518
  Basis Set: CC-PVTZ
  Basis Set:
  Charge       = 0
  Multiplicity = 1
  Basis Set: CC-PVTZ
  Basis Set:

    Orbital Energies (a.u.)
    -----------------------

    Doubly Occupied:

       1A    -20.552641     2A    -20.552529     3A    -11.269705
       4A    -11.267371     5A    -11.266923     6A     -1.387818
       7A     -1.368398     8A     -1.019389     9A     -0.914227
      10A     -0.842495    11A     -0.711054    12A     -0.673697
      13A     -0.661044    14A     -0.637975    15A     -0.598372
      16A     -0.569276    17A     -0.551111    18A     -0.490807
      19A     -0.483511    20A     -0.441147    21A     -0.419280

  @DF-RHF Final Energy:  -268.05893094653777

   => Energetics <=

    Nuclear Repulsion Energy =            190.1883790548964441
    One-Electron Energy =                -743.1370771206766221
    Two-Electron Energy =                 284.8897671192424355
    DFT Exchange-Correlation Energy =       0.0000000000000000
    Empirical Dispersion Energy =           0.0000000000000000
    PCM Polarization Energy =               0.0000000000000000
    EFP Energy =                            0.0000000000000000
    Total Energy =                       -268.0589309465377141
    Molecular point group: c1
  Basis Set: CC-PVTZ
  Basis Set:

  -Total Gradient:
     Atom            X                  Y                   Z
    ------   -----------------  -----------------  -----------------
       1        0.000003458853     0.000004483177    -0.000003567326
       2       -0.000025786972     0.000026740583     0.000037769546
       3       -0.000000331532    -0.000025036427     0.000004397762
       4       -0.000571147900    -0.000999879503    -0.000284728548
       5        0.000023353409     0.000006055387    -0.000005905482
       6       -0.000013812220     0.000005324910     0.000001158025
       7        0.001036845963     0.001616881048     0.000607413161
       8       -0.000003088546     0.000010449124     0.000013279017
       9        0.000012763104    -0.000004458435    -0.000049541384
      10       -0.000993801223    -0.001725871349    -0.000923638891
      11       -0.000026459011    -0.000003763411     0.000004570604
      12        0.000019997620    -0.000010563288    -0.000007877487
      13        0.000538008456     0.001099638183     0.000606671005

  **** Optimization is complete! (in 4 steps) ****
    Final optimized geometry and variables:
    Molecular point group: c1

    Geometry (in Angstrom), charge = 0, multiplicity = 1:

    H           -2.336476719353    -0.143500514220     1.370433544148
    O           -1.916511550859     0.682921238022     1.216996468014
    C           -1.120770271227     0.614988507132     0.066819808090
    C            0.142999391498    -0.185012579119     0.312269770277
    H           -1.664270366331     0.188163477258    -0.770171999392
    H           -0.858993228411     1.629849437427    -0.196242228520
    O            0.880779636815    -0.199823228941    -0.866577635760
    H           -0.114480408914    -1.200027635808     0.617048215693
    H            0.704943052126     0.268953262873     1.125229241653
    C            2.102960411104    -0.871545074879    -0.821006689664
    H            2.168865279757    -1.552324644937    -1.660154395865
    H            2.922137859749    -0.162962822708    -0.883033033300
    H            2.218652632629    -1.437578355862     0.097320831634

  Mulliken Charges: (a.u.)
   Center  Symbol    Alpha    Beta     Spin     Total
       1     H     0.39416  0.39416  0.00000  0.21167
       2     O     4.20212  4.20212  0.00000 -0.40424
       3     C     2.97528  2.97528  0.00000  0.04945
       4     C     2.96482  2.96482  0.00000  0.07035
       5     H     0.46715  0.46715  0.00000  0.06570
       6     H     0.45278  0.45278  0.00000  0.09444
       7     O     4.18021  4.18021  0.00000 -0.36041
       8     H     0.48137  0.48137  0.00000  0.03727
       9     H     0.46982  0.46982  0.00000  0.06035
      10     C     3.02730  3.02730  0.00000 -0.05460
      11     H     0.45462  0.45462  0.00000  0.09076
      12     H     0.45872  0.45872  0.00000  0.08255
      13     H     0.47165  0.47165  0.00000  0.05670

   Total alpha = 21.00000, Total beta = 21.00000, Total charge =  0.00000

*** Psi4 exiting successfully. Buy a developer a beer!
