                              Psi4 1.0.54 Driver

  ==> Input File <==

--------------------------------------------------------------------------
set {
	reference rhf
	basis cc-pvtz
}

set_num_threads( 4 )
memory 2 gb

molecule MOL {
0 1

H	 -2.406498	 0.775454	 2.256171
C	 -2.158673	 -0.183458	 1.806776
O	 -0.887441	 -0.169988	 1.248808
H	 -2.174299	 -0.942042	 2.575668
H	 -2.918658	 -0.422153	 1.064932
C	 -0.718530	 0.758693	 0.228682
C	 0.718529	 0.758687	 -0.228709
H	 -1.358332	 0.509837	 -0.617896
H	 -0.985500	 1.756934	 0.568789
O	 1.401606	 -0.295166	 0.366636
H	 0.748705	 0.673477	 -1.312803
H	 1.176496	 1.708671	 0.046552
C	 2.714315	 -0.441627	 -0.061017
H	 2.765292	 -0.641548	 -1.128869
H	 3.305661	 0.447341	 0.150952
H	 3.143725	 -1.278506	 0.470147

	symmetry c1
}
set optking {
	frozen_dihedral = ("
		3 6 7 11
	")
}

ee,wfn = optimize('scf', return_wfn=True)
oeprop( wfn, 'DIPOLE', 'QUADRUPOLE', 'MULLIKEN_CHARGES')
f=open( 'psi4out.xyz', 'w' )
f.write( "16  " )
f.write( str(ee) + "\n" )
f.write( MOL.save_string_xyz() )
f.close()
--------------------------------------------------------------------------

    Molecular point group: c1
  Charge       = 0
  Multiplicity = 1
  Basis Set: CC-PVTZ
  Basis Set:
  @DF-RHF Final Energy:  -307.08319878013521
    Total Energy =                       -307.0831987801350351
    Molecular point group: c1
  Basis Set: CC-PVTZ
  Basis Set:
  Basis Set: CC-PVTZ
  Basis Set:
  @DF-RHF Final Energy:  -307.08391102898474
    Total Energy =                       -307.0839110289847440
  Basis Set: CC-PVTZ
  Basis Set:
  Basis Set: CC-PVTZ
  Basis Set:
  @DF-RHF Final Energy:  -307.08494212127664
    Total Energy =                       -307.0849421212767538
  Basis Set: CC-PVTZ
  Basis Set:
  Basis Set: CC-PVTZ
  Basis Set:
  @DF-RHF Final Energy:  -307.08497168854001
    Total Energy =                       -307.0849716885400653
  Basis Set: CC-PVTZ
  Basis Set:
  Charge       = 0
  Multiplicity = 1
  Basis Set: CC-PVTZ
  Basis Set:

    Orbital Energies (a.u.)
    -----------------------

    Doubly Occupied:

       1A    -20.545622     2A    -20.544998     3A    -11.270054
       4A    -11.269473     5A    -11.260399     6A    -11.260141
       7A     -1.392370     8A     -1.371516     9A     -1.024477
      10A     -0.934387    11A     -0.897014    12A     -0.819210
      13A     -0.690336    14A     -0.674043    15A     -0.659815
      16A     -0.647454    17A     -0.617924    18A     -0.592063
      19A     -0.574829    20A     -0.517622    21A     -0.508361
      22A     -0.469921    23A     -0.468842    24A     -0.427626
      25A     -0.400470

  @DF-RHF Final Energy:  -307.08497310596158

   => Energetics <=

    Nuclear Repulsion Energy =            260.0279775157446238
    One-Electron Energy =                -934.5479636327704611
    Two-Electron Energy =                 367.4350130110642567
    DFT Exchange-Correlation Energy =       0.0000000000000000
    Empirical Dispersion Energy =           0.0000000000000000
    PCM Polarization Energy =               0.0000000000000000
    EFP Energy =                            0.0000000000000000
    Total Energy =                       -307.0849731059615806
    Molecular point group: c1
  Basis Set: CC-PVTZ
  Basis Set:

  -Total Gradient:
     Atom            X                  Y                   Z
    ------   -----------------  -----------------  -----------------
       1        0.000007516539    -0.000019369697    -0.000005010156
       2       -0.000031436949     0.000000363450     0.000033602760
       3       -0.000723181533    -0.002261497140    -0.002041225083
       4       -0.000012969249     0.000007010360    -0.000006332464
       5        0.000001313502    -0.000002878578     0.000004432974
       6        0.001013382414     0.002174221252     0.002759051535
       7       -0.000344833527     0.004086282709    -0.001096876431
       8        0.000023910778    -0.000006485952     0.000011147014
       9        0.000007747959    -0.000029325614     0.000014408944
      10       -0.000050798088     0.000010340402    -0.000011757764
      11        0.000065636004    -0.003929387229     0.000353645592
      12       -0.000020343064     0.000001785057    -0.000002372932
      13        0.000071231077    -0.000042359674    -0.000036454921
      14        0.000000391102     0.000001388705     0.000026546201
      15       -0.000012520246    -0.000005861570     0.000004646985
      16        0.000004953282     0.000015773519    -0.000007452253

  **** Optimization is complete! (in 5 steps) ****
    Final optimized geometry and variables:
    Molecular point group: c1

    Geometry (in Angstrom), charge = 0, multiplicity = 1:

    H           -2.699990036523     0.740666124511     1.616286991519
    C           -2.410350959480    -0.226887910057     1.210512947337
    O           -1.106445717995    -0.213571095912     0.736114207571
    H           -2.466332253547    -0.964613577596     1.997458045037
    H           -3.117800390116    -0.495303630059     0.428073232493
    C           -0.896040761148     0.690600349135    -0.292281749418
    C            0.565037745554     0.667136852966    -0.780436053659
    H           -1.555932286511     0.451678461715    -1.124776886462
    H           -1.148008475244     1.699058735256     0.031493809885
    O            1.261426506642    -0.401865709342    -0.235513635615
    H            0.569196906402     0.573855874992    -1.864965118026
    H            1.058794622610     1.601683282554    -0.522731329492
    C            2.580102552797    -0.483505975025    -0.658954357064
    H            2.648093455590    -0.612699490867    -1.737702854403
    H            3.144585165630     0.405923666753    -0.385067386379
    H            3.027728769152    -1.340626711666    -0.177609394211

  Mulliken Charges: (a.u.)
   Center  Symbol    Alpha    Beta     Spin     Total
       1     H     0.47315  0.47315  0.00000  0.05370
       2     C     3.03215  3.03215  0.00000 -0.06430
       3     O     4.15615  4.15615  0.00000 -0.31229
       4     H     0.44561  0.44561  0.00000  0.10878
       5     H     0.47312  0.47312  0.00000  0.05376
       6     C     2.96607  2.96607  0.00000  0.06786
       7     C     2.96692  2.96692  0.00000  0.06617
       8     H     0.47682  0.47682  0.00000  0.04636
       9     H     0.47671  0.47671  0.00000  0.04658
      10     O     4.15686  4.15686  0.00000 -0.31373
      11     H     0.47667  0.47667  0.00000  0.04666
      12     H     0.47536  0.47536  0.00000  0.04928
      13     C     3.03192  3.03192  0.00000 -0.06384
      14     H     0.47365  0.47365  0.00000  0.05271
      15     H     0.47316  0.47316  0.00000  0.05368
      16     H     0.44568  0.44568  0.00000  0.10864

   Total alpha = 25.00000, Total beta = 25.00000, Total charge =  0.00000

*** Psi4 exiting successfully. Buy a developer a beer!
