  ==> Input File <==

--------------------------------------------------------------------------
set {
	reference rhf
	basis 6-31G*
}

set_num_threads( 4 )
memory 2 gb

molecule MOL {
0 1

O	 -2.042549	 -1.228399	 -0.269030
C	 -1.653912	 -0.146171	 0.050137
C	 -0.332303	 0.024011	 0.778412
C	 -2.438579	 1.106236	 -0.272369
C	 0.845713	 -0.001731	 -0.208243
H	 -0.323783	 0.953829	 1.340327
H	 -0.235459	 -0.796807	 1.480410
C	 2.200309	 0.136118	 0.488247
H	 0.733710	 0.800019	 -0.936072
H	 0.811185	 -0.933796	 -0.764304
C	 3.182436	 -0.966389	 0.094407
H	 2.631452	 1.106482	 0.251738
H	 2.051869	 0.120799	 1.565419
H	 3.377729	 -0.955139	 -0.974137
H	 2.792299	 -1.947486	 0.348742
H	 4.132330	 -0.845096	 0.605303
H	 -3.277823	 0.863061	 -0.908988
H	 -1.806773	 1.843019	 -0.759671
H	 -2.802853	 1.554979	 0.648059

	symmetry c1
}
set optking {
	frozen_dihedral = ("
		11 8 5 9
	")
}

ee = optimize('scf')
oeprop('DIPOLE', 'QUADRUPOLE', 'MULLIKEN_CHARGES')
f=open( 'psi4out.xyz', 'w' )
f.write( "19  " )
f.write( str(ee) + "\n" )
f.write( MOL.save_string_xyz() )
f.close()
--------------------------------------------------------------------------

    Molecular point group: c1
  Charge       = 0
  Multiplicity = 1
  Basis Set: 6-31G*
  Basis Set:
  @DF-RHF Final Energy:  -309.05944322638913
    Total Energy =                       -309.0594432263894191
    Molecular point group: c1
  Basis Set: 6-31G*
  Basis Set:
  Basis Set: 6-31G*
  Basis Set:
  @DF-RHF Final Energy:  -309.05967102150049
    Total Energy =                       -309.0596710215002076
  Basis Set: 6-31G*
  Basis Set:
  Basis Set: 6-31G*
  Basis Set:
  @DF-RHF Final Energy:  -309.05971564538066
    Total Energy =                       -309.0597156453810612
  Basis Set: 6-31G*
  Basis Set:
  Basis Set: 6-31G*
  Basis Set:
  @DF-RHF Final Energy:  -309.05975387283507
    Total Energy =                       -309.0597538728347899
  Basis Set: 6-31G*
  Basis Set:
  Basis Set: 6-31G*
  Basis Set:
  @DF-RHF Final Energy:  -309.05976286855895
    Total Energy =                       -309.0597628685590053
  Basis Set: 6-31G*
  Basis Set:
  Charge       = 0
  Multiplicity = 1
  Basis Set: 6-31G*
  Basis Set:

    Orbital Energies (a.u.)
    -----------------------

    Doubly Occupied:

       1A    -20.547585     2A    -11.324335     3A    -11.230337
       4A    -11.229588     5A    -11.228293     6A    -11.224462
       7A    -11.214103     8A     -1.393207     9A     -1.088713
      10A     -1.028256    11A     -0.983319    12A     -0.889654
      13A     -0.806514    14A     -0.734528    15A     -0.656288
      16A     -0.649936    17A     -0.616100    18A     -0.613121
      19A     -0.587864    20A     -0.577460    21A     -0.545299
      22A     -0.532570    23A     -0.523572    24A     -0.495691
      25A     -0.480546    26A     -0.473191    27A     -0.464566
      28A     -0.396451

  @DF-RHF Final Energy:  -309.05976222667306

   => Energetics <=

    Nuclear Repulsion Energy =            301.5306708511647571
    One-Electron Energy =               -1016.1097714763650401
    Two-Electron Energy =                 405.5193383985271680
    DFT Exchange-Correlation Energy =       0.0000000000000000
    Empirical Dispersion Energy =           0.0000000000000000
    PCM Polarization Energy =               0.0000000000000000
    EFP Energy =                            0.0000000000000000
    Total Energy =                       -309.0597622266730582
    Molecular point group: c1
  Basis Set: 6-31G*
  Basis Set:

  -Total Gradient:
     Atom            X                  Y                   Z
    ------   -----------------  -----------------  -----------------
       1       -0.000016225682    -0.000006227307     0.000063864983
       2        0.000084836169     0.000049329110    -0.000107084464
       3       -0.000032666931    -0.000014904826     0.000127461199
       4       -0.000001186622     0.000005686960     0.000045310939
       5        0.000808801901    -0.001803648940    -0.001595281016
       6       -0.000022964861    -0.000004023578     0.000053215310
       7       -0.000077054647    -0.000022351984    -0.000000572202
       8        0.000658123624     0.001660682039    -0.001199010758
       9       -0.000832643290     0.001175592530     0.001469812878
      10        0.000107424046    -0.000033871922     0.000058493120
      11       -0.000502790888    -0.000985136349     0.001077989132
      12       -0.000104478756    -0.000011826860     0.000029095597
      13       -0.000066250277     0.000011122146     0.000002953912
      14        0.000038202487    -0.000039538986    -0.000019376568
      15        0.000009518256    -0.000023757926    -0.000019355382
      16       -0.000048682726     0.000043143135     0.000011585489
      17        0.000009013323    -0.000006898076     0.000000905092
      18       -0.000006663008     0.000000287971     0.000000986940
      19       -0.000004312120     0.000006342865    -0.000000994200

  **** Optimization is complete! (in 6 steps) ****
    Final optimized geometry and variables:
    Molecular point group: c1

    Geometry (in Angstrom), charge = 0, multiplicity = 1:

    O           -2.029863217881    -1.059377660836    -0.362683177360
    C           -1.633202931959     0.018801004638    -0.039254511717
    C           -0.310298182870     0.175640447070     0.689041013245
    C           -2.409472197397     1.278062567430    -0.355373315345
    C            0.869030197644     0.137701575861    -0.298473364716
    H           -0.291425998805     1.105540673886     1.250795587883
    H           -0.220577335563    -0.645916541276     1.391312397260
    C            2.238687338661     0.292351805993     0.399565533482
    H            0.738165306506     0.930766009922    -1.030236757046
    H            0.825027572048    -0.800200459628    -0.841441880218
    C            3.237467945674    -0.798776784162     0.012424031426
    H            2.659848335028     1.267629841217     0.174832045672
    H            2.102241630392     0.268190054868     1.477600752599
    H            3.428148713911    -0.797487290786    -1.057027470055
    H            2.860034057367    -1.781621924266     0.278786396685
    H            4.187364410223    -0.657686905105     0.518622100396
    H           -3.248993486469     1.044079874975    -0.995072757535
    H           -1.772486338344     2.014385227402    -0.836593936800
    H           -2.772873569888     1.722886978697     0.567323419944

  Mulliken Charges: (a.u.)
   Center  Symbol    Alpha    Beta     Spin     Total
       1     O     4.26222  4.26222  0.00000 -0.52443
       2     C     2.73755  2.73755  0.00000  0.52490
       3     C     3.20229  3.20229  0.00000 -0.40458
       4     C     3.28953  3.28953  0.00000 -0.57905
       5     C     3.16491  3.16491  0.00000 -0.32982
       6     H     0.41639  0.41639  0.00000  0.16722
       7     H     0.40107  0.40107  0.00000  0.19785
       8     C     3.15500  3.15500  0.00000 -0.31001
       9     H     0.41844  0.41844  0.00000  0.16312
      10     H     0.40347  0.40347  0.00000  0.19307
      11     C     3.24079  3.24079  0.00000 -0.48159
      12     H     0.41848  0.41848  0.00000  0.16303
      13     H     0.41885  0.41885  0.00000  0.16229
      14     H     0.41981  0.41981  0.00000  0.16037
      15     H     0.41843  0.41843  0.00000  0.16314
      16     H     0.41906  0.41906  0.00000  0.16187
      17     H     0.39702  0.39702  0.00000  0.20596
      18     H     0.40999  0.40999  0.00000  0.18002
      19     H     0.40669  0.40669  0.00000  0.18662

   Total alpha = 28.00000, Total beta = 28.00000, Total charge =  0.00000
