                              Psi4 1.0.54 Driver

  ==> Input File <==

--------------------------------------------------------------------------
set {
	reference rhf
	basis cc-pvtz
}

set_num_threads( 4 )
memory 2 gb

molecule MOL {
0 1

O	 1.142329	 1.421067	 0.345946
C	 0.906180	 0.464691	 1.002176
C	 -0.381317	 -0.318353	 0.976576
O	 1.765994	 -0.052192	 1.864689
C	 -1.413045	 0.229353	 0.001137
H	 -0.126521	 -1.346891	 0.742760
H	 -0.767922	 -0.333180	 1.990370
C	 -2.702562	 -0.586401	 0.000228
H	 -0.988824	 0.246806	 -0.996496
H	 -1.631351	 1.261175	 0.252592
C	 -3.953810	 0.284959	 -0.000782
H	 -2.717793	 -1.238567	 -0.869075
H	 -2.719108	 -1.238472	 0.869576
H	 -3.983727	 0.924403	 -0.876454
H	 -4.852989	 -0.320147	 -0.001515
H	 -3.985140	 0.924399	 0.874841
C	 3.020747	 0.585651	 1.991465
H	 3.549596	 0.577385	 1.049936
H	 3.567516	 0.022630	 2.730329
H	 2.897723	 1.607795	 2.317516

	symmetry c1
}
set optking {
	frozen_dihedral = ("
		9 5 8 12
	")
}

ee,wfn = optimize('scf', return_wfn=True)
oeprop( wfn, 'DIPOLE', 'QUADRUPOLE', 'MULLIKEN_CHARGES')
f=open( 'psi4out.xyz', 'w' )
f.write( "20  " )
f.write( str(ee) + "\n" )
f.write( MOL.save_string_xyz() )
f.close()
--------------------------------------------------------------------------

    Molecular point group: c1
  Charge       = 0
  Multiplicity = 1
  Basis Set: CC-PVTZ
  Basis Set:
  @DF-RHF Final Energy:  -384.07823738240461
    Total Energy =                       -384.0782373824038132
    Molecular point group: c1
  Basis Set: CC-PVTZ
  Basis Set:
  Basis Set: CC-PVTZ
  Basis Set:
  @DF-RHF Final Energy:  -384.07853200706393
    Total Energy =                       -384.0785320070643820
  Basis Set: CC-PVTZ
  Basis Set:
  Basis Set: CC-PVTZ
  Basis Set:
  @DF-RHF Final Energy:  -384.07842479699906
    Total Energy =                       -384.0784247969991156
  Basis Set: CC-PVTZ
  Basis Set:
  Basis Set: CC-PVTZ
  Basis Set:
  @DF-RHF Final Energy:  -384.07861249511154
    Total Energy =                       -384.0786124951115426
  Basis Set: CC-PVTZ
  Basis Set:
  Charge       = 0
  Multiplicity = 1
  Basis Set: CC-PVTZ
  Basis Set:

    Orbital Energies (a.u.)
    -----------------------

    Doubly Occupied:

       1A    -20.596326     2A    -20.534243     3A    -11.364447
       4A    -11.278518     5A    -11.234144     6A    -11.218298
       7A    -11.217295     8A    -11.209185     9A     -1.472202
      10A     -1.365807    11A     -1.088089    12A     -1.024783
      13A     -0.969884    14A     -0.885969    15A     -0.804927
      16A     -0.769400    17A     -0.700775    18A     -0.686129
      19A     -0.676036    20A     -0.641015    21A     -0.600744
      22A     -0.598196    23A     -0.577810    24A     -0.544449
      25A     -0.530981    26A     -0.523522    27A     -0.508232
      28A     -0.476706    29A     -0.474252    30A     -0.468148
      31A     -0.458625    32A     -0.439395

  @DF-RHF Final Energy:  -384.07861318695370

   => Energetics <=

    Nuclear Repulsion Energy =            381.8430494326561302
    One-Electron Energy =               -1279.9662598162096856
    Two-Electron Energy =                 514.0445971965996250
    DFT Exchange-Correlation Energy =       0.0000000000000000
    Empirical Dispersion Energy =           0.0000000000000000
    PCM Polarization Energy =               0.0000000000000000
    EFP Energy =                            0.0000000000000000
    Total Energy =                       -384.0786131869539304
    Molecular point group: c1
  Basis Set: CC-PVTZ
  Basis Set:

  -Total Gradient:
     Atom            X                  Y                   Z
    ------   -----------------  -----------------  -----------------
       1        0.000003179226     0.000005144447    -0.000005834557
       2       -0.000013718942     0.000015041675     0.000021116242
       3       -0.000032041001     0.000019469495    -0.000039288663
       4        0.000029331571    -0.000009808075     0.000005930074
       5       -0.002776062938     0.004415935910    -0.001434550948
       6       -0.000003816594     0.000004178692     0.000004174498
       7        0.000004328900    -0.000007884622     0.000006150356
       8        0.002501398758    -0.003992040803     0.002610610515
       9        0.001948606852    -0.003106510043     0.000770805984
      10       -0.000015280244    -0.000008908007     0.000008645546
      11        0.000019208235    -0.000046073887     0.000010457100
      12       -0.001673891572     0.002689542614    -0.001975667829
      13        0.000004361934     0.000018600002     0.000007742358
      14        0.000005590594    -0.000002673931     0.000004672017
      15       -0.000021881252     0.000000130833     0.000000742783
      16        0.000005028932     0.000003196549    -0.000005714597
      17        0.000004413107     0.000007697951     0.000004201585
      18        0.000002156027    -0.000000851875     0.000003817496
      19        0.000003200310    -0.000000807764     0.000001124107
      20        0.000005888097    -0.000003379163     0.000000865933

  **** Optimization is complete! (in 5 steps) ****
    Final optimized geometry and variables:
    Molecular point group: c1

    Geometry (in Angstrom), charge = 0, multiplicity = 1:

    O            1.326911488432     1.141153451533    -0.447030568340
    C            1.086956736537     0.185351384341     0.208822844339
    C           -0.217441070051    -0.569936683915     0.210663317681
    O            1.956814046724    -0.355036814138     1.046652251254
    C           -1.264315689978     0.007385101466    -0.734808147274
    H            0.008430862852    -1.601903081594    -0.038075420681
    H           -0.578074283605    -0.585427513199     1.233916475176
    C           -2.565482106022    -0.815218694992    -0.739072422728
    H           -0.836321338618     0.030571693578    -1.728845383165
    H           -1.464017554448     1.034098972262    -0.455596989307
    C           -3.818387944328     0.056627788710    -0.782286703811
    H           -2.579676054408    -1.463243821556    -1.608959103189
    H           -2.611236718965    -1.456958568955     0.134647624879
    H           -3.813752343571     0.701121707849    -1.654942655022
    H           -4.717213203420    -0.548226786708    -0.821790073352
    H           -3.882810116271     0.692009762597     0.094694664707
    C            3.227203383319     0.255926089444     1.146764645378
    H            3.732815564379     0.243179268813     0.192597875366
    H            3.779993016556    -0.323225522071     1.868498232027
    H            3.133460445570     1.278164380494     1.482140681639

  Mulliken Charges: (a.u.)
   Center  Symbol    Alpha    Beta     Spin     Total
       1     O     4.19676  4.19676  0.00000 -0.39351
       2     C     2.80796  2.80796  0.00000  0.38408
       3     C     3.10056  3.10056  0.00000 -0.20113
       4     O     4.14689  4.14689  0.00000 -0.29378
       5     C     3.08563  3.08563  0.00000 -0.17126
       6     H     0.43887  0.43887  0.00000  0.12227
       7     H     0.44018  0.44018  0.00000  0.11963
       8     C     3.08840  3.08840  0.00000 -0.17679
       9     H     0.44461  0.44461  0.00000  0.11078
      10     H     0.44640  0.44640  0.00000  0.10720
      11     C     3.14738  3.14738  0.00000 -0.29476
      12     H     0.45128  0.45128  0.00000  0.09744
      13     H     0.45563  0.45563  0.00000  0.08873
      14     H     0.45247  0.45247  0.00000  0.09505
      15     H     0.44960  0.44960  0.00000  0.10079
      16     H     0.45568  0.45568  0.00000  0.08863
      17     C     3.03767  3.03767  0.00000 -0.07534
      18     H     0.45434  0.45434  0.00000  0.09132
      19     H     0.44531  0.44531  0.00000  0.10938
      20     H     0.45437  0.45437  0.00000  0.09127

   Total alpha = 32.00000, Total beta = 32.00000, Total charge =  0.00000

*** Psi4 exiting successfully. Buy a developer a beer!
