  ==> Input File <==

--------------------------------------------------------------------------
set {
	reference rhf
	basis cc-pvtz
}

set_num_threads( 4 )
memory 2 gb

molecule MOL {
0 1

H	 -2.816458	 -0.841657	 -0.064679
N	 -1.878861	 -0.711874	 0.250184
C	 -1.341419	 0.551458	 -0.220231
H	 -1.333674	 -1.468530	 -0.105118
C	 0.082190	 0.731516	 0.254705
H	 -1.357065	 0.652078	 -1.304747
H	 -1.939897	 1.357530	 0.189797
O	 0.946185	 0.510802	 -0.818843
H	 0.217604	 1.740185	 0.642549
H	 0.291878	 0.027018	 1.056354
C	 2.295377	 0.579285	 -0.496029
H	 2.862536	 0.396928	 -1.397396
H	 2.562189	 1.560118	 -0.108119
H	 2.565508	 -0.168842	 0.245522

	symmetry c1
}
set optking {
	frozen_dihedral = ("
		8 5 3 6
	")
}

ee = optimize('scf')
oeprop('DIPOLE', 'QUADRUPOLE', 'MULLIKEN_CHARGES')
f=open( 'psi4out.xyz', 'w' )
f.write( "14  " )
f.write( str(ee) + "\n" )
f.write( MOL.save_string_xyz() )
f.close()
--------------------------------------------------------------------------

    Molecular point group: c1
  Charge       = 0
  Multiplicity = 1
  Basis Set: CC-PVTZ
  Basis Set:
  @DF-RHF Final Energy:  -248.22007609982725
    Total Energy =                       -248.2200760998271107
    Molecular point group: c1
  Basis Set: CC-PVTZ
  Basis Set:
  Basis Set: CC-PVTZ
  Basis Set:
  @DF-RHF Final Energy:  -248.22056428948855
    Total Energy =                       -248.2205642894885500
  Basis Set: CC-PVTZ
  Basis Set:
  Basis Set: CC-PVTZ
  Basis Set:
  @DF-RHF Final Energy:  -248.22069377147929
    Total Energy =                       -248.2206937714789774
  Basis Set: CC-PVTZ
  Basis Set:
  Basis Set: CC-PVTZ
  Basis Set:
  @DF-RHF Final Energy:  -248.22069964687776
    Total Energy =                       -248.2206996468777334
  Basis Set: CC-PVTZ
  Basis Set:
  Charge       = 0
  Multiplicity = 1
  Basis Set: CC-PVTZ
  Basis Set:

    Orbital Energies (a.u.)
    -----------------------

    Doubly Occupied:

       1A    -20.549455     2A    -15.528187     3A    -11.263208
       4A    -11.262691     5A    -11.240128     6A     -1.382777
       7A     -1.177869     8A     -0.998671     9A     -0.903265
      10A     -0.821636    11A     -0.685015    12A     -0.670223
      13A     -0.650765    14A     -0.618250    15A     -0.596212
      16A     -0.553605    17A     -0.522403    18A     -0.499415
      19A     -0.472328    20A     -0.419704    21A     -0.385574

  @DF-RHF Final Energy:  -248.22070013010466

   => Energetics <=

    Nuclear Repulsion Energy =            192.1981229347288149
    One-Electron Energy =                -718.4348853061119371
    Two-Electron Energy =                 278.0160622412783482
    DFT Exchange-Correlation Energy =       0.0000000000000000
    Empirical Dispersion Energy =           0.0000000000000000
    PCM Polarization Energy =               0.0000000000000000
    EFP Energy =                            0.0000000000000000
    Total Energy =                       -248.2207001301047171
    Molecular point group: c1
  Basis Set: CC-PVTZ
  Basis Set:

  -Total Gradient:
     Atom            X                  Y                   Z
    ------   -----------------  -----------------  -----------------
       1       -0.000028872368    -0.000009251370    -0.000015536513
       2        0.000011986965    -0.000018632715     0.000035457979
       3       -0.000871508978     0.006564583116     0.000126466251
       4        0.000009285661    -0.000025096903    -0.000009731798
       5        0.000326152817    -0.005476390553     0.001072972045
       6        0.000672070243    -0.004508267761    -0.000344338807
       7        0.000021371300    -0.000001618110     0.000010677785
       8       -0.000147796627     0.003463586329    -0.000876968713
       9        0.000000328057     0.000007820550    -0.000004952691
      10       -0.000000234058    -0.000005955709    -0.000000592834
      11        0.000011994209     0.000018635532     0.000012394866
      12       -0.000014595138    -0.000003272046    -0.000000510960
      13        0.000010171908     0.000002132494    -0.000002091001
      14       -0.000000353986    -0.000008272855    -0.000003245611

  **** Optimization is complete! (in 5 steps) ****
    Final optimized geometry and variables:
    Molecular point group: c1

    Geometry (in Angstrom), charge = 0, multiplicity = 1:

    H           -2.877683903333    -1.131163422648     0.175505454327
    N           -1.922802982622    -1.037411678902     0.451223798083
    C           -1.381032048035     0.240737684920     0.003979260760
    H           -1.423839033898    -1.792374853417     0.027181647320
    C            0.060712244642     0.417706179212     0.468691179610
    H           -1.384271875640     0.328304177112    -1.078566214231
    H           -2.000266960534     1.026553249800     0.416050047566
    O            0.924260533168     0.175980291902    -0.602968365867
    H            0.219506332712     1.431523074519     0.832225224818
    H            0.265906912502    -0.263015454133     1.289992056751
    C            2.271687319360     0.275434504100    -0.282893494994
    H            2.841383428269     0.077876661203    -1.179471671995
    H            2.522570155561     1.270755427573     0.078335666666
    H            2.556337673328    -0.446762301082     0.479190241759

  Mulliken Charges: (a.u.)
   Center  Symbol    Alpha    Beta     Spin     Total
       1     H     0.42984  0.42984  0.00000  0.14032
       2     N     3.69341  3.69341  0.00000 -0.38681
       3     C     3.02615  3.02615  0.00000 -0.05231
       4     H     0.42692  0.42692  0.00000  0.14615
       5     C     2.97320  2.97320  0.00000  0.05361
       6     H     0.45955  0.45955  0.00000  0.08090
       7     H     0.45641  0.45641  0.00000  0.08718
       8     O     4.17493  4.17493  0.00000 -0.34986
       9     H     0.47191  0.47191  0.00000  0.05617
      10     H     0.46691  0.46691  0.00000  0.06619
      11     C     3.02980  3.02980  0.00000 -0.05959
      12     H     0.44747  0.44747  0.00000  0.10506
      13     H     0.47211  0.47211  0.00000  0.05578
      14     H     0.47139  0.47139  0.00000  0.05722

   Total alpha = 21.00000, Total beta = 21.00000, Total charge =  0.00000
