  ==> Input File <==

--------------------------------------------------------------------------
set {
	reference rhf
	basis cc-pvtz
}

set_num_threads( 4 )
memory 2 gb

molecule MOL {
0 1

H	 1.167819	 -0.190419	 0.994961
C	 0.788096	 -0.429819	 0.000000
N	 -0.537714	 -0.645117	 0.000000
O	 1.505095	 -0.482838	 -0.948589
C	 -1.522613	 0.412524	 0.000000
H	 -0.845894	 -1.585866	 0.000000
H	 -2.150256	 0.356137	 -0.880771
H	 -1.005621	 1.357208	 0.000000
H	 -2.150256	 0.356137	 0.880771

	symmetry c1
}
set optking {
	frozen_dihedral = ("
		1 2 3 6
	")
}

ee = optimize('scf')
oeprop('DIPOLE', 'QUADRUPOLE', 'MULLIKEN_CHARGES')
f=open( 'psi4out.xyz', 'w' )
f.write( "9  " )
f.write( str(ee) + "\n" )
f.write( MOL.save_string_xyz() )
f.close()
--------------------------------------------------------------------------

    Molecular point group: c1
  Charge       = 0
  Multiplicity = 1
  Basis Set: CC-PVTZ
  Basis Set:
  @DF-RHF Final Energy:  -208.00120952291655
    Total Energy =                       -208.0012095229165254
    Molecular point group: c1
  Basis Set: CC-PVTZ
  Basis Set:
  Basis Set: CC-PVTZ
  Basis Set:
  @DF-RHF Final Energy:  -208.00564072148163
    Total Energy =                       -208.0056407214816545
  Basis Set: CC-PVTZ
  Basis Set:
  Basis Set: CC-PVTZ
  Basis Set:
  @DF-RHF Final Energy:  -208.00816673701740
    Total Energy =                       -208.0081667370173193
  Basis Set: CC-PVTZ
  Basis Set:
  Basis Set: CC-PVTZ
  Basis Set:
  @DF-RHF Final Energy:  -208.01344110829029
    Total Energy =                       -208.0134411082903227
  Basis Set: CC-PVTZ
  Basis Set:
  @DF-RHF Final Energy:  -208.01377309720363
    Total Energy =                       -208.0137730972035683
  @DF-RHF Final Energy:  -208.01629283455858
    Total Energy =                       -208.0162928345584987
  @DF-RHF Final Energy:  -208.01796992295539
    Total Energy =                       -208.0179699229554444
  @DF-RHF Final Energy:  -208.01902939336668
    Total Energy =                       -208.0190293933666794
  @DF-RHF Final Energy:  -208.01930169173670
    Total Energy =                       -208.0193016917367004
  @DF-RHF Final Energy:  -208.01959351656916
    Total Energy =                       -208.0195935165689889
  @DF-RHF Final Energy:  -208.01987239831195
    Total Energy =                       -208.0198723983120033
  @DF-RHF Final Energy:  -208.02054408930721
    Total Energy =                       -208.0205440893072932
  @DF-RHF Final Energy:  -208.02078082833992
    Total Energy =                       -208.0207808283399231
  @DF-RHF Final Energy:  -208.02082008369763
    Total Energy =                       -208.0208200836976289
  @DF-RHF Final Energy:  -208.02083633128890
    Total Energy =                       -208.0208363312888764
  @DF-RHF Final Energy:  -208.02084407867443
    Total Energy =                       -208.0208440786743722
  @DF-RHF Final Energy:  -208.02084868699450
    Total Energy =                       -208.0208486869944409
  @DF-RHF Final Energy:  -208.02084931929286
    Total Energy =                       -208.0208493192928927
  @DF-RHF Final Energy:  -208.02084764319045
    Total Energy =                       -208.0208476431903080
  @DF-RHF Final Energy:  -208.02084316061737
    Total Energy =                       -208.0208431606174031
  @DF-RHF Final Energy:  -208.02085089550559
    Total Energy =                       -208.0208508955055322
  @DF-RHF Final Energy:  -208.02084424650212
    Total Energy =                       -208.0208442465021221
  @DF-RHF Final Energy:  -208.02085042496458
    Total Energy =                       -208.0208504249646353
  @DF-RHF Final Energy:  -208.02084894435063
    Total Energy =                       -208.0208489443506323
  @DF-RHF Final Energy:  -208.02084524722267
    Total Energy =                       -208.0208452472225531
  @DF-RHF Final Energy:  -208.02084930615092
    Total Energy =                       -208.0208493061508648
  @DF-RHF Final Energy:  -208.02084962479353
    Total Energy =                       -208.0208496247934704
  @DF-RHF Final Energy:  -208.02084899156483
    Total Energy =                       -208.0208489915648329
  @DF-RHF Final Energy:  -208.02084986579223
    Total Energy =                       -208.0208498657921723
  @DF-RHF Final Energy:  -208.02084954307759
    Total Energy =                       -208.0208495430775599
  @DF-RHF Final Energy:  -208.02084880826584
    Total Energy =                       -208.0208488082657823
  @DF-RHF Final Energy:  -208.02084953739273
    Total Energy =                       -208.0208495373925643
  @DF-RHF Final Energy:  -208.02084922082761
    Total Energy =                       -208.0208492208275857
  @DF-RHF Final Energy:  -208.02068670719581
    Total Energy =                       -208.0206867071957788
  @DF-RHF Final Energy:  -208.02084997250938
    Total Energy =                       -208.0208499725093247
  @DF-RHF Final Energy:  -208.02085008605553
    Total Energy =                       -208.0208500860554750
  Basis Set: CC-PVTZ
  Basis Set:
  @DF-RHF Final Energy:  -208.02085012267264
    Total Energy =                       -208.0208501226726128
  Basis Set: CC-PVTZ
  Basis Set:
  Basis Set: CC-PVTZ
  Basis Set:
  @DF-RHF Final Energy:  -208.02008055925000
    Total Energy =                       -208.0200805592499194
  Basis Set: CC-PVTZ
  Basis Set:
  Basis Set: CC-PVTZ
  Basis Set:
  @DF-RHF Final Energy:  -208.02085003810851
    Total Energy =                       -208.0208500381085628
  Basis Set: CC-PVTZ
  Basis Set:
  Charge       = 0
  Multiplicity = 1
  Basis Set: CC-PVTZ
  Basis Set:

    Orbital Energies (a.u.)
    -----------------------

    Doubly Occupied:

       1A    -20.548799     2A    -15.572158     3A    -11.347721
       4A    -11.264404     5A     -1.418046     6A     -1.234287
       7A     -0.948402     8A     -0.830684     9A     -0.710000
      10A     -0.676564    11A     -0.647807    12A     -0.583848
      13A     -0.563723    14A     -0.534014    15A     -0.445940
      16A     -0.408436

  @DF-RHF Final Energy:  -208.02084945568390

   => Energetics <=

    Nuclear Repulsion Energy =            120.3311645194579427
    One-Electron Energy =                -521.2343582485830211
    Two-Electron Energy =                 192.8823442734411060
    DFT Exchange-Correlation Energy =       0.0000000000000000
    Empirical Dispersion Energy =           0.0000000000000000
    PCM Polarization Energy =               0.0000000000000000
    EFP Energy =                            0.0000000000000000
    Total Energy =                       -208.0208494556839582
    Molecular point group: c1
  Basis Set: CC-PVTZ
  Basis Set:

  -Total Gradient:
     Atom            X                  Y                   Z
    ------   -----------------  -----------------  -----------------
       1       -0.001081157803    -0.010003878152     0.004591579031
       2        0.000819610974     0.014602764247    -0.004132565030
       3        0.005105678703    -0.007361913088    -0.009562608824
       4       -0.000330308296    -0.000137472788     0.000108735186
       5       -0.000170380059    -0.000212956591    -0.000314035461
       6       -0.004636594055     0.002889909679     0.009400839603
       7       -0.000016190005    -0.000103963425    -0.000207064195
       8        0.000158898496     0.000120180809     0.000115824868
       9        0.000150442051     0.000207329311    -0.000000705179

    Molecular point group: c1

    Geometry (in Angstrom), charge = 0, multiplicity = 1:

    H            0.706251327067     0.375011430306     1.249424837662
    C            0.655892225405    -0.074809665724     0.251645260250
    N           -0.628093566868    -0.167422027203    -0.294327458993
    O            1.615792024505    -0.540168881123    -0.246442493096
    C           -1.588552371041     0.787412907199     0.239307303906
    H           -0.976508081838    -1.096019878231    -0.177102408612
    H           -2.552734533702     0.602300381990    -0.211157074065
    H           -1.290985612342     1.792653935862    -0.027439024992
    H           -1.697838485913     0.740301837300     1.321295609960

  Mulliken Charges: (a.u.)
   Center  Symbol    Alpha    Beta     Spin     Total
       1     H     0.47543  0.47543  0.00000  0.04913
       2     C     2.87561  2.87561  0.00000  0.24878
       3     N     3.60186  3.60186  0.00000 -0.20372
       4     O     4.16577  4.16577  0.00000 -0.33155
       5     C     3.09092  3.09092  0.00000 -0.18184
       6     H     0.43108  0.43108  0.00000  0.13784
       7     H     0.44546  0.44546  0.00000  0.10908
       8     H     0.44847  0.44847  0.00000  0.10306
       9     H     0.46539  0.46539  0.00000  0.06922

   Total alpha = 16.00000, Total beta = 16.00000, Total charge = -0.00000
