  ==> Input File <==

--------------------------------------------------------------------------
set {
	reference rhf
	basis 6-31G*
}

set_num_threads( 4 )
memory 2 gb

molecule MOL {
0 1

O	 3.179288	 0.835971	 0.926795
C	 2.843464	 0.164689	 -0.000222
C	 1.546494	 -0.624492	 -0.000609
C	 3.697852	 0.056487	 -1.246605
C	 0.291004	 0.242674	 0.000989
H	 1.557904	 -1.283758	 -0.867573
H	 1.558622	 -1.285963	 0.864672
C	 -0.994322	 -0.586602	 0.000262
H	 0.309117	 0.896430	 -0.865270
H	 0.309661	 0.894078	 0.869017
C	 -2.259874	 0.272531	 0.000494
H	 -1.004862	 -1.240012	 -0.870939
H	 -1.005220	 -1.241071	 0.870675
C	 -3.549786	 -0.549746	 -0.000374
H	 -2.250389	 0.926680	 -0.869574
H	 -2.250838	 0.925513	 0.871430
C	 -4.809590	 0.315458	 -0.000369
H	 -3.560515	 -1.202009	 -0.871156
H	 -3.561123	 -1.202955	 0.869711
H	 -4.844746	 0.956611	 -0.876632
H	 -5.706986	 -0.295590	 -0.001609
H	 -4.845960	 0.954827	 0.877144
H	 3.142490	 0.393030	 -2.117197
H	 4.588512	 0.658456	 -1.131752
H	 3.979515	 -0.977349	 -1.424036

	symmetry c1
}
set optking {
	frozen_dihedral = ("
		1 2 3 6
	")
}

ee = optimize('scf')
oeprop('DIPOLE', 'QUADRUPOLE', 'MULLIKEN_CHARGES')
f=open( 'psi4out.xyz', 'w' )
f.write( "25  " )
f.write( str(ee) + "\n" )
f.write( MOL.save_string_xyz() )
f.close()
--------------------------------------------------------------------------

    Molecular point group: c1
  Charge       = 0
  Multiplicity = 1
  Basis Set: 6-31G*
  Basis Set:
  @DF-RHF Final Energy:  -387.13371785381071
    Total Energy =                       -387.1337178538102535
    Molecular point group: c1
  Basis Set: 6-31G*
  Basis Set:
  Basis Set: 6-31G*
  Basis Set:
  @DF-RHF Final Energy:  -387.13448871542198
    Total Energy =                       -387.1344887154207299
  Basis Set: 6-31G*
  Basis Set:
  Basis Set: 6-31G*
  Basis Set:
  @DF-RHF Final Energy:  -387.13429245514857
    Total Energy =                       -387.1342924551483975
  Basis Set: 6-31G*
  Basis Set:
  Basis Set: 6-31G*
  Basis Set:
  @DF-RHF Final Energy:  -387.13451016362279
    Total Energy =                       -387.1345101636227355
  Basis Set: 6-31G*
  Basis Set:
  Basis Set: 6-31G*
  Basis Set:
  @DF-RHF Final Energy:  -387.13455300558439
    Total Energy =                       -387.1345530055846211
  Basis Set: 6-31G*
  Basis Set:
  Basis Set: 6-31G*
  Basis Set:
  @DF-RHF Final Energy:  -387.13455185789434
    Total Energy =                       -387.1345518578943938
  Basis Set: 6-31G*
  Basis Set:
  Basis Set: 6-31G*
  Basis Set:
  @DF-RHF Final Energy:  -387.13455403165239
    Total Energy =                       -387.1345540316526694
  Basis Set: 6-31G*
  Basis Set:
  Charge       = 0
  Multiplicity = 1
  Basis Set: 6-31G*
  Basis Set:

    Orbital Energies (a.u.)
    -----------------------

    Doubly Occupied:

       1A    -20.547396     2A    -11.324883     3A    -11.229386
       4A    -11.228424     5A    -11.226926     6A    -11.220620
       7A    -11.217725     8A    -11.216834     9A    -11.210214
      10A     -1.393387    11A     -1.097171    12A     -1.057822
      13A     -1.013459    14A     -0.970660    15A     -0.892716
      16A     -0.816536    17A     -0.794217    18A     -0.732005
      19A     -0.666414    20A     -0.647584    21A     -0.636937
      22A     -0.611112    23A     -0.602391    24A     -0.586552
      25A     -0.568287    26A     -0.558771    27A     -0.541116
      28A     -0.537636    29A     -0.510150    30A     -0.496438
      31A     -0.488525    32A     -0.474890    33A     -0.466842
      34A     -0.465712    35A     -0.451532    36A     -0.395948

  @DF-RHF Final Energy:  -387.13455403638778

   => Energetics <=

    Nuclear Repulsion Energy =            438.7687278907907853
    One-Electron Energy =               -1394.0121310255922253
    Two-Electron Energy =                 568.1088490984132022
    DFT Exchange-Correlation Energy =       0.0000000000000000
    Empirical Dispersion Energy =           0.0000000000000000
    PCM Polarization Energy =               0.0000000000000000
    EFP Energy =                            0.0000000000000000
    Total Energy =                       -387.1345540363881810
    Molecular point group: c1
  Basis Set: 6-31G*
  Basis Set:

  -Total Gradient:
     Atom            X                  Y                   Z
    ------   -----------------  -----------------  -----------------
       1        0.000045833744    -0.000061605317     0.000030592019
       2       -0.000076975401     0.000079802005    -0.000026565948
       3        0.000001244326     0.000036256068    -0.000029628675
       4        0.000004873265    -0.000015595644     0.000008306764
       5       -0.000008421815     0.000002833394    -0.000016686819
       6        0.000033731031    -0.000055098859     0.000039745646
       7       -0.000006237631    -0.000000380074    -0.000003377113
       8        0.000005545442     0.000002094838    -0.000006217687
       9        0.000004252293     0.000000945939    -0.000000775628
      10       -0.000002964801     0.000000433867    -0.000000082878
      11       -0.000002700174    -0.000000865584     0.000013210043
      12       -0.000003113650    -0.000003603693     0.000001124627
      13        0.000002509966     0.000004952810    -0.000000439053
      14       -0.000000802159     0.000000311261    -0.000000064498
      15        0.000000976635     0.000002649335     0.000005309337
      16        0.000000389578    -0.000003277633     0.000006650134
      17        0.000000486486     0.000000070581    -0.000010328743
      18        0.000001435292    -0.000005278784     0.000002502544
      19       -0.000000851410     0.000005330974     0.000002320331
      20       -0.000001651623     0.000002835831    -0.000000102361
      21        0.000000467078    -0.000000052685    -0.000002582886
      22        0.000001298911    -0.000002703941     0.000000128919
      23       -0.000000399511     0.000002750872    -0.000003979850
      24        0.000001382786     0.000003578107    -0.000002927173
      25       -0.000000308660     0.000003616330    -0.000006131057

  **** Optimization is complete! (in 8 steps) ****
    Final optimized geometry and variables:
    Molecular point group: c1

    Geometry (in Angstrom), charge = 0, multiplicity = 1:

    O            3.117852912679     0.788012276185     0.994658768029
    C            2.842852859244     0.130280272321     0.037556241158
    C            1.572540836178    -0.704540037441     0.009295384610
    C            3.725580447525     0.104979016180    -1.189469516487
    C            0.321108091032     0.184998086878     0.001821941408
    H            1.567847394385    -1.367073462385    -0.851154726694
    H            1.570976542249    -1.322784921151     0.901905256684
    C           -0.976626398699    -0.623485313582     0.027744697322
    H            0.332352931554     0.820669348633    -0.881904856329
    H            0.364313986729     0.846157393347     0.860913178137
    C           -2.228805874745     0.255136551617     0.024701738389
    H           -1.004173077164    -1.292893517413    -0.830427703372
    H           -0.984430982807    -1.258965186797     0.911360420414
    C           -3.530372434603    -0.548122250355     0.055158279133
    H           -2.220673614877     0.891282882438    -0.858881312815
    H           -2.199943985930     0.924932054385     0.882201594663
    C           -4.777261479957     0.335510649002     0.049450225274
    H           -3.559785729083    -1.218936327893    -0.800954198052
    H           -3.541465220777    -1.181696033368     0.939443535384
    H           -4.813134995140     0.957429227306    -0.840579808381
    H           -5.683166803205    -0.262282722037     0.071647111971
    H           -4.794577595607     0.994497476733     0.912858139935
    H            3.154151371076     0.382808771335    -2.070946060425
    H            4.556801094469     0.784451597220    -1.062669582448
    H            4.099863647059    -0.901622776888    -1.355531777797

  Mulliken Charges: (a.u.)
   Center  Symbol    Alpha    Beta     Spin     Total
       1     O     4.26319  4.26319  0.00000 -0.52637
       2     C     2.73619  2.73619  0.00000  0.52762
       3     C     3.20152  3.20152  0.00000 -0.40303
       4     C     3.28941  3.28941  0.00000 -0.57883
       5     C     3.15966  3.15966  0.00000 -0.31933
       6     H     0.41673  0.41673  0.00000  0.16653
       7     H     0.40192  0.40192  0.00000  0.19616
       8     C     3.15248  3.15248  0.00000 -0.30496
       9     H     0.42109  0.42109  0.00000  0.15781
      10     H     0.40399  0.40399  0.00000  0.19202
      11     C     3.15153  3.15153  0.00000 -0.30306
      12     H     0.42378  0.42378  0.00000  0.15244
      13     H     0.42096  0.42096  0.00000  0.15807
      14     C     3.15181  3.15181  0.00000 -0.30363
      15     H     0.42370  0.42370  0.00000  0.15260
      16     H     0.42131  0.42131  0.00000  0.15737
      17     C     3.23948  3.23948  0.00000 -0.47896
      18     H     0.42335  0.42335  0.00000  0.15331
      19     H     0.42238  0.42238  0.00000  0.15525
      20     H     0.42171  0.42171  0.00000  0.15658
      21     H     0.41896  0.41896  0.00000  0.16207
      22     H     0.42093  0.42093  0.00000  0.15814
      23     H     0.40919  0.40919  0.00000  0.18162
      24     H     0.39722  0.39722  0.00000  0.20556
      25     H     0.40749  0.40749  0.00000  0.18502

   Total alpha = 36.00000, Total beta = 36.00000, Total charge = -0.00000
