  ==> Input File <==

--------------------------------------------------------------------------
set {
	reference rhf
	basis 6-31G*
}

set_num_threads( 1 )
memory 2 gb

molecule MOL {
0 1

H	 -3.135461	 -1.215070	 0.001379
O	 -2.310168	 -0.871793	 -0.309793
C	 -2.026376	 0.340750	 0.341611
C	 -0.673256	 0.843270	 -0.132153
H	 -2.792215	 1.080697	 0.115987
H	 -2.013526	 0.200402	 1.421792
C	 0.486613	 -0.083066	 0.235839
H	 -0.715586	 0.970948	 -1.210718
H	 -0.508072	 1.829858	 0.297090
C	 0.036887	 -1.517333	 0.519456
H	 0.999371	 0.316954	 1.104503
H	 1.212188	 -0.089059	 -0.576778
C	 1.196689	 -2.444407	 0.881487
H	 -0.687238	 -1.512894	 1.331453
H	 -0.483208	 -1.913807	 -0.350459
H	 1.715591	 -2.093241	 1.768793
H	 0.847970	 -3.453446	 1.079429
H	 1.922604	 -2.497683	 0.074814

	symmetry c1
}
set optking {
	frozen_dihedral = ("
		14 10 7 11,
		2 3 4 8,
		1 2 3 4
	")
}

ee = energy('scf')
oeprop('DIPOLE', 'QUADRUPOLE', 'MULLIKEN_CHARGES')
f=open( 'psi4out.xyz', 'w' )
f.write( "18  " )
f.write( str(ee) + "\n" )
f.write( MOL.save_string_xyz() )
f.close()
--------------------------------------------------------------------------

    Molecular point group: c1

    Geometry (in Angstrom), charge = 0, multiplicity = 1:

       Center              X                  Y                   Z               Mass
    ------------   -----------------  -----------------  -----------------  -----------------
           H         -2.540943953653    -0.571224663506    -0.251736288603     1.007825032070
           O         -1.715650953653    -0.227947663506    -0.562908288603    15.994914619560
           C         -1.431858953653     0.984595336494     0.088495711397    12.000000000000
           C         -0.078738953653     1.487115336494    -0.385268288603    12.000000000000
           H         -2.197697953653     1.724542336494    -0.137128288603     1.007825032070
           H         -1.419008953653     0.844247336494     1.168676711397     1.007825032070
           C          1.081130046347     0.560779336494    -0.017276288603    12.000000000000
           H         -0.121068953653     1.614793336494    -1.463833288603     1.007825032070
           H          0.086445046347     2.473703336494     0.043974711397     1.007825032070
           C          0.631404046347    -0.873487663506     0.266340711397    12.000000000000
           H          1.593888046347     0.960799336494     0.851387711397     1.007825032070
           H          1.806705046347     0.554786336494    -0.829893288603     1.007825032070
           C          1.791206046347    -1.800561663506     0.628371711397    12.000000000000
           H         -0.092720953653    -0.869048663506     1.078337711397     1.007825032070
           H          0.111309046347    -1.269961663506    -0.603574288603     1.007825032070
           H          2.310108046347    -1.449395663506     1.515677711397     1.007825032070
           H          1.442487046347    -2.809600663506     0.826313711397     1.007825032070
           H          2.517121046347    -1.853837663506    -0.178301288603     1.007825032070

  Charge       = 0
  Multiplicity = 1
  Basis Set: 6-31G*
  Basis Set:

    Orbital Energies (a.u.)
    -----------------------

    Doubly Occupied:

       1A    -20.552769     2A    -11.269357     3A    -11.211964
       4A    -11.205707     5A    -11.195186     6A    -11.193931
       7A     -1.363950     8A     -1.072258     9A     -1.001775
      10A     -0.910562    11A     -0.828453    12A     -0.766725
      13A     -0.705805    14A     -0.653137    15A     -0.613797
      16A     -0.577936    17A     -0.567153    18A     -0.551173
      19A     -0.533023    20A     -0.496963    21A     -0.487072
      22A     -0.464655    23A     -0.447070    24A     -0.440282
      25A     -0.416593

  @DF-RHF Final Energy:  -271.16145810026268

   => Energetics <=

    Nuclear Repulsion Energy =            261.2650280999709480
    One-Electron Energy =                -885.7983072422264286
    Two-Electron Energy =                 353.3718210419918364
    DFT Exchange-Correlation Energy =       0.0000000000000000
    Empirical Dispersion Energy =           0.0000000000000000
    PCM Polarization Energy =               0.0000000000000000
    EFP Energy =                            0.0000000000000000
    Total Energy =                       -271.1614581002635873

  Mulliken Charges: (a.u.)
   Center  Symbol    Alpha    Beta     Spin     Total
       1     H     0.28100  0.28100  0.00000  0.43801
       2     O     4.36713  4.36713  0.00000 -0.73426
       3     C     3.01152  3.01152  0.00000 -0.02303
       4     C     3.15807  3.15807  0.00000 -0.31614
       5     H     0.42559  0.42559  0.00000  0.14882
       6     H     0.43026  0.43026  0.00000  0.13949
       7     C     3.15522  3.15522  0.00000 -0.31043
       8     H     0.41370  0.41370  0.00000  0.17259
       9     H     0.42105  0.42105  0.00000  0.15790
      10     C     3.14884  3.14884  0.00000 -0.29768
      11     H     0.42492  0.42492  0.00000  0.15015
      12     H     0.42124  0.42124  0.00000  0.15753
      13     C     3.23724  3.23724  0.00000 -0.47448
      14     H     0.42875  0.42875  0.00000  0.14250
      15     H     0.40003  0.40003  0.00000  0.19995
      16     H     0.42763  0.42763  0.00000  0.14475
      17     H     0.42272  0.42272  0.00000  0.15456
      18     H     0.42510  0.42510  0.00000  0.14979

   Total alpha = 25.00000, Total beta = 25.00000, Total charge = -0.00000
