                              Psi4 1.0.54 Driver

  ==> Input File <==

--------------------------------------------------------------------------
set {
	reference rhf
	basis cc-pvtz
}

set_num_threads( 4 )
memory 2 gb

molecule MOL {
0 1

H	 0.569035	 -0.402875	 -4.457809
O	 1.483995	 -0.611904	 -4.489211
C	 2.142908	 -0.077299	 -3.371489
C	 1.832927	 -0.812106	 -2.075859
H	 3.200070	 -0.154224	 -3.587064
H	 1.912047	 0.980926	 -3.265125
C	 0.379104	 -0.698466	 -1.622721
H	 2.096558	 -1.858115	 -2.200442
H	 2.483318	 -0.412621	 -1.301391
C	 0.113298	 -1.420414	 -0.302504
H	 -0.269193	 -1.103177	 -2.392735
H	 0.117031	 0.352565	 -1.513461
C	 -1.311023	 -1.277304	 0.237018
H	 0.348483	 -2.475557	 -0.419069
H	 0.803307	 -1.038238	 0.444689
C	 -2.041121	 -0.006551	 -0.194127
H	 -1.888548	 -2.136293	 -0.093331
H	 -1.289731	 -1.328757	 1.323321
C	 -3.489218	 0.042606	 0.286507
H	 -2.022185	 0.066287	 -1.279394
H	 -1.518764	 0.869305	 0.178730
C	 -4.219984	 1.311773	 -0.139038
H	 -4.022855	 -0.824300	 -0.093339
H	 -3.510372	 -0.038577	 1.370031
H	 -4.244251	 1.405725	 -1.219696
H	 -5.244345	 1.313233	 0.215630
H	 -3.732090	 2.196311	 0.257073

	symmetry c1
}
set optking {
	frozen_dihedral = ("
		14 10 13 16
	")
}

ee,wfn = optimize('scf', return_wfn=True)
oeprop( wfn, 'DIPOLE', 'QUADRUPOLE', 'MULLIKEN_CHARGES')
f=open( 'psi4out.xyz', 'w' )
f.write( "27  " )
f.write( str(ee) + "\n" )
f.write( MOL.save_string_xyz() )
f.close()
--------------------------------------------------------------------------

    Molecular point group: c1
  Charge       = 0
  Multiplicity = 1
  Basis Set: CC-PVTZ
  Basis Set:
  @DF-RHF Final Energy:  -388.42124411728645
    Total Energy =                       -388.4212441172865056
    Molecular point group: c1
  Basis Set: CC-PVTZ
  Basis Set:
  Basis Set: CC-PVTZ
  Basis Set:
  @DF-RHF Final Energy:  -388.29957800390503
    Total Energy =                       -388.2995780039049123
  Basis Set: CC-PVTZ
  Basis Set:
  Basis Set: CC-PVTZ
  Basis Set:
  @DF-RHF Final Energy:  -388.39581759500697
    Total Energy =                       -388.3958175950069744
  Basis Set: CC-PVTZ
  Basis Set:
  Basis Set: CC-PVTZ
  Basis Set:
  @DF-RHF Final Energy:  -388.42211554400308
    Total Energy =                       -388.4221155440030770
  Basis Set: CC-PVTZ
  Basis Set:
  @DF-RHF Final Energy:  -388.42299184125142
    Total Energy =                       -388.4229918412514735
  Basis Set: CC-PVTZ
  Basis Set:
  @DF-RHF Final Energy:  -388.42307262379006
    Total Energy =                       -388.4230726237901763
  Basis Set: CC-PVTZ
  Basis Set:
  Basis Set: CC-PVTZ
  Basis Set:
  @DF-RHF Final Energy:  -388.42307139423912
    Total Energy =                       -388.4230713942388320
  Basis Set: CC-PVTZ
  Basis Set:
  Basis Set: CC-PVTZ
  Basis Set:
  @DF-RHF Final Energy:  -388.42309104480734
    Total Energy =                       -388.4230910448079612
  Basis Set: CC-PVTZ
  Basis Set:
  Charge       = 0
  Multiplicity = 1
  Basis Set: CC-PVTZ
  Basis Set:

    Orbital Energies (a.u.)
    -----------------------

    Doubly Occupied:

       1A    -20.545184     2A    -11.264796     3A    -11.216623
       4A    -11.215132     5A    -11.214160     6A    -11.213573
       7A    -11.213009     8A    -11.212481     9A    -11.207827
      10A     -1.363099    11A     -1.095391    12A     -1.062475
      13A     -1.011108    14A     -0.949099    15A     -0.890474
      16A     -0.820764    17A     -0.806858    18A     -0.770337
      19A     -0.696555    20A     -0.656580    21A     -0.636228
      22A     -0.613884    23A     -0.607319    24A     -0.586135
      25A     -0.574890    26A     -0.554041    27A     -0.545372
      28A     -0.527209    29A     -0.506938    30A     -0.498485
      31A     -0.488315    32A     -0.475245    33A     -0.467070
      34A     -0.456260    35A     -0.450741    36A     -0.443023
      37A     -0.425929

  @DF-RHF Final Energy:  -388.42309094214988

   => Energetics <=

    Nuclear Repulsion Energy =            461.8798083879680689
    One-Electron Energy =               -1442.0405779445063672
    Two-Electron Energy =                 591.7376786143885283
    DFT Exchange-Correlation Energy =       0.0000000000000000
    Empirical Dispersion Energy =           0.0000000000000000
    PCM Polarization Energy =               0.0000000000000000
    EFP Energy =                            0.0000000000000000
    Total Energy =                       -388.4230909421497699
    Molecular point group: c1
  Basis Set: CC-PVTZ
  Basis Set:

  -Total Gradient:
     Atom            X                  Y                   Z
    ------   -----------------  -----------------  -----------------
       1        0.000018257976    -0.000009995363    -0.000006309732
       2        0.000014076651    -0.000010789481    -0.000008131830
       3       -0.000014422329     0.000051751063    -0.000011121265
       4        0.000007804488    -0.000023843208     0.000026128636
       5       -0.000008150888     0.000003941214    -0.000005572860
       6        0.000009948490     0.000001562453    -0.000005418823
       7       -0.000025145402    -0.000008513057    -0.000028759665
       8       -0.000016540833     0.000006929365     0.000003277106
       9        0.000000855148    -0.000003906778    -0.000002128385
      10        0.001969055318    -0.001540621474     0.005311327420
      11        0.000005667783    -0.000014648321     0.000014792397
      12       -0.000002980282     0.000005752100     0.000001497945
      13        0.003442755520     0.002572224480     0.003750460683
      14       -0.002649935765     0.000661684700    -0.005598925586
      15       -0.000005297660    -0.000004579818     0.000007070446
      16       -0.002774908478    -0.001685909708    -0.003474494491
      17        0.000012609331     0.000001468397    -0.000008289249
      18        0.000003070140    -0.000003431814     0.000010750328
      19        0.000024740905    -0.000013757124     0.000034631567
      20        0.000000874201     0.000009555939    -0.000001219208
      21       -0.000008245265    -0.000016817280    -0.000003802615
      22       -0.000005533046     0.000016507380    -0.000007958505
      23        0.000018645242     0.000012727281    -0.000001096440
      24       -0.000007511905    -0.000003134667     0.000013762523
      25        0.000001227845     0.000009176575    -0.000005581631
      26       -0.000000427105    -0.000001047192    -0.000005372494
      27       -0.000010490079    -0.000012285661     0.000000483724

  **** Optimization is complete! (in 9 steps) ****
    Final optimized geometry and variables:
    Molecular point group: c1

    Geometry (in Angstrom), charge = 0, multiplicity = 1:

    H            0.590920799426    -0.648021658803    -3.226826920429
    O            1.304039551036    -1.248434883352    -3.339006232807
    C            2.302949457177    -0.999273644682    -2.385469815038
    C            1.915486519901    -1.422885473025    -0.976573345625
    H            3.166946914788    -1.564069233788    -2.708690949697
    H            2.583300039720     0.052221801780    -2.395693705538
    C            0.753295153781    -0.630970094885    -0.381093753262
    H            1.671448566084    -2.480783398489    -0.988780591177
    H            2.790597510244    -1.308333775328    -0.341144063701
    C            0.437311228132    -1.058104134823     1.054535225950
    H           -0.132470901760    -0.771383648364    -0.995155086385
    H            0.992540483765     0.427717145484    -0.414591371869
    C           -0.785276584628    -0.383356706641     1.707193249262
    H            0.251014852619    -2.126702166220     1.018025208316
    H            1.319839777692    -0.901178655024     1.666547164527
    C           -1.102987546795     1.044475965130     1.264637205462
    H           -1.663393187964    -0.989950529184     1.500499101785
    H           -0.660358873384    -0.405070418949     2.785150618753
    C           -2.288629941703     1.640911630397     2.019069435558
    H           -1.318271669103     1.062282339806     0.201557277685
    H           -0.234448939069     1.683027853297     1.411710394417
    C           -2.631783902415     3.058301068028     1.572721338418
    H           -3.157024092978     1.001563389848     1.884877948099
    H           -2.073748847757     1.641241554865     3.084069352957
    H           -2.887079342702     3.086163072326     0.518484112415
    H           -3.476390734505     3.451293831227     2.126962647552
    H           -1.794254842384     3.730746908831     1.726257016678

  Mulliken Charges: (a.u.)
   Center  Symbol    Alpha    Beta     Spin     Total
       1     H     0.39229  0.39229  0.00000  0.21542
       2     O     4.20583  4.20583  0.00000 -0.41167
       3     C     2.97941  2.97941  0.00000  0.04119
       4     C     3.08886  3.08886  0.00000 -0.17772
       5     H     0.44867  0.44867  0.00000  0.10266
       6     H     0.47013  0.47013  0.00000  0.05974
       7     C     3.10928  3.10928  0.00000 -0.21856
       8     H     0.45035  0.45035  0.00000  0.09931
       9     H     0.45619  0.45619  0.00000  0.08762
      10     C     3.09490  3.09490  0.00000 -0.18981
      11     H     0.45622  0.45622  0.00000  0.08756
      12     H     0.44898  0.44898  0.00000  0.10203
      13     C     3.09616  3.09616  0.00000 -0.19231
      14     H     0.44933  0.44933  0.00000  0.10134
      15     H     0.45134  0.45134  0.00000  0.09732
      16     C     3.09059  3.09059  0.00000 -0.18118
      17     H     0.45332  0.45332  0.00000  0.09336
      18     H     0.44901  0.44901  0.00000  0.10197
      19     C     3.08518  3.08518  0.00000 -0.17036
      20     H     0.45255  0.45255  0.00000  0.09490
      21     H     0.45446  0.45446  0.00000  0.09109
      22     C     3.14987  3.14987  0.00000 -0.29974
      23     H     0.45447  0.45447  0.00000  0.09107
      24     H     0.45345  0.45345  0.00000  0.09310
      25     H     0.45583  0.45583  0.00000  0.08833
      26     H     0.44804  0.44804  0.00000  0.10391
      27     H     0.45528  0.45528  0.00000  0.08944

   Total alpha = 37.00000, Total beta = 37.00000, Total charge = -0.00000

*** Psi4 exiting successfully. Buy a developer a beer!
