                              Psi4 1.0.54 Driver

  ==> Input File <==

--------------------------------------------------------------------------
set {
	reference rhf
	basis cc-pvtz
}

set_num_threads( 4 )
memory 2 gb

molecule MOL {
0 1

H	 -2.123894	 -0.667238	 -0.609809
O	 -2.041679	 -0.058866	 0.103463
C	 -0.959304	 0.780994	 -0.094939
C	 0.354905	 0.037902	 -0.006215
H	 -0.985899	 1.279578	 -1.057596
H	 -0.969809	 1.529522	 0.682889
F	 0.237005	 -1.190085	 -0.479436
F	 1.276532	 0.652016	 -0.718299
F	 0.795628	 -0.057402	 1.225309

	symmetry c1
}
set optking {
	frozen_dihedral = ("
		7 4 3 5
	")
}

ee,wfn = optimize('scf', return_wfn=True)
oeprop( wfn, 'DIPOLE', 'QUADRUPOLE', 'MULLIKEN_CHARGES')
f=open( 'psi4out.xyz', 'w' )
f.write( "9  " )
f.write( str(ee) + "\n" )
f.write( MOL.save_string_xyz() )
f.close()
--------------------------------------------------------------------------

    Molecular point group: c1
  Charge       = 0
  Multiplicity = 1
  Basis Set: CC-PVTZ
  Basis Set:
  @DF-RHF Final Energy:  -450.84430038315890
    Total Energy =                       -450.8443003831588385
    Molecular point group: c1
  Basis Set: CC-PVTZ
  Basis Set:
  Basis Set: CC-PVTZ
  Basis Set:
  @DF-RHF Final Energy:  -450.84460562878479
    Total Energy =                       -450.8446056287847910
  Basis Set: CC-PVTZ
  Basis Set:
  Basis Set: CC-PVTZ
  Basis Set:
  @DF-RHF Final Energy:  -450.84476572053796
    Total Energy =                       -450.8447657205379073
  Basis Set: CC-PVTZ
  Basis Set:
  Basis Set: CC-PVTZ
  Basis Set:
  @DF-RHF Final Energy:  -450.84477389203221
    Total Energy =                       -450.8447738920322649
  Basis Set: CC-PVTZ
  Basis Set:
  Basis Set: CC-PVTZ
  Basis Set:
  @DF-RHF Final Energy:  -450.84477529185517
    Total Energy =                       -450.8447752918552851
  Basis Set: CC-PVTZ
  Basis Set:
  Charge       = 0
  Multiplicity = 1
  Basis Set: CC-PVTZ
  Basis Set:

    Orbital Energies (a.u.)
    -----------------------

    Doubly Occupied:

       1A    -26.340982     2A    -26.340960     3A    -26.334391
       4A    -20.583870     5A    -11.495269     6A    -11.309821
       7A     -1.748613     8A     -1.647095     9A     -1.641586
      10A     -1.407749    11A     -1.048830    12A     -0.930473
      13A     -0.837405    14A     -0.836989    15A     -0.814917
      16A     -0.729385    17A     -0.719539    18A     -0.705128
      19A     -0.672550    20A     -0.666734    21A     -0.649429
      22A     -0.632112    23A     -0.619823    24A     -0.531419
      25A     -0.484604

  @DF-RHF Final Energy:  -450.84477539368106

   => Energetics <=

    Nuclear Repulsion Energy =            277.3721689876180108
    One-Electron Energy =               -1176.9745444195796154
    Two-Electron Energy =                 448.7576000382805432
    DFT Exchange-Correlation Energy =       0.0000000000000000
    Empirical Dispersion Energy =           0.0000000000000000
    PCM Polarization Energy =               0.0000000000000000
    EFP Energy =                            0.0000000000000000
    Total Energy =                       -450.8447753936810614
    Molecular point group: c1
  Basis Set: CC-PVTZ
  Basis Set:

  -Total Gradient:
     Atom            X                  Y                   Z
    ------   -----------------  -----------------  -----------------
       1       -0.000014471445    -0.000008788644     0.000001101364
       2        0.000026260962     0.000005486310    -0.000014577488
       3       -0.003081957731    -0.005638574041    -0.001333265890
       4        0.001926832679     0.002794990586    -0.004845848509
       5        0.002225923570     0.004245066373     0.002142978684
       6        0.000008122681     0.000002543853    -0.000001325734
       7       -0.001110949318    -0.001408999391     0.004023716419
       8        0.000008206914     0.000009036177    -0.000017443842
       9        0.000012031687    -0.000000761222     0.000044664997

  **** Optimization is complete! (in 6 steps) ****
    Final optimized geometry and variables:
    Molecular point group: c1

    Geometry (in Angstrom), charge = 0, multiplicity = 1:

    H           -2.118669449192    -0.708024704558    -0.528026301234
    O           -2.055029004529    -0.033538916564     0.124891858839
    C           -0.965384326828     0.779816113526    -0.117320374543
    C            0.358149156577     0.036173383236    -0.020037930599
    H           -0.994773270042     1.284086827458    -1.076929574644
    H           -0.954589451801     1.545510039758     0.644239809790
    F            0.258249016882    -1.190501927037    -0.493962056653
    F            1.297498317825     0.660309225852    -0.697331005358
    F            0.773748446733    -0.069520614340     1.223869417809

  Mulliken Charges: (a.u.)
   Center  Symbol    Alpha    Beta     Spin     Total
       1     H     0.38569  0.38569  0.00000  0.22863
       2     O     4.18969  4.18969  0.00000 -0.37939
       3     C     2.99597  2.99597  0.00000  0.00806
       4     C     2.68034  2.68034  0.00000  0.63931
       5     H     0.46352  0.46352  0.00000  0.07295
       6     H     0.44914  0.44914  0.00000  0.10172
       7     F     4.61533  4.61533  0.00000 -0.23065
       8     F     4.61045  4.61045  0.00000 -0.22090
       9     F     4.60987  4.60987  0.00000 -0.21973

   Total alpha = 25.00000, Total beta = 25.00000, Total charge = -0.00000

*** Psi4 exiting successfully. Buy a developer a beer!
