  ==> Input File <==

--------------------------------------------------------------------------
set {
	reference rhf
	basis cc-pvtz
}

set_num_threads( 4 )
memory 2 gb

molecule MOL {
0 1

H	 3.721907	 -0.933076	 -0.066039
O	 2.824271	 -1.154299	 0.131461
C	 2.076458	 -0.067370	 -0.038225
C	 0.626018	 -0.337582	 0.258241
O	 2.538288	 0.965419	 -0.381593
C	 -0.267326	 0.883135	 0.076490
H	 0.325620	 -1.161483	 -0.378003
H	 0.574537	 -0.713685	 1.275261
C	 -1.726822	 0.642622	 0.463839
H	 -0.210803	 1.217591	 -0.953497
H	 0.129920	 1.693110	 0.675679
C	 -2.480891	 -0.340606	 -0.429852
H	 -2.243098	 1.597649	 0.438609
H	 -1.776542	 0.301208	 1.495542
C	 -1.826154	 -1.717498	 -0.474171
H	 -3.501556	 -0.438778	 -0.069796
H	 -2.549326	 0.048370	 -1.440777
H	 -2.380911	 -2.395609	 -1.112209
H	 -1.777140	 -2.159228	 0.515360
H	 -0.813219	 -1.656586	 -0.858109

	symmetry c1
}
set optking {
	frozen_dihedral = ("
		16 12 9 6
	")
}

ee = optimize('scf')
oeprop('DIPOLE', 'QUADRUPOLE', 'MULLIKEN_CHARGES')
f=open( 'psi4out.xyz', 'w' )
f.write( "20  " )
f.write( str(ee) + "\n" )
f.write( MOL.save_string_xyz() )
f.close()
--------------------------------------------------------------------------

    Molecular point group: c1
  Charge       = 0
  Multiplicity = 1
  Basis Set: CC-PVTZ
  Basis Set:
  @DF-RHF Final Energy:  -384.06915623007308
    Total Energy =                       -384.0691562300731903
    Molecular point group: c1
  Basis Set: CC-PVTZ
  Basis Set:
  Basis Set: CC-PVTZ
  Basis Set:
  @DF-RHF Final Energy:  -384.08484983042558
    Total Energy =                       -384.0848498304252416
  Basis Set: CC-PVTZ
  Basis Set:
  Basis Set: CC-PVTZ
  Basis Set:
  @DF-RHF Final Energy:  -384.08851533307097
    Total Energy =                       -384.0885153330713138
  Basis Set: CC-PVTZ
  Basis Set:
  Basis Set: CC-PVTZ
  Basis Set:
  @DF-RHF Final Energy:  -384.08754443494632
    Total Energy =                       -384.0875444349460395
  Basis Set: CC-PVTZ
  Basis Set:
  @DF-RHF Final Energy:  -384.08993682940860
    Total Energy =                       -384.0899368294083160
  @DF-RHF Final Energy:  -384.09032693833717
    Total Energy =                       -384.0903269383379666
  Basis Set: CC-PVTZ
  Basis Set:
  @DF-RHF Final Energy:  -384.09037843233307
    Total Energy =                       -384.0903784323330683
  Basis Set: CC-PVTZ
  Basis Set:
  Basis Set: CC-PVTZ
  Basis Set:
  @DF-RHF Final Energy:  -384.09039140477671
    Total Energy =                       -384.0903914047770513
  Basis Set: CC-PVTZ
  Basis Set:
  Basis Set: CC-PVTZ
  Basis Set:
  @DF-RHF Final Energy:  -384.09039281821327
    Total Energy =                       -384.0903928182131040
  Basis Set: CC-PVTZ
  Basis Set:
  Charge       = 0
  Multiplicity = 1
  Basis Set: CC-PVTZ
  Basis Set:

    Orbital Energies (a.u.)
    -----------------------

    Doubly Occupied:

       1A    -20.603565     2A    -20.540233     3A    -11.372935
       4A    -11.237900     5A    -11.220929     6A    -11.218971
       7A    -11.218344     8A    -11.211924     9A     -1.477116
      10A     -1.368619    11A     -1.095597    12A     -1.040286
      13A     -0.962229    14A     -0.880440    15A     -0.808790
      16A     -0.778130    17A     -0.703315    18A     -0.689558
      19A     -0.669133    20A     -0.628790    21A     -0.619150
      22A     -0.594058    23A     -0.573925    24A     -0.560448
      25A     -0.532424    26A     -0.517702    27A     -0.504352
      28A     -0.484044    29A     -0.470102    30A     -0.465362
      31A     -0.455480    32A     -0.443688

  @DF-RHF Final Energy:  -384.09039298575624

   => Energetics <=

    Nuclear Repulsion Energy =            383.1793531995784861
    One-Electron Energy =               -1282.6444166092237538
    Two-Electron Energy =                 515.3746704238892562
    DFT Exchange-Correlation Energy =       0.0000000000000000
    Empirical Dispersion Energy =           0.0000000000000000
    PCM Polarization Energy =               0.0000000000000000
    EFP Energy =                            0.0000000000000000
    Total Energy =                       -384.0903929857560115
    Molecular point group: c1
  Basis Set: CC-PVTZ
  Basis Set:

  -Total Gradient:
     Atom            X                  Y                   Z
    ------   -----------------  -----------------  -----------------
       1       -0.000000969650     0.000003882662     0.000001229936
       2       -0.000011086310    -0.000013491235    -0.000005124994
       3        0.000007799242     0.000008935527    -0.000000997680
       4        0.000011763696    -0.000027563106    -0.000016474613
       5       -0.000007253561     0.000006197425     0.000008893094
       6        0.000353883592    -0.000893571385     0.000509573854
       7        0.000000729885     0.000023615465     0.000016297149
       8        0.000004933062     0.000007649044     0.000001875123
       9       -0.000399909752     0.001048449233    -0.000563497102
      10       -0.000001125899    -0.000001343602    -0.000011886446
      11        0.000005502272    -0.000011067147    -0.000006480817
      12       -0.000402884785     0.001092779943    -0.000592260390
      13        0.000003955357    -0.000009068896    -0.000005787177
      14       -0.000003961071    -0.000003514686     0.000002415744
      15       -0.000016057544    -0.000001557963    -0.000002949583
      16        0.000449866604    -0.001229663826     0.000661649902
      17        0.000002359371     0.000000635490    -0.000001906940
      18        0.000005747882    -0.000001949224     0.000001124849
      19        0.000003510627     0.000002637798    -0.000000256081
      20       -0.000006803010    -0.000001991515     0.000004562172

  **** Optimization is complete! (in 10 steps) ****
    Final optimized geometry and variables:
    Molecular point group: c1

    Geometry (in Angstrom), charge = 0, multiplicity = 1:

    H            3.598810322768    -0.560437280897     0.153195301560
    O            2.742331259907    -0.763299039260     0.498178494465
    C            1.880499731555     0.141935982988     0.042755772024
    C            0.486566269854    -0.111729381644     0.550171085636
    O            2.213799817351     1.022750826681    -0.672336863173
    C           -0.532933877786     0.910051756530     0.059019672223
    H            0.226625889917    -1.123987884480     0.268777567491
    H            0.540493366129    -0.112781204309     1.634024518182
    C           -1.961315483408     0.667676368034     0.574050352500
    H           -0.525353062336     0.937872732836    -1.024572511228
    H           -0.199340712616     1.889322291999     0.378313060009
    C           -2.876602201861    -0.157604563522    -0.336063849805
    H           -2.439193497581     1.629568763654     0.723414438180
    H           -1.919045847487     0.202870516104     1.556355333936
    C           -2.390671496422    -1.563347114019    -0.680502904527
    H           -3.841558956609    -0.244561889788     0.154023580329
    H           -3.046924927168     0.393004836490    -1.256787475461
    H           -3.142289786419    -2.092462074363    -1.254757374833
    H           -2.192945152225    -2.144452854923     0.214548685845
    H           -1.485798376209    -1.545970616795    -1.276164084893

  Mulliken Charges: (a.u.)
   Center  Symbol    Alpha    Beta     Spin     Total
       1     H     0.38250  0.38250  0.00000  0.23500
       2     O     4.16062  4.16062  0.00000 -0.32124
       3     C     2.80388  2.80388  0.00000  0.39225
       4     C     3.11211  3.11211  0.00000 -0.22423
       5     O     4.19140  4.19140  0.00000 -0.38279
       6     C     3.09996  3.09996  0.00000 -0.19992
       7     H     0.43558  0.43558  0.00000  0.12883
       8     H     0.43640  0.43640  0.00000  0.12721
       9     C     3.10395  3.10395  0.00000 -0.20789
      10     H     0.44303  0.44303  0.00000  0.11395
      11     H     0.43781  0.43781  0.00000  0.12438
      12     C     3.08456  3.08456  0.00000 -0.16913
      13     H     0.44148  0.44148  0.00000  0.11703
      14     H     0.45559  0.45559  0.00000  0.08882
      15     C     3.16191  3.16191  0.00000 -0.32383
      16     H     0.44884  0.44884  0.00000  0.10232
      17     H     0.45195  0.45195  0.00000  0.09610
      18     H     0.44169  0.44169  0.00000  0.11662
      19     H     0.45316  0.45316  0.00000  0.09367
      20     H     0.45357  0.45357  0.00000  0.09286

   Total alpha = 32.00000, Total beta = 32.00000, Total charge = -0.00000
