                              Psi4 1.0.54 Driver

  ==> Input File <==

--------------------------------------------------------------------------
set {
	reference rhf
	basis cc-pvtz
}

set_num_threads( 4 )
memory 2 gb

molecule MOL {
0 1

H	 2.646708	 0.758099	 0.000000
O	 2.258158	 -0.097743	 0.000000
C	 0.911162	 -0.015915	 0.000000
C	 0.346352	 1.248913	 0.000000
C	 0.101394	 -1.136048	 0.000000
H	 0.989917	 2.106423	 0.000000
C	 -1.025339	 1.381346	 0.000000
H	 0.539581	 -2.117701	 0.000000
C	 -1.274300	 -0.987976	 0.000000
H	 -1.457484	 2.364021	 0.000000
C	 -1.847228	 0.266490	 -0.000000
H	 -1.895868	 -1.863179	 0.000000
H	 -2.913798	 0.377502	 -0.000000

	symmetry c1
}
set optking {
	frozen_dihedral = ("
		4 3 2 1
	")
}

ee,wfn = optimize('scf', return_wfn=True)
oeprop( wfn, 'DIPOLE', 'QUADRUPOLE', 'MULLIKEN_CHARGES')
f=open( 'psi4out.xyz', 'w' )
f.write( "13  " )
f.write( str(ee) + "\n" )
f.write( MOL.save_string_xyz() )
f.close()
--------------------------------------------------------------------------

    Molecular point group: c1
  Charge       = 0
  Multiplicity = 1
  Basis Set: CC-PVTZ
  Basis Set:
  @DF-RHF Final Energy:  -305.66856137826613
    Total Energy =                       -305.6685613782663040
    Molecular point group: c1
  Basis Set: CC-PVTZ
  Basis Set:
  Basis Set: CC-PVTZ
  Basis Set:
  @DF-RHF Final Energy:  -305.67037413315927
    Total Energy =                       -305.6703741331592141
  Basis Set: CC-PVTZ
  Basis Set:
  Basis Set: CC-PVTZ
  Basis Set:
  @DF-RHF Final Energy:  -305.67053261826095
    Total Energy =                       -305.6705326182608360
  Basis Set: CC-PVTZ
  Basis Set:
  Basis Set: CC-PVTZ
  Basis Set:
  @DF-RHF Final Energy:  -305.67055448766843
    Total Energy =                       -305.6705544876684826
  Basis Set: CC-PVTZ
  Basis Set:
  Charge       = 0
  Multiplicity = 1
  Basis Set: CC-PVTZ
  Basis Set:

    Orbital Energies (a.u.)
    -----------------------

    Doubly Occupied:

       1A    -20.585128     2A    -11.297748     3A    -11.235258
       4A    -11.233456     5A    -11.226160     6A    -11.220518
       7A    -11.219342     8A     -1.415882     9A     -1.152649
      10A     -1.022831    11A     -1.008395    12A     -0.851580
      13A     -0.826701    14A     -0.741664    15A     -0.688400
      16A     -0.654957    17A     -0.612240    18A     -0.595573
      19A     -0.592264    20A     -0.568811    21A     -0.517573
      22A     -0.492785    23A     -0.485762    24A     -0.343268
      25A     -0.314591

  @DF-RHF Final Energy:  -305.67055871540293

   => Energetics <=

    Nuclear Repulsion Energy =            273.8465583627345836
    One-Electron Energy =                -957.2271614264319624
    Two-Electron Energy =                 377.7100443482943319
    DFT Exchange-Correlation Energy =       0.0000000000000000
    Empirical Dispersion Energy =           0.0000000000000000
    PCM Polarization Energy =               0.0000000000000000
    EFP Energy =                            0.0000000000000000
    Total Energy =                       -305.6705587154031036
    Molecular point group: c1
  Basis Set: CC-PVTZ
  Basis Set:

  -Total Gradient:
     Atom            X                  Y                   Z
    ------   -----------------  -----------------  -----------------
       1        0.000028863533    -0.000014585864     0.000000192122
       2        0.000010017812     0.000037063572     0.000001226989
       3       -0.000008454759    -0.000088159928    -0.000003422193
       4        0.000015765702     0.000040432965     0.000000997699
       5       -0.000012976161    -0.000034409115     0.000000720165
       6       -0.000032511761    -0.000012824193     0.000000311308
       7        0.000048345177     0.000025189343    -0.000001243082
       8        0.000054360060     0.000030311900     0.000000211238
       9       -0.000092866336     0.000081343350    -0.000000527863
      10       -0.000041524915     0.000001859066     0.000000303895
      11        0.000008075117    -0.000123260591     0.000000822107
      12        0.000014559145    -0.000001594734     0.000000201836
      13        0.000008347390     0.000058634226     0.000000205780

  **** Optimization is complete! (in 5 steps) ****
    Final optimized geometry and variables:
    Molecular point group: c1

    Geometry (in Angstrom), charge = 0, multiplicity = 1:

    H            2.694694288632     0.563427938344     0.000027779616
    O            2.244910975379    -0.261946037320     0.000009241226
    C            0.907704268802    -0.082480743536    -0.000011771011
    C            0.329198419045     1.173172568754    -0.000005686064
    C            0.109334573542    -1.214191663095    -0.000005330642
    H            0.948620554522     2.051787474968     0.000002161253
    C           -1.048911329173     1.293431053201    -0.000003019626
    H            0.575288476874    -2.179822375972     0.000001929621
    C           -1.262390341161    -1.079260641337     0.000001367910
    H           -1.490126237349     2.272074417188     0.000006557029
    C           -1.853460315451     0.172997051013     0.000006267190
    H           -1.875795895985    -1.960258515845     0.000012716568
    H           -2.921356423560     0.270619522841     0.000018564733

  Mulliken Charges: (a.u.)
   Center  Symbol    Alpha    Beta     Spin     Total
       1     H     0.38744  0.38744  0.00000  0.22512
       2     O     4.17470  4.17470  0.00000 -0.34941
       3     C     2.84882  2.84882  0.00000  0.30236
       4     C     3.13455  3.13455  0.00000 -0.26909
       5     C     3.11115  3.11115  0.00000 -0.22231
       6     H     0.43515  0.43515  0.00000  0.12970
       7     C     3.06464  3.06464  0.00000 -0.12927
       8     H     0.41956  0.41956  0.00000  0.16087
       9     C     3.05640  3.05640  0.00000 -0.11279
      10     H     0.42239  0.42239  0.00000  0.15522
      11     C     3.09883  3.09883  0.00000 -0.19765
      12     H     0.42243  0.42243  0.00000  0.15514
      13     H     0.42394  0.42394  0.00000  0.15211

   Total alpha = 25.00000, Total beta = 25.00000, Total charge = -0.00000

*** Psi4 exiting successfully. Buy a developer a beer!
