  ==> Input File <==

--------------------------------------------------------------------------
set {
	reference rhf
	basis 6-31G*
}

set_num_threads( 4 )
memory 2 gb

molecule MOL {
0 1

H	 2.581728	 1.958545	 -1.024742
C	 2.151747	 1.111359	 -0.497837
C	 0.635219	 1.097529	 -0.662372
H	 2.411935	 1.189589	 0.551899
H	 2.616027	 0.212851	 -0.889834
N	 -0.000257	 -0.000071	 0.054619
H	 0.247063	 2.030172	 -0.272643
H	 0.372729	 1.079640	 -1.724194
C	 -1.363055	 0.315058	 0.462241
C	 0.088246	 -1.262687	 -0.666925
C	 -2.412078	 -0.285320	 -0.468531
H	 -1.482241	 1.391144	 0.451970
H	 -1.549931	 -0.001174	 1.492681
C	 0.088952	 -2.474380	 0.259920
H	 1.013404	 -1.270312	 -1.229222
H	 -0.715428	 -1.353555	 -1.403565
H	 -2.262839	 0.075384	 -1.480151
H	 -2.369300	 -1.368867	 -0.491760
H	 -3.410332	 -0.003975	 -0.144961
H	 0.921510	 -2.413778	 0.951880
H	 -0.823238	 -2.547196	 0.842293
H	 0.183828	 -3.390921	 -0.315647

	symmetry c1
}
set optking {
	frozen_dihedral = ("
		3 6 9 11
	")
}

ee = optimize('scf')
oeprop('DIPOLE', 'QUADRUPOLE', 'MULLIKEN_CHARGES')
f=open( 'psi4out.xyz', 'w' )
f.write( "22  " )
f.write( str(ee) + "\n" )
f.write( MOL.save_string_xyz() )
f.close()
--------------------------------------------------------------------------

    Molecular point group: c1
  Charge       = 0
  Multiplicity = 1
  Basis Set: 6-31G*
  Basis Set:
  @DF-RHF Final Energy:  -290.35748539793968
    Total Energy =                       -290.3574853979392287
    Molecular point group: c1
  Basis Set: 6-31G*
  Basis Set:
  Basis Set: 6-31G*
  Basis Set:
  @DF-RHF Final Energy:  -290.36247673013060
    Total Energy =                       -290.3624767301301972
  Basis Set: 6-31G*
  Basis Set:
  Basis Set: 6-31G*
  Basis Set:
  @DF-RHF Final Energy:  -290.36516866512000
    Total Energy =                       -290.3651686651202226
  Basis Set: 6-31G*
  Basis Set:
  Basis Set: 6-31G*
  Basis Set:
  @DF-RHF Final Energy:  -290.36600977108134
    Total Energy =                       -290.3660097710817354
  Basis Set: 6-31G*
  Basis Set:
  @DF-RHF Final Energy:  -290.36658014076335
    Total Energy =                       -290.3665801407631761
  @DF-RHF Final Energy:  -290.36670945031932
    Total Energy =                       -290.3667094503196608
  @DF-RHF Final Energy:  -290.36673669247409
    Total Energy =                       -290.3667366924741486
  @DF-RHF Final Energy:  -290.36675256219223
    Total Energy =                       -290.3667525621922323
  @DF-RHF Final Energy:  -290.36676143756790
    Total Energy =                       -290.3667614375682433
  @DF-RHF Final Energy:  -290.36677820340350
    Total Energy =                       -290.3667782034031006
  @DF-RHF Final Energy:  -290.36678198045644
    Total Energy =                       -290.3667819804563237
  @DF-RHF Final Energy:  -290.36677993033402
    Total Energy =                       -290.3667799303344736
  @DF-RHF Final Energy:  -290.36678033331600
    Total Energy =                       -290.3667803333163988
  @DF-RHF Final Energy:  -290.36678005411352
    Total Energy =                       -290.3667800541136899
  @DF-RHF Final Energy:  -290.36678015429544
    Total Energy =                       -290.3667801542954976
  @DF-RHF Final Energy:  -290.36677990217498
    Total Energy =                       -290.3667799021753808
  @DF-RHF Final Energy:  -290.36678004731567
    Total Energy =                       -290.3667800473157286
  @DF-RHF Final Energy:  -290.36678047635866
    Total Energy =                       -290.3667804763588265
  @DF-RHF Final Energy:  -290.36678080856979
    Total Energy =                       -290.3667808085696151
  @DF-RHF Final Energy:  -290.36678293994527
    Total Energy =                       -290.3667829399446418
  @DF-RHF Final Energy:  -290.36678122253875
    Total Energy =                       -290.3667812225384637
  @DF-RHF Final Energy:  -290.36678416311202
    Total Energy =                       -290.3667841631118449
  @DF-RHF Final Energy:  -290.36678393951081
    Total Energy =                       -290.3667839395106967
  @DF-RHF Final Energy:  -290.36678411492352
    Total Energy =                       -290.3667841149236324
  @DF-RHF Final Energy:  -290.36678406682182
    Total Energy =                       -290.3667840668218219
  @DF-RHF Final Energy:  -290.36678349673548
    Total Energy =                       -290.3667834967353656
  @DF-RHF Final Energy:  -290.36678404630760
    Total Energy =                       -290.3667840463076573
  @DF-RHF Final Energy:  -290.36678399421282
    Total Energy =                       -290.3667839942129945
  @DF-RHF Final Energy:  -290.36678392410590
    Total Energy =                       -290.3667839241062438
  @DF-RHF Final Energy:  -290.36678402429629
    Total Energy =                       -290.3667840242960096
  @DF-RHF Final Energy:  -290.36678396533159
    Total Energy =                       -290.3667839653316491
  @DF-RHF Final Energy:  -290.36678372961404
    Total Energy =                       -290.3667837296137009
  @DF-RHF Final Energy:  -290.36678396247089
    Total Energy =                       -290.3667839624708336
  @DF-RHF Final Energy:  -290.36678386858324
    Total Energy =                       -290.3667838685835250
  @DF-RHF Final Energy:  -290.36678392254026
    Total Energy =                       -290.3667839225396392
  @DF-RHF Final Energy:  -290.36678388709447
    Total Energy =                       -290.3667838870950391
  Basis Set: 6-31G*
  Basis Set:
  @DF-RHF Final Energy:  -290.36678387111351
    Total Energy =                       -290.3667838711136255
  Basis Set: 6-31G*
  Basis Set:
  Basis Set: 6-31G*
  Basis Set:
  @DF-RHF Final Energy:  -290.36667319742293
    Total Energy =                       -290.3666731974226991
  Basis Set: 6-31G*
  Basis Set:
  Basis Set: 6-31G*
  Basis Set:
  @DF-RHF Final Energy:  -290.36662437608572
    Total Energy =                       -290.3666243760854968
  Basis Set: 6-31G*
  Basis Set:
  Charge       = 0
  Multiplicity = 1
  Basis Set: 6-31G*
  Basis Set:

    Orbital Energies (a.u.)
    -----------------------

    Doubly Occupied:

       1A    -15.531417     2A    -11.240957     3A    -11.240823
       4A    -11.239129     5A    -11.206954     6A    -11.204635
       7A    -11.203000     8A     -1.218092     9A     -1.025750
      10A     -1.018170    11A     -0.955552    12A     -0.862794
      13A     -0.839392    14A     -0.759417    15A     -0.658980
      16A     -0.643360    17A     -0.616971    18A     -0.593143
      19A     -0.568499    20A     -0.548225    21A     -0.543664
      22A     -0.528006    23A     -0.514759    24A     -0.500794
      25A     -0.489830    26A     -0.481921    27A     -0.471078
      28A     -0.462139    29A     -0.324717

  @DF-RHF Final Energy:  -290.36678236600329

   => Energetics <=

    Nuclear Repulsion Energy =            338.4344611976981128
    One-Electron Energy =               -1062.6181553796018306
    Two-Electron Energy =                 433.8169118159005393
    DFT Exchange-Correlation Energy =       0.0000000000000000
    Empirical Dispersion Energy =           0.0000000000000000
    PCM Polarization Energy =               0.0000000000000000
    EFP Energy =                            0.0000000000000000
    Total Energy =                       -290.3667823660032354
    Molecular point group: c1
  Basis Set: 6-31G*
  Basis Set:

  -Total Gradient:
     Atom            X                  Y                   Z
    ------   -----------------  -----------------  -----------------
       1        0.000085156962    -0.000050688528    -0.000070516759
       2        0.000373331639     0.000030618458    -0.000168318185
       3        0.001318309096     0.001587265265     0.003995337727
       4       -0.000032257749    -0.000134269321    -0.000017748107
       5       -0.000104188820     0.000230232308     0.000135581508
       6       -0.002262960372    -0.004139138364    -0.003754235639
       7        0.000044233135    -0.000107702189     0.000139162665
       8        0.000174851013    -0.000094237881    -0.000051415961
       9        0.000604407108     0.006432604367    -0.002034542050
      10       -0.000057335797     0.000414792824    -0.000908794511
      11        0.000048179610    -0.004402415352     0.002053607834
      12        0.000141334972     0.000051793710     0.000119051017
      13       -0.000048970811     0.000415464706     0.000183366180
      14        0.000140571881    -0.000217538285    -0.000289412618
      15       -0.000133490133    -0.000142957105     0.000173859431
      16       -0.000094935255    -0.000146380500     0.000192647162
      17        0.000150718681    -0.000006078002     0.000161921492
      18       -0.000075925572    -0.000006413813    -0.000067851254
      19       -0.000073807489    -0.000017672971     0.000027450667
      20       -0.000034150293     0.000023080922    -0.000013819269
      21       -0.000088490188     0.000048993260     0.000060986116
      22       -0.000074581619     0.000230646492     0.000133682554

    Molecular point group: c1

    Geometry (in Angstrom), charge = 0, multiplicity = 1:

    H            2.723442566912     2.228607203196    -0.689707194067
    C            2.263235497159     1.379151374801    -0.191978653711
    C            0.775657559800     1.305225407175    -0.530748642014
    H            2.397938598764     1.489646009375     0.878405303475
    H            2.797958597298     0.488621689371    -0.504510872723
    N            0.102926372005     0.202986045031     0.135176216037
    H            0.311723482262     2.230243839142    -0.212131402312
    H            0.653477337888     1.261725004944    -1.616952612173
    C           -1.214062599671     0.476354333812     0.690553681060
    C            0.301562676470    -1.094960954328    -0.476372416944
    C           -2.425784016641     0.024269605534    -0.133350331570
    H           -1.284050597400     1.541508805893     0.869484993759
    H           -1.285755010778     0.009400255858     1.670585201662
    C            0.214735011349    -2.243546140206     0.525613896628
    H            1.292818147891    -1.106757527573    -0.912382195907
    H           -0.391891698533    -1.272867859764    -1.300962583004
    H           -2.416123500243     0.455726937348    -1.130557092983
    H           -2.475116425150    -1.053299097771    -0.236637065954
    H           -3.339221265718     0.345769897373     0.358920652429
    H            0.935536013332    -2.100076940904     1.323236449623
    H           -0.769143087162    -2.322179452868     0.975519206226
    H            0.426294735566    -3.188653885173     0.034058926541

  Mulliken Charges: (a.u.)
   Center  Symbol    Alpha    Beta     Spin     Total
       1     H     0.42496  0.42496  0.00000  0.15008
       2     C     3.23373  3.23373  0.00000 -0.46745
       3     C     3.05100  3.05100  0.00000 -0.10201
       4     H     0.41715  0.41715  0.00000  0.16570
       5     H     0.42192  0.42192  0.00000  0.15616
       6     N     3.79814  3.79814  0.00000 -0.59628
       7     H     0.42097  0.42097  0.00000  0.15805
       8     H     0.43264  0.43264  0.00000  0.13473
       9     C     3.04941  3.04941  0.00000 -0.09881
      10     C     3.05282  3.05282  0.00000 -0.10564
      11     C     3.25039  3.25039  0.00000 -0.50078
      12     H     0.41953  0.41953  0.00000  0.16094
      13     H     0.42030  0.42030  0.00000  0.15940
      14     C     3.24011  3.24011  0.00000 -0.48022
      15     H     0.41854  0.41854  0.00000  0.16292
      16     H     0.43049  0.43049  0.00000  0.13903
      17     H     0.42037  0.42037  0.00000  0.15925
      18     H     0.41825  0.41825  0.00000  0.16350
      19     H     0.42041  0.42041  0.00000  0.15917
      20     H     0.41534  0.41534  0.00000  0.16931
      21     H     0.42087  0.42087  0.00000  0.15826
      22     H     0.42265  0.42265  0.00000  0.15469

   Total alpha = 29.00000, Total beta = 29.00000, Total charge =  0.00000
