  ==> Input File <==

--------------------------------------------------------------------------
set {
	reference rhf
	basis 6-31G*
}

set_num_threads( 4 )
memory 2 gb

molecule MOL {
0 1

H	 2.866480	 -0.465706	 0.876907
C	 2.405773	 -0.024801	 0.000000
N	 0.988830	 -0.304158	 0.000000
H	 2.866480	 -0.465706	 -0.876907
H	 2.629928	 1.045948	 0.000000
C	 0.357196	 0.038987	 1.260658
C	 0.695818	 -1.678556	 -0.362134
H	 0.772303	 -0.542217	 2.090349
H	 0.534473	 1.088803	 1.472096
C	 -1.138520	 -0.215757	 1.171614
H	 1.121049	 -1.886404	 -1.338978
H	 1.135600	 -2.384917	 0.349305
C	 -0.808878	 -1.887754	 -0.408144
H	 -1.613066	 -0.050015	 2.129921
H	 -1.581212	 0.461230	 0.443134
O	 -1.399722	 -1.543728	 0.813537
H	 -1.045655	 -2.928010	 -0.589304
H	 -1.236061	 -1.289432	 -1.210949

	symmetry c1
}
set optking {
	frozen_dihedral = ("
		6 3 2 5
	")
}

ee = optimize('scf')
oeprop('DIPOLE', 'QUADRUPOLE', 'MULLIKEN_CHARGES')
f=open( 'psi4out.xyz', 'w' )
f.write( "18  " )
f.write( str(ee) + "\n" )
f.write( MOL.save_string_xyz() )
f.close()
--------------------------------------------------------------------------

    Molecular point group: c1
  Charge       = 0
  Multiplicity = 1
  Basis Set: 6-31G*
  Basis Set:
  @DF-RHF Final Energy:  -325.02717561160000
    Total Energy =                       -325.0271756116006259
    Molecular point group: c1
  Basis Set: 6-31G*
  Basis Set:
  Basis Set: 6-31G*
  Basis Set:
  @DF-RHF Final Energy:  -325.02799261944955
    Total Energy =                       -325.0279926194498330
  Basis Set: 6-31G*
  Basis Set:
  Basis Set: 6-31G*
  Basis Set:
  @DF-RHF Final Energy:  -325.02809745705355
    Total Energy =                       -325.0280974570536614
  Basis Set: 6-31G*
  Basis Set:
  Charge       = 0
  Multiplicity = 1
  Basis Set: 6-31G*
  Basis Set:

    Orbital Energies (a.u.)
    -----------------------

    Doubly Occupied:

       1A    -20.554007     2A    -15.549819     3A    -11.266258
       4A    -11.266231     5A    -11.244154     6A    -11.244009
       7A    -11.241005     8A     -1.383449     9A     -1.232313
      10A     -1.038332    11A     -0.981258    12A     -0.882605
      13A     -0.869071    14A     -0.775082    15A     -0.683555
      16A     -0.645293    17A     -0.643308    18A     -0.633418
      19A     -0.629596    20A     -0.571927    21A     -0.556753
      22A     -0.541672    23A     -0.526700    24A     -0.501864
      25A     -0.483137    26A     -0.452303    27A     -0.407859
      28A     -0.354783

  @DF-RHF Final Energy:  -325.02809821869317

   => Energetics <=

    Nuclear Repulsion Energy =            341.4934739026210195
    One-Electron Energy =               -1118.7236190669723328
    Two-Electron Energy =                 452.2020469456580258
    DFT Exchange-Correlation Energy =       0.0000000000000000
    Empirical Dispersion Energy =           0.0000000000000000
    PCM Polarization Energy =               0.0000000000000000
    EFP Energy =                            0.0000000000000000
    Total Energy =                       -325.0280982186933443
    Molecular point group: c1
  Basis Set: 6-31G*
  Basis Set:

  -Total Gradient:
     Atom            X                  Y                   Z
    ------   -----------------  -----------------  -----------------
       1        0.000010113129    -0.000009441831     0.000015657940
       2        0.000048020814    -0.000778442020     0.003768852501
       3       -0.000472115070     0.002602824271    -0.001597902906
       4       -0.000021285540    -0.000010099831    -0.000007559516
       5        0.000002118566     0.000020726575    -0.002795095641
       6        0.000397919264    -0.001874689941     0.000616289036
       7        0.000065666458     0.000036723975    -0.000080958861
       8        0.000006549173    -0.000009736991    -0.000011782798
       9       -0.000012455516     0.000014735095     0.000045272391
      10       -0.000023381606    -0.000005731565     0.000010321726
      11        0.000010254406    -0.000034006981    -0.000014046217
      12       -0.000006752937     0.000012418307     0.000006851702
      13       -0.000000651288     0.000050455816     0.000005963145
      14       -0.000007088991    -0.000011914904    -0.000000329566
      15        0.000004242319     0.000008339028     0.000003159966
      16       -0.000021444431    -0.000013639272     0.000042095044
      17        0.000016505765     0.000006786587     0.000006124088
      18        0.000003785483    -0.000005306316    -0.000012912033

  **** Optimization is complete! (in 4 steps) ****
    Final optimized geometry and variables:
    Molecular point group: c1

    Geometry (in Angstrom), charge = 0, multiplicity = 1:

    H            2.765316639618     0.327967701286     0.506747410888
    C            2.251759262497     0.775608071835    -0.347858128790
    N            0.831967530833     0.502474719713    -0.364680416842
    H            2.706117698099     0.387828652100    -1.252673393360
    H            2.421543688240     1.846962360555    -0.338906618109
    C            0.199129880010     0.843967391530     0.896715319250
    C            0.536035161734    -0.876054878411    -0.714944354585
    H            0.612042712131     0.256260615949     1.722508961710
    H            0.382742103601     1.891831921332     1.113964456243
    C           -1.297848978569     0.597798784971     0.807719838054
    H            0.963078396088    -1.094320584202    -1.688437532357
    H            0.969058809966    -1.578264066530     0.004499842743
    C           -0.969307073730    -1.079840821576    -0.766297456213
    H           -1.771842648467     0.767355424591     1.765682127103
    H           -1.736591809306     1.276037594310     0.078170841185
    O           -1.565297880104    -0.729306670489     0.451053678949
    H           -1.209062746294    -2.119764208403    -0.945673139430
    H           -1.389795130842    -0.482209341857    -1.573072509968

  Mulliken Charges: (a.u.)
   Center  Symbol    Alpha    Beta     Spin     Total
       1     H     0.43135  0.43135  0.00000  0.13730
       2     C     3.14086  3.14086  0.00000 -0.28173
       3     N     3.78687  3.78687  0.00000 -0.57374
       4     H     0.41706  0.41706  0.00000  0.16588
       5     H     0.41478  0.41478  0.00000  0.17044
       6     C     3.06938  3.06938  0.00000 -0.13875
       7     C     3.06930  3.06930  0.00000 -0.13860
       8     H     0.42787  0.42787  0.00000  0.14426
       9     H     0.41659  0.41659  0.00000  0.16683
      10     C     2.99737  2.99737  0.00000  0.00526
      11     H     0.41658  0.41658  0.00000  0.16685
      12     H     0.42826  0.42826  0.00000  0.14348
      13     C     2.99760  2.99760  0.00000  0.00480
      14     H     0.41324  0.41324  0.00000  0.17351
      15     H     0.42380  0.42380  0.00000  0.15239
      16     O     4.31200  4.31200  0.00000 -0.62400
      17     H     0.41326  0.41326  0.00000  0.17348
      18     H     0.42382  0.42382  0.00000  0.15235

   Total alpha = 28.00000, Total beta = 28.00000, Total charge =  0.00000
