  ==> Input File <==

--------------------------------------------------------------------------
set {
	reference rhf
	basis 6-31G*
}

set_num_threads( 4 )
memory 2 gb

molecule MOL {
0 1

O	 -1.276010	 1.052711	 -0.768302
C	 -1.204840	 0.067374	 -0.106123
C	 -2.388195	 -0.672128	 0.458071
O	 -0.067104	 -0.527208	 0.221609
H	 -2.388023	 -1.694060	 0.097175
H	 -3.300579	 -0.174919	 0.164318
H	 -2.315377	 -0.706351	 1.539059
C	 1.170111	 0.034140	 -0.238951
C	 2.023542	 -1.142218	 -0.678754
C	 1.809300	 0.850816	 0.873308
H	 0.951136	 0.673060	 -1.081767
H	 1.525639	 -1.705725	 -1.459650
H	 2.975177	 -0.790441	 -1.063432
H	 2.215792	 -1.809310	 0.154721
H	 2.757411	 1.259503	 0.538530
H	 1.169115	 1.675074	 1.160949
H	 1.993450	 0.228181	 1.743033

	symmetry c1
}
set optking {
	frozen_dihedral = ("
		11 8 4 2
	")
}

ee = optimize('scf')
oeprop('DIPOLE', 'QUADRUPOLE', 'MULLIKEN_CHARGES')
f=open( 'psi4out.xyz', 'w' )
f.write( "17  " )
f.write( str(ee) + "\n" )
f.write( MOL.save_string_xyz() )
f.close()
--------------------------------------------------------------------------

    Molecular point group: c1
  Charge       = 0
  Multiplicity = 1
  Basis Set: 6-31G*
  Basis Set:
  @DF-RHF Final Energy:  -344.91395581148794
    Total Energy =                       -344.9139558114879378
    Molecular point group: c1
  Basis Set: 6-31G*
  Basis Set:
  Basis Set: 6-31G*
  Basis Set:
  @DF-RHF Final Energy:  -344.91380317934590
    Total Energy =                       -344.9138031793457912
  Basis Set: 6-31G*
  Basis Set:
  Basis Set: 6-31G*
  Basis Set:
  @DF-RHF Final Energy:  -344.91336910480351
    Total Energy =                       -344.9133691048027686
  Basis Set: 6-31G*
  Basis Set:
  Basis Set: 6-31G*
  Basis Set:
  @DF-RHF Final Energy:  -344.91412517270834
    Total Energy =                       -344.9141251727082249
  Basis Set: 6-31G*
  Basis Set:
  Basis Set: 6-31G*
  Basis Set:
  @DF-RHF Final Energy:  -344.91413438707929
    Total Energy =                       -344.9141343870792298
  Basis Set: 6-31G*
  Basis Set:
  Charge       = 0
  Multiplicity = 1
  Basis Set: 6-31G*
  Basis Set:

    Orbital Energies (a.u.)
    -----------------------

    Doubly Occupied:

       1A    -20.598485     2A    -20.542778     3A    -11.375047
       4A    -11.288957     5A    -11.232258     6A    -11.219725
       7A    -11.217548     8A     -1.464713     9A     -1.361638
      10A     -1.078742    11A     -1.004971    12A     -0.948574
      13A     -0.847928    14A     -0.767790    15A     -0.692099
      16A     -0.666382    17A     -0.659727    18A     -0.612634
      19A     -0.586637    20A     -0.578567    21A     -0.565329
      22A     -0.551399    23A     -0.535625    24A     -0.521546
      25A     -0.502238    26A     -0.482456    27A     -0.444753
      28A     -0.436572

  @DF-RHF Final Energy:  -344.91413458836212

   => Energetics <=

    Nuclear Repulsion Energy =            322.2117800607278468
    One-Electron Energy =               -1108.6815906730505503
    Two-Electron Energy =                 441.5556760239604728
    DFT Exchange-Correlation Energy =       0.0000000000000000
    Empirical Dispersion Energy =           0.0000000000000000
    PCM Polarization Energy =               0.0000000000000000
    EFP Energy =                            0.0000000000000000
    Total Energy =                       -344.9141345883622307
    Molecular point group: c1
  Basis Set: 6-31G*
  Basis Set:

  -Total Gradient:
     Atom            X                  Y                   Z
    ------   -----------------  -----------------  -----------------
       1        0.000017864937    -0.000017092706     0.000000477784
       2       -0.000090839293    -0.000682835361    -0.000986341802
       3       -0.000020979023    -0.000020287075    -0.000024034388
       4        0.000080245251     0.001265130316     0.001657294536
       5       -0.000002087510     0.000000881814     0.000011957348
       6       -0.000006946772    -0.000003658313     0.000004375904
       7        0.000000034999     0.000008624092     0.000002054457
       8        0.000097434990    -0.001642398893    -0.001513229747
       9        0.000020362001     0.000005770470     0.000002262277
      10        0.000038587127    -0.000015704984    -0.000017131138
      11       -0.000126771736     0.001084782016     0.000851828358
      12       -0.000003055142     0.000011704378     0.000003630465
      13       -0.000001661236     0.000001020582     0.000001559656
      14       -0.000001485118    -0.000003618990     0.000003635966
      15        0.000006313607     0.000007145068     0.000007082984
      16       -0.000001268902     0.000000290148    -0.000003691824
      17       -0.000005748178     0.000000247438    -0.000001730838

  **** Optimization is complete! (in 6 steps) ****
    Final optimized geometry and variables:
    Molecular point group: c1

    Geometry (in Angstrom), charge = 0, multiplicity = 1:

    O           -1.292669107932     1.126919612310    -0.703202908821
    C           -1.215745839012     0.124818364248    -0.068007247812
    C           -2.394841052746    -0.627210365297     0.489013344864
    O           -0.076141269198    -0.474901485740     0.246254148484
    H           -2.398663221536    -1.640247526744     0.103835101736
    H           -3.309307730905    -0.122447233739     0.215375978916
    H           -2.312367655949    -0.687039123372     1.568166975520
    C            1.164616112390     0.069269082680    -0.225040280388
    C            2.023550802090    -1.108618411753    -0.649782884733
    C            1.786551264168     0.894463361260     0.890628312572
    H            0.951079109878     0.708622804151    -1.066978164714
    H            1.536444419009    -1.673414527303    -1.436645673604
    H            2.981007814991    -0.759273859211    -1.022243212503
    H            2.203135696685    -1.774143980816     0.187825018287
    H            2.735793171715     1.310239743037     0.568091633580
    H            1.133959560891     1.715471746160     1.164869562787
    H            1.960455306436     0.281259017258     1.768774550700

  Mulliken Charges: (a.u.)
   Center  Symbol    Alpha    Beta     Spin     Total
       1     O     4.28480  4.28480  0.00000 -0.56960
       2     C     2.61803  2.61803  0.00000  0.76394
       3     C     3.28204  3.28204  0.00000 -0.56408
       4     O     4.31358  4.31358  0.00000 -0.62716
       5     H     0.40100  0.40100  0.00000  0.19799
       6     H     0.39735  0.39735  0.00000  0.20529
       7     H     0.40072  0.40072  0.00000  0.19856
       8     C     2.93346  2.93346  0.00000  0.13308
       9     C     3.24084  3.24084  0.00000 -0.48169
      10     C     3.24539  3.24539  0.00000 -0.49079
      11     H     0.39562  0.39562  0.00000  0.20877
      12     H     0.41272  0.41272  0.00000  0.17455
      13     H     0.41776  0.41776  0.00000  0.16448
      14     H     0.41420  0.41420  0.00000  0.17161
      15     H     0.41834  0.41834  0.00000  0.16332
      16     H     0.40827  0.40827  0.00000  0.18346
      17     H     0.41587  0.41587  0.00000  0.16827

   Total alpha = 28.00000, Total beta = 28.00000, Total charge = -0.00000
