                              Psi4 1.0.54 Driver

  ==> Input File <==

--------------------------------------------------------------------------
set {
	reference rhf
	basis cc-pvtz
}

set_num_threads( 4 )
memory 2 gb

molecule MOL {
0 1

O	 0.074770	 1.259872	 0.000487
C	 0.029490	 0.077183	 0.000078
C	 -1.232113	 -0.748027	 0.000015
O	 1.106773	 -0.690081	 -0.000204
C	 -2.501422	 0.088592	 -0.000052
H	 -1.188777	 -1.400384	 -0.865133
H	 -1.188857	 -1.400312	 0.865225
H	 -2.548170	 0.725504	 -0.873205
H	 -3.371613	 -0.556398	 -0.000040
H	 -2.548215	 0.725571	 0.873047
C	 0.917987	 -2.073769	 0.217535
H	 0.465598	 -2.249622	 1.182240
H	 1.899468	 -2.517759	 0.180203
H	 0.287496	 -2.497782	 -0.549888

	symmetry c1
}
set optking {
	frozen_dihedral = ("
		11 4 2 3
	")
}

ee,wfn = optimize('scf', return_wfn=True)
oeprop( wfn, 'DIPOLE', 'QUADRUPOLE', 'MULLIKEN_CHARGES')
f=open( 'psi4out.xyz', 'w' )
f.write( "14  " )
f.write( str(ee) + "\n" )
f.write( MOL.save_string_xyz() )
f.close()
--------------------------------------------------------------------------

    Molecular point group: c1
  Charge       = 0
  Multiplicity = 1
  Basis Set: CC-PVTZ
  Basis Set:
  @DF-RHF Final Energy:  -305.96221660517449
    Total Energy =                       -305.9622166051746035
    Molecular point group: c1
  Basis Set: CC-PVTZ
  Basis Set:
  Basis Set: CC-PVTZ
  Basis Set:
  @DF-RHF Final Energy:  -305.94351069685490
    Total Energy =                       -305.9435106968547302
  Basis Set: CC-PVTZ
  Basis Set:
  Basis Set: CC-PVTZ
  Basis Set:
  @DF-RHF Final Energy:  -305.96937354789702
    Total Energy =                       -305.9693735478970211
  Basis Set: CC-PVTZ
  Basis Set:
  Basis Set: CC-PVTZ
  Basis Set:
  @DF-RHF Final Energy:  -305.97263911660525
    Total Energy =                       -305.9726391166051940
  Basis Set: CC-PVTZ
  Basis Set:
  Basis Set: CC-PVTZ
  Basis Set:
  @DF-RHF Final Energy:  -305.97279693548427
    Total Energy =                       -305.9727969354842685
  Basis Set: CC-PVTZ
  Basis Set:
  Basis Set: CC-PVTZ
  Basis Set:
  @DF-RHF Final Energy:  -305.97337481165755
    Total Energy =                       -305.9733748116576635
  Basis Set: CC-PVTZ
  Basis Set:
  Basis Set: CC-PVTZ
  Basis Set:
  @DF-RHF Final Energy:  -305.97337767491530
    Total Energy =                       -305.9733776749153549
  Basis Set: CC-PVTZ
  Basis Set:
  Charge       = 0
  Multiplicity = 1
  Basis Set: CC-PVTZ
  Basis Set:

    Orbital Energies (a.u.)
    -----------------------

    Doubly Occupied:

       1A    -20.595786     2A    -20.528627     3A    -11.366858
       4A    -11.294105     5A    -11.247082     6A    -11.219004
       7A     -1.466834     8A     -1.368331     9A     -1.064385
      10A     -0.987782    11A     -0.900559    12A     -0.769698
      13A     -0.707589    14A     -0.691368    15A     -0.675664
      16A     -0.626133    17A     -0.606340    18A     -0.558866
      19A     -0.556006    20A     -0.527320    21A     -0.510184
      22A     -0.506510    23A     -0.451792    24A     -0.435807

  @DF-RHF Final Energy:  -305.97337814020688

   => Energetics <=

    Nuclear Repulsion Energy =            248.0757415752964903
    One-Electron Energy =                -908.7729803903300763
    Two-Electron Energy =                 354.7238606748267671
    DFT Exchange-Correlation Energy =       0.0000000000000000
    Empirical Dispersion Energy =           0.0000000000000000
    PCM Polarization Energy =               0.0000000000000000
    EFP Energy =                            0.0000000000000000
    Total Energy =                       -305.9733781402068757
    Molecular point group: c1
  Basis Set: CC-PVTZ
  Basis Set:

  -Total Gradient:
     Atom            X                  Y                   Z
    ------   -----------------  -----------------  -----------------
       1       -0.000020054258    -0.000022688155     0.000004989325
       2        0.000117923070     0.000114823557     0.001424672999
       3        0.000001751930     0.000024031498    -0.000569782276
       4       -0.000139102721    -0.000189158156    -0.001528071187
       5       -0.000027266839    -0.000012019096    -0.000017670532
       6       -0.000012435515    -0.000044929569    -0.000037814270
       7       -0.000000023339     0.000027572085    -0.000039747026
       8       -0.000006181576     0.000014903098    -0.000004865944
       9       -0.000031189370     0.000004180397     0.000003654487
      10        0.000007019077    -0.000003240259    -0.000000644763
      11        0.000105575648     0.000142583801     0.000824385740
      12        0.000009367460    -0.000036183654     0.000002540990
      13        0.000059486898    -0.000006028856    -0.000005156411
      14       -0.000064870465    -0.000013846691    -0.000056491132

  **** Optimization is complete! (in 8 steps) ****
    Final optimized geometry and variables:
    Molecular point group: c1

    Geometry (in Angstrom), charge = 0, multiplicity = 1:

    O            0.354627917034     1.547935401418    -0.086086330905
    C            0.245858452593     0.375042400686    -0.040269867259
    C           -1.091900033295    -0.331991050902     0.006065364883
    O            1.345783205015    -0.375214712334    -0.061589784682
    C           -2.265427702908     0.635557260095     0.010508645942
    H           -1.148976034901    -0.997031504421    -0.849387997198
    H           -1.120823214935    -0.968131750989     0.883706889551
    H           -2.259273840068     1.256216078166    -0.874508994674
    H           -3.198148804790     0.085327313084     0.040334353640
    H           -2.224316150120     1.290214130700     0.869980062679
    C            1.337459787103    -1.762495798600     0.160136962927
    H            0.970213552599    -2.005059745418     1.148756076754
    H            2.364708737316    -2.079718398272     0.083112179292
    H            0.752684448204    -2.288085412485    -0.582846330175

  Mulliken Charges: (a.u.)
   Center  Symbol    Alpha    Beta     Spin     Total
       1     O     4.18057  4.18057  0.00000 -0.36113
       2     C     2.80735  2.80735  0.00000  0.38530
       3     C     3.12214  3.12214  0.00000 -0.24428
       4     O     4.12817  4.12817  0.00000 -0.25634
       5     C     3.13905  3.13905  0.00000 -0.27810
       6     H     0.44019  0.44019  0.00000  0.11961
       7     H     0.44239  0.44239  0.00000  0.11522
       8     H     0.44477  0.44477  0.00000  0.11045
       9     H     0.45147  0.45147  0.00000  0.09706
      10     H     0.44581  0.44581  0.00000  0.10839
      11     C     3.04466  3.04466  0.00000 -0.08932
      12     H     0.45965  0.45965  0.00000  0.08070
      13     H     0.43277  0.43277  0.00000  0.13446
      14     H     0.46101  0.46101  0.00000  0.07799

   Total alpha = 24.00000, Total beta = 24.00000, Total charge = -0.00000

*** Psi4 exiting successfully. Buy a developer a beer!
