  ==> Input File <==

--------------------------------------------------------------------------
set {
	reference rhf
	basis 6-31G*
}

set_num_threads( 1 )
memory 2 gb

molecule MOL {
0 1

H	 -2.646374	 -0.642757	 1.268656
C	 -2.083525	 -0.384536	 0.393091
O	 -0.807605	 -0.127164	 0.768327
F	 -2.118945	 -1.383102	 -0.486752
F	 -2.621877	 0.670592	 -0.209486
C	 -0.536087	 1.109115	 1.325624
C	 0.717853	 1.639186	 0.642384
Cl	 -0.283608	 0.971983	 3.073383
H	 -1.332615	 1.814518	 1.165234
F	 1.031921	 2.826504	 1.115436
F	 0.477948	 1.763064	 -0.647786
F	 1.742995	 0.837596	 0.798951

	symmetry c1
}
set optking {
	frozen_dihedral = ("
		10 7 6 9,
		9 6 3 2
	")
}

ee = energy('scf')
oeprop('DIPOLE', 'QUADRUPOLE', 'MULLIKEN_CHARGES')
f=open( 'psi4out.xyz', 'w' )
f.write( "12  " )
f.write( str(ee) + "\n" )
f.write( MOL.save_string_xyz() )
f.close()
--------------------------------------------------------------------------

    Molecular point group: c1

    Geometry (in Angstrom), charge = 0, multiplicity = 1:

       Center              X                  Y                   Z               Mass
    ------------   -----------------  -----------------  -----------------  -----------------
           H         -2.222748023417    -1.463928841587     0.391432245231     1.007825032070
           C         -1.659899023417    -1.205707841587    -0.484132754769    12.000000000000
           O         -0.383979023417    -0.948335841587    -0.108896754769    15.994914619560
           F         -1.695319023417    -2.204273841587    -1.363975754769    18.998403224000
           F         -2.198251023417    -0.150579841587    -1.086709754769    18.998403224000
           C         -0.112461023417     0.287943158413     0.448400245231    12.000000000000
           C          1.141478976583     0.818014158413    -0.234839754769    12.000000000000
          CL          0.140017976583     0.150811158413     2.196159245231    34.968852682000
           H         -0.908989023417     0.993346158413     0.288010245231     1.007825032070
           F          1.455546976583     2.005332158413     0.238212245231    18.998403224000
           F          0.901573976583     0.941892158413    -1.525009754769    18.998403224000
           F          2.166620976583     0.016424158413    -0.078272754769    18.998403224000

  Charge       = 0
  Multiplicity = 1
  Basis Set: 6-31G*
  Basis Set:

    Orbital Energies (a.u.)
    -----------------------

    Doubly Occupied:

       1A   -104.850957     2A    -26.362139     3A    -26.359561
       4A    -26.358623     5A    -26.352329     6A    -26.344685
       7A    -20.649387     8A    -11.529649     9A    -11.491319
      10A    -11.406020    11A    -10.585726    12A     -8.055063
      13A     -8.051589    14A     -8.051446    15A     -1.762355
      16A     -1.717887    17A     -1.659193    18A     -1.657035
      19A     -1.638932    20A     -1.488919    21A     -1.184831
      22A     -1.055132    23A     -0.984895    24A     -0.923605
      25A     -0.859099    26A     -0.852685    27A     -0.847585
      28A     -0.829931    29A     -0.822222    30A     -0.787209
      31A     -0.728619    32A     -0.725802    33A     -0.700623
      34A     -0.694500    35A     -0.681395    36A     -0.674814
      37A     -0.662900    38A     -0.659125    39A     -0.656039
      40A     -0.636456    41A     -0.610548    42A     -0.575544
      43A     -0.517160    44A     -0.484847    45A     -0.474853

  @DF-RHF Final Energy: -1146.30772855432815

   => Energetics <=

    Nuclear Repulsion Energy =            731.1766828134286698
    One-Electron Energy =               -3044.9624535356078923
    Two-Electron Energy =                1167.4780421678531184
    DFT Exchange-Correlation Energy =       0.0000000000000000
    Empirical Dispersion Energy =           0.0000000000000000
    PCM Polarization Energy =               0.0000000000000000
    EFP Energy =                            0.0000000000000000
    Total Energy =                      -1146.3077285543261041

  Mulliken Charges: (a.u.)
   Center  Symbol    Alpha    Beta     Spin     Total
       1     H     0.41536  0.41536  0.00000  0.16928
       2     C     2.56468  2.56468  0.00000  0.87064
       3     O     4.30053  4.30053  0.00000 -0.60106
       4     F     4.67507  4.67507  0.00000 -0.35013
       5     F     4.68226  4.68226  0.00000 -0.36452
       6     C     3.04673  3.04673  0.00000 -0.09345
       7     C     2.43103  2.43103  0.00000  1.13793
       8    CL     8.50280  8.50280  0.00000 -0.00560
       9     H     0.36459  0.36459  0.00000  0.27083
      10     F     4.67397  4.67397  0.00000 -0.34795
      11     F     4.67520  4.67520  0.00000 -0.35040
      12     F     4.66778  4.66778  0.00000 -0.33557

   Total alpha = 45.00000, Total beta = 45.00000, Total charge = -0.00000
