  ==> Input File <==

--------------------------------------------------------------------------
set {
	reference rhf
	basis 6-31G*
}

set_num_threads( 4 )
memory 2 gb

molecule MOL {
0 1

H	 0.784333	 3.366818	 -1.564362
O	 1.512923	 2.896223	 -1.183053
C	 1.105816	 1.744130	 -0.613735
C	 2.077863	 0.950166	 -0.013163
C	 -0.215698	 1.341975	 -0.611066
H	 3.098047	 1.284603	 -0.028483
C	 1.723877	 -0.240731	 0.586440
H	 -0.985129	 1.933861	 -1.066227
C	 -0.536158	 0.140425	 0.000000
H	 2.480766	 -0.847504	 1.047746
C	 0.402498	 -0.666813	 0.602361
N	 -1.935604	 -0.280333	 0.000000
H	 0.112487	 -1.588037	 1.063496
O	 -2.161694	 -1.452901	 0.000000
O	 -2.770341	 0.571417	 0.000000

	symmetry c1
}
set optking {
	frozen_dihedral = ("
		11 9 12 14
	")
}

ee = optimize('scf')
oeprop('DIPOLE', 'QUADRUPOLE', 'MULLIKEN_CHARGES')
f=open( 'psi4out.xyz', 'w' )
f.write( "15  " )
f.write( str(ee) + "\n" )
f.write( MOL.save_string_xyz() )
f.close()
--------------------------------------------------------------------------

    Molecular point group: c1
  Charge       = 0
  Multiplicity = 1
  Basis Set: 6-31G*
  Basis Set:
  @DF-RHF Final Energy:  -509.02593420369283
    Total Energy =                       -509.0259342036927137
    Molecular point group: c1
  Basis Set: 6-31G*
  Basis Set:
  Basis Set: 6-31G*
  Basis Set:
  @DF-RHF Final Energy:  -509.01889327524884
    Total Energy =                       -509.0188932752496385
  Basis Set: 6-31G*
  Basis Set:
  Basis Set: 6-31G*
  Basis Set:
  @DF-RHF Final Energy:  -509.02594263136513
    Total Energy =                       -509.0259426313652966
  Basis Set: 6-31G*
  Basis Set:
  Basis Set: 6-31G*
  Basis Set:
  @DF-RHF Final Energy:  -509.02615462611232
    Total Energy =                       -509.0261546261128842
  Basis Set: 6-31G*
  Basis Set:
  Basis Set: 6-31G*
  Basis Set:
  @DF-RHF Final Energy:  -509.02615548993487
    Total Energy =                       -509.0261554899352632
  Basis Set: 6-31G*
  Basis Set:
  Charge       = 0
  Multiplicity = 1
  Basis Set: 6-31G*
  Basis Set:

    Orbital Energies (a.u.)
    -----------------------

    Doubly Occupied:

       1A    -20.616413     2A    -20.606439     3A    -20.605862
       4A    -15.859101     5A    -11.331457     6A    -11.312292
       7A    -11.267968     8A    -11.267483     9A    -11.264080
      10A    -11.259628    11A     -1.638656    12A     -1.437201
      13A     -1.422294    14A     -1.201404    15A     -1.095603
      16A     -1.047322    17A     -0.966256    18A     -0.880353
      19A     -0.828975    20A     -0.790318    21A     -0.756141
      22A     -0.735447    23A     -0.721693    24A     -0.709463
      25A     -0.672133    26A     -0.635457    27A     -0.616553
      28A     -0.594298    29A     -0.560386    30A     -0.546317
      31A     -0.520390    32A     -0.491478    33A     -0.489874
      34A     -0.454147    35A     -0.376464    36A     -0.343191

  @DF-RHF Final Energy:  -509.02615692953901

   => Energetics <=

    Nuclear Repulsion Energy =            503.4300931945755906
    One-Electron Energy =               -1693.0674200702630969
    Two-Electron Energy =                 680.6111699461484932
    DFT Exchange-Correlation Energy =       0.0000000000000000
    Empirical Dispersion Energy =           0.0000000000000000
    PCM Polarization Energy =               0.0000000000000000
    EFP Energy =                            0.0000000000000000
    Total Energy =                       -509.0261569295389563
    Molecular point group: c1
  Basis Set: 6-31G*
  Basis Set:

  -Total Gradient:
     Atom            X                  Y                   Z
    ------   -----------------  -----------------  -----------------
       1        0.000001983844    -0.000007463130    -0.000014345391
       2       -0.000003686310     0.000017740587     0.000020126524
       3        0.000001997321    -0.000015237395    -0.000005104159
       4        0.000000443792     0.000002725793    -0.000010371571
       5        0.000003344906    -0.000006667134    -0.000000288387
       6       -0.000000343125    -0.000000501962     0.000002768367
       7       -0.000002771369    -0.000006427968    -0.000004609159
       8        0.000000938891     0.000003254637     0.000002471899
       9        0.000551407944    -0.002226366545    -0.005087080363
      10       -0.000000180027    -0.000000123477     0.000000991310
      11       -0.000386606739     0.001520875877     0.002617248222
      12       -0.000141514948     0.000915261042     0.005944686064
      13        0.000002687054     0.000002001421    -0.000003919734
      14       -0.000061961772    -0.000150324687    -0.003463816478
      15        0.000034260546    -0.000048747054     0.000001242856

  **** Optimization is complete! (in 6 steps) ****
    Final optimized geometry and variables:
    Molecular point group: c1

    Geometry (in Angstrom), charge = 0, multiplicity = 1:

    H            0.935511355072     2.854079335421    -1.413506003524
    O            1.665234454984     2.377193657408    -1.042405755298
    C            1.258168153671     1.226143635605    -0.472060148765
    C            2.229751311393     0.434195406337     0.132354834401
    C           -0.064308379066     0.825429738497    -0.465526255920
    H            3.249009378637     0.771663184415     0.121308287246
    C            1.876496770377    -0.755830990236     0.734069556256
    H           -0.838373126556     1.426205549608    -0.902655382752
    C           -0.377828992302    -0.385251653109     0.127741438877
    H            2.632179760246    -1.355947399353     1.205976373593
    C            0.556959092228    -1.188917383437     0.738257496067
    N           -1.777809569197    -0.794381546600     0.152705053502
    H            0.266473974972    -2.114942811457     1.191352812428
    O           -2.008285908710    -1.964470487311     0.181237729474
    O           -2.604743188906     0.066249618212     0.118404218231

  Mulliken Charges: (a.u.)
   Center  Symbol    Alpha    Beta     Spin     Total
       1     H     0.26731  0.26731  0.00000  0.46539
       2     O     4.37526  4.37526  0.00000 -0.75052
       3     C     2.79291  2.79291  0.00000  0.41418
       4     C     3.10997  3.10997  0.00000 -0.21994
       5     C     3.13528  3.13528  0.00000 -0.27055
       6     H     0.38115  0.38115  0.00000  0.23770
       7     C     3.09998  3.09998  0.00000 -0.19997
       8     H     0.37160  0.37160  0.00000  0.25681
       9     C     2.90437  2.90437  0.00000  0.19126
      10     H     0.38654  0.38654  0.00000  0.22692
      11     C     3.09880  3.09880  0.00000 -0.19759
      12     N     3.25024  3.25024  0.00000  0.49951
      13     H     0.36874  0.36874  0.00000  0.26252
      14     O     4.22672  4.22672  0.00000 -0.45344
      15     O     4.23114  4.23114  0.00000 -0.46227

   Total alpha = 36.00000, Total beta = 36.00000, Total charge = -0.00000
