  ==> Input File <==

--------------------------------------------------------------------------
set {
	reference rhf
	basis 6-31G*
}

set_num_threads( 4 )
memory 2 gb

molecule MOL {
0 1

O	 -2.821601	 1.309235	 -0.001213
C	 -2.668563	 0.129746	 -0.000350
C	 -3.801572	 -0.864014	 -0.000442
O	 -1.481751	 -0.454642	 0.000584
H	 -4.417280	 -0.689587	 -0.874708
H	 -3.443784	 -1.883046	 -0.000565
H	 -4.417179	 -0.689832	 0.873954
C	 -0.334255	 0.388708	 0.000906
C	 0.891947	 -0.504646	 0.000751
H	 -0.365390	 1.025305	 -0.873475
H	 -0.365484	 1.024911	 0.875569
C	 2.191998	 0.301789	 0.000897
H	 0.855148	 -1.151283	 -0.871571
H	 0.855132	 -1.151660	 0.872805
C	 3.441114	 -0.581407	 0.000108
H	 2.215074	 0.954890	 -0.869742
H	 2.215465	 0.953923	 0.872248
C	 3.361702	 -1.725538	 1.009824
H	 4.314032	 0.030752	 0.215397
H	 3.592217	 -0.989040	 -0.996924
H	 3.244287	 -1.348261	 2.021698
H	 4.260855	 -2.333144	 0.985843
H	 2.517277	 -2.375894	 0.800077

	symmetry c1
}
set optking {
	frozen_dihedral = ("
		19 15 12 16
	")
}

ee = optimize('scf')
oeprop('DIPOLE', 'QUADRUPOLE', 'MULLIKEN_CHARGES')
f=open( 'psi4out.xyz', 'w' )
f.write( "23  " )
f.write( str(ee) + "\n" )
f.write( MOL.save_string_xyz() )
f.close()
--------------------------------------------------------------------------

    Molecular point group: c1
  Charge       = 0
  Multiplicity = 1
  Basis Set: 6-31G*
  Basis Set:
  @DF-RHF Final Energy:  -422.97500971005223
    Total Energy =                       -422.9750097100520634
    Molecular point group: c1
  Basis Set: 6-31G*
  Basis Set:
  Basis Set: 6-31G*
  Basis Set:
  @DF-RHF Final Energy:  -422.97567328875772
    Total Energy =                       -422.9756732887575481
  Basis Set: 6-31G*
  Basis Set:
  Basis Set: 6-31G*
  Basis Set:
  @DF-RHF Final Energy:  -422.97664469038477
    Total Energy =                       -422.9766446903839778
  Basis Set: 6-31G*
  Basis Set:
  Basis Set: 6-31G*
  Basis Set:
  @DF-RHF Final Energy:  -422.97671942597725
    Total Energy =                       -422.9767194259777625
  Basis Set: 6-31G*
  Basis Set:
  @DF-RHF Final Energy:  -422.97660020982505
    Total Energy =                       -422.9766002098250510
  Basis Set: 6-31G*
  Basis Set:
  @DF-RHF Final Energy:  -422.97675559324369
    Total Energy =                       -422.9767555932439791
  Basis Set: 6-31G*
  Basis Set:
  Basis Set: 6-31G*
  Basis Set:
  @DF-RHF Final Energy:  -422.97675680625252
    Total Energy =                       -422.9767568062521832
  Basis Set: 6-31G*
  Basis Set:
  Basis Set: 6-31G*
  Basis Set:
  @DF-RHF Final Energy:  -422.97675827831847
    Total Energy =                       -422.9767582783192665
  Basis Set: 6-31G*
  Basis Set:
  Charge       = 0
  Multiplicity = 1
  Basis Set: 6-31G*
  Basis Set:

    Orbital Energies (a.u.)
    -----------------------

    Doubly Occupied:

       1A    -20.602899     2A    -20.540465     3A    -11.374021
       4A    -11.281360     5A    -11.232350     6A    -11.224598
       7A    -11.223425     8A    -11.222219     9A    -11.212753
      10A     -1.467871    11A     -1.360658    12A     -1.093982
      13A     -1.040675    14A     -1.001480    15A     -0.930973
      16A     -0.855892    17A     -0.790850    18A     -0.770255
      19A     -0.691556    20A     -0.684751    21A     -0.669904
      22A     -0.640073    23A     -0.613227    24A     -0.601120
      25A     -0.574641    26A     -0.570553    27A     -0.547691
      28A     -0.537686    29A     -0.526354    30A     -0.507259
      31A     -0.497508    32A     -0.469581    33A     -0.467425
      34A     -0.466417    35A     -0.451195    36A     -0.435168

  @DF-RHF Final Energy:  -422.97675828258696

   => Energetics <=

    Nuclear Repulsion Energy =            454.8804148795346691
    One-Electron Energy =               -1477.3566775842518837
    Two-Electron Energy =                 599.4995044221298031
    DFT Exchange-Correlation Energy =       0.0000000000000000
    Empirical Dispersion Energy =           0.0000000000000000
    PCM Polarization Energy =               0.0000000000000000
    EFP Energy =                            0.0000000000000000
    Total Energy =                       -422.9767582825874115
    Molecular point group: c1
  Basis Set: 6-31G*
  Basis Set:

  -Total Gradient:
     Atom            X                  Y                   Z
    ------   -----------------  -----------------  -----------------
       1        0.000000910241    -0.000001128205     0.000001543531
       2       -0.000001350359     0.000002613994     0.000014239672
       3        0.000000168005    -0.000000612265    -0.000003499137
       4        0.000003364183     0.000001455026     0.000008981251
       5       -0.000001171404    -0.000002510955    -0.000001656533
       6       -0.000000163497    -0.000000017452    -0.000000640237
       7        0.000001085330     0.000002225445    -0.000001983153
       8       -0.000000241172    -0.000003184797    -0.000043982110
       9       -0.000004233196    -0.000002333059     0.000017914310
      10        0.000004192935     0.000000178872     0.000007216974
      11       -0.000005736518     0.000000802463     0.000007687725
      12        0.002320889940     0.003096629260     0.003356534255
      13       -0.000002859061     0.000006413644    -0.000000380814
      14        0.000000284861    -0.000007182052     0.000000313524
      15       -0.000097751446     0.000390984385    -0.005104850453
      16       -0.001943505626    -0.002678627320    -0.002071426902
      17       -0.000000373547    -0.000002183150    -0.000002315686
      18       -0.000003056090    -0.000003852884    -0.000002086597
      19       -0.000269118267    -0.000800088754     0.003816275644
      20       -0.000002916587     0.000000721756     0.000001728149
      21       -0.000000215256     0.000001378013    -0.000001420361
      22        0.000000155253     0.000001264911     0.000000237831
      23        0.000001641284    -0.000002946875     0.000001569117

  **** Optimization is complete! (in 9 steps) ****
    Final optimized geometry and variables:
    Molecular point group: c1

    Geometry (in Angstrom), charge = 0, multiplicity = 1:

    O           -2.663137398018     1.557819770067    -0.214261263788
    C           -2.528217715007     0.377718972860    -0.152439103714
    C           -3.676263552867    -0.598319455940    -0.126796155597
    O           -1.350875617145    -0.223028156346    -0.098436957138
    H           -4.272586623611    -0.457666899451    -1.020363997376
    H           -3.334351749288    -1.621251252095    -0.070602428379
    H           -4.305518360444    -0.372915621462     0.725917731953
    C           -0.190542860624     0.602524438372    -0.116448062473
    C            1.021538712315    -0.307285416786    -0.042648296705
    H           -0.193801804485     1.193646004337    -1.022638836910
    H           -0.230395978542     1.283536319722     0.723638664411
    C            2.327709037363     0.494411099866    -0.031287162474
    H            1.005420263855    -0.982917847539    -0.894191997138
    H            0.937494283618    -0.920709312225     0.847875953276
    C            3.599703739381    -0.360836421358    -0.121100509449
    H            2.311130173696     1.166822900721    -0.886491224918
    H            2.364837744382     1.112112711900     0.863095735913
    C            3.662241594819    -1.523416646532     0.873281135289
    H            4.452965741979     0.283213754089     0.074561607185
    H            3.711293654128    -0.744138414828    -1.131920925308
    H            3.517451961177    -1.176096222705     1.892972745445
    H            4.630999900978    -2.010933125415     0.826979347584
    H            2.909158787460    -2.276912619737     0.669499830369

  Mulliken Charges: (a.u.)
   Center  Symbol    Alpha    Beta     Spin     Total
       1     O     4.28394  4.28394  0.00000 -0.56788
       2     C     2.61535  2.61535  0.00000  0.76930
       3     C     3.28773  3.28773  0.00000 -0.57546
       4     O     4.31277  4.31277  0.00000 -0.62554
       5     H     0.39751  0.39751  0.00000  0.20498
       6     H     0.39991  0.39991  0.00000  0.20018
       7     H     0.39751  0.39751  0.00000  0.20497
       8     C     2.99517  2.99517  0.00000  0.00966
       9     C     3.16810  3.16810  0.00000 -0.33620
      10     H     0.41079  0.41079  0.00000  0.17841
      11     H     0.41079  0.41079  0.00000  0.17843
      12     C     3.16134  3.16134  0.00000 -0.32267
      13     H     0.41516  0.41516  0.00000  0.16968
      14     H     0.41146  0.41146  0.00000  0.17708
      15     C     3.15153  3.15153  0.00000 -0.30306
      16     H     0.41953  0.41953  0.00000  0.16094
      17     H     0.41988  0.41988  0.00000  0.16023
      18     C     3.24385  3.24385  0.00000 -0.48771
      19     H     0.41903  0.41903  0.00000  0.16193
      20     H     0.42069  0.42069  0.00000  0.15863
      21     H     0.42163  0.42163  0.00000  0.15674
      22     H     0.41780  0.41780  0.00000  0.16440
      23     H     0.41852  0.41852  0.00000  0.16296

   Total alpha = 36.00000, Total beta = 36.00000, Total charge = -0.00000
