  ==> Input File <==

--------------------------------------------------------------------------
set {
	reference rhf
	basis 6-31G*
}

set_num_threads( 4 )
memory 2 gb

molecule MOL {
0 1

H	 -3.135461	 -1.215070	 0.001379
O	 -2.310168	 -0.871793	 -0.309793
C	 -2.026376	 0.340750	 0.341611
C	 -0.673256	 0.843270	 -0.132153
H	 -2.792215	 1.080697	 0.115987
H	 -2.013526	 0.200402	 1.421792
C	 0.486613	 -0.083066	 0.235839
H	 -0.715586	 0.970948	 -1.210718
H	 -0.508072	 1.829858	 0.297090
C	 1.840406	 0.433480	 -0.254303
H	 0.300215	 -1.068318	 -0.178947
H	 0.519509	 -0.203625	 1.318070
C	 2.497227	 1.405064	 0.725637
H	 2.506117	 -0.409845	 -0.425620
H	 1.715124	 0.923454	 -1.217980
H	 2.667560	 0.933172	 1.689066
H	 3.456002	 1.752865	 0.353174
H	 1.871038	 2.277227	 0.892159

	symmetry c1
}
set optking {
	frozen_dihedral = ("
		14 10 7 11
	")
}

ee = optimize('scf')
oeprop('DIPOLE', 'QUADRUPOLE', 'MULLIKEN_CHARGES')
f=open( 'psi4out.xyz', 'w' )
f.write( "18  " )
f.write( str(ee) + "\n" )
f.write( MOL.save_string_xyz() )
f.close()
--------------------------------------------------------------------------

    Molecular point group: c1
  Charge       = 0
  Multiplicity = 1
  Basis Set: 6-31G*
  Basis Set:
  @DF-RHF Final Energy:  -271.17694253690797
    Total Energy =                       -271.1769425369079727
    Molecular point group: c1
  Basis Set: 6-31G*
  Basis Set:
  Basis Set: 6-31G*
  Basis Set:
  @DF-RHF Final Energy:  -271.17714639734368
    Total Energy =                       -271.1771463973435630
  Basis Set: 6-31G*
  Basis Set:
  Basis Set: 6-31G*
  Basis Set:
  @DF-RHF Final Energy:  -271.17720686715938
    Total Energy =                       -271.1772068671594411
  Basis Set: 6-31G*
  Basis Set:
  Charge       = 0
  Multiplicity = 1
  Basis Set: 6-31G*
  Basis Set:

    Orbital Energies (a.u.)
    -----------------------

    Doubly Occupied:

       1A    -20.552989     2A    -11.268024     3A    -11.212161
       4A    -11.210792     5A    -11.206335     6A    -11.206064
       7A     -1.359706     8A     -1.074218     9A     -1.007010
      10A     -0.914231    11A     -0.825637    12A     -0.777391
      13A     -0.705065    14A     -0.635916    15A     -0.612734
      16A     -0.607676    17A     -0.569300    18A     -0.548092
      19A     -0.520511    20A     -0.507374    21A     -0.493186
      22A     -0.461858    23A     -0.454871    24A     -0.448452
      25A     -0.428627

  @DF-RHF Final Energy:  -271.17720780486985

   => Energetics <=

    Nuclear Repulsion Energy =            250.6723566844946731
    One-Electron Energy =                -864.4826890134902442
    Two-Electron Energy =                 342.6331245241257193
    DFT Exchange-Correlation Energy =       0.0000000000000000
    Empirical Dispersion Energy =           0.0000000000000000
    PCM Polarization Energy =               0.0000000000000000
    EFP Energy =                            0.0000000000000000
    Total Energy =                       -271.1772078048699086
    Molecular point group: c1
  Basis Set: 6-31G*
  Basis Set:

  -Total Gradient:
     Atom            X                  Y                   Z
    ------   -----------------  -----------------  -----------------
       1       -0.000005908435     0.000001094888    -0.000007264266
       2       -0.000102832580     0.000036002954    -0.000024853181
       3        0.000120720153    -0.000081665906     0.000166235523
       4        0.000027218856     0.000060248425    -0.000147029471
       5        0.000011691759    -0.000023164703    -0.000013693285
       6       -0.000039146507    -0.000009150201     0.000017492374
       7       -0.001782930489     0.001577698020    -0.003652802719
       8        0.000033205883     0.000000468168    -0.000037262293
       9        0.000004557337    -0.000024111445    -0.000025082583
      10        0.001401356752    -0.000099210302     0.004167917262
      11        0.001326593333    -0.001210938748     0.002377666070
      12        0.000019757526    -0.000020112155     0.000042142426
      13       -0.000052996787    -0.000002397060     0.000037166911
      14       -0.000920751314    -0.000152488166    -0.002836108964
      15       -0.000024328210    -0.000008443328    -0.000019383528
      16        0.000000493442    -0.000011963378     0.000002720414
      17       -0.000013553630    -0.000022770890    -0.000039207519
      18       -0.000003147087    -0.000009096173    -0.000008653170

  **** Optimization is complete! (in 4 steps) ****
    Final optimized geometry and variables:
    Molecular point group: c1

    Geometry (in Angstrom), charge = 0, multiplicity = 1:

    H           -3.058616465767    -1.530392411884    -0.066956372172
    O           -2.235838836767    -1.194105210168    -0.392151440605
    C           -1.937946369733     0.023307081998     0.243638626447
    C           -0.590148503287     0.516913544564    -0.254148957255
    H           -2.704306132341     0.763884100094     0.021699980123
    H           -1.910354181243    -0.106679336664     1.324807706101
    C            0.569208020067    -0.416520783446     0.098825534651
    H           -0.647057241167     0.637573045273    -1.332757579475
    H           -0.418100225377     1.505511670512     0.166206589009
    C            1.942537646999     0.108584513395    -0.347854626314
    H            0.389733067206    -1.394124267188    -0.333260747012
    H            0.584309373680    -0.572993995668     1.177380498189
    C            2.582170705027     1.091397469734     0.632716950677
    H            2.612503478844    -0.730731029276    -0.513791725005
    H            1.840739732456     0.588269651847    -1.319748221822
    H            2.760857252071     0.620255892286     1.595173457242
    H            3.535446766717     1.452881888243     0.259141283475
    H            1.948432400272     1.957008281764     0.802472174085

  Mulliken Charges: (a.u.)
   Center  Symbol    Alpha    Beta     Spin     Total
       1     H     0.28059  0.28059  0.00000  0.43882
       2     O     4.36967  4.36967  0.00000 -0.73935
       3     C     2.99720  2.99720  0.00000  0.00559
       4     C     3.16117  3.16117  0.00000 -0.32235
       5     H     0.42932  0.42932  0.00000  0.14135
       6     H     0.43244  0.43244  0.00000  0.13511
       7     C     3.15601  3.15601  0.00000 -0.31203
       8     H     0.41475  0.41475  0.00000  0.17051
       9     H     0.42341  0.42341  0.00000  0.15317
      10     C     3.15500  3.15500  0.00000 -0.31000
      11     H     0.40558  0.40558  0.00000  0.18884
      12     H     0.42747  0.42747  0.00000  0.14505
      13     C     3.23948  3.23948  0.00000 -0.47896
      14     H     0.42006  0.42006  0.00000  0.15988
      15     H     0.42316  0.42316  0.00000  0.15369
      16     H     0.42201  0.42201  0.00000  0.15598
      17     H     0.41991  0.41991  0.00000  0.16018
      18     H     0.42274  0.42274  0.00000  0.15451

   Total alpha = 25.00000, Total beta = 25.00000, Total charge =  0.00000
