  ==> Input File <==

--------------------------------------------------------------------------
set {
	reference rhf
	basis 6-31G*
}

set_num_threads( 1 )
memory 2 gb

molecule MOL {
0 1

O	 -1.709258	 -0.205101	 2.189747
C	 -2.078982	 -0.672905	 1.160631
C	 -3.277086	 -1.578045	 1.032036
O	 -1.481751	 -0.454642	 0.000584
H	 -4.150745	 -1.053114	 1.399501
H	 -3.438631	 -1.890062	 0.010769
H	 -3.126775	 -2.445909	 1.662986
C	 -0.334255	 0.388708	 0.000906
C	 0.891947	 -0.504646	 0.000751
H	 -0.365390	 1.025305	 -0.873475
H	 -0.365484	 1.024911	 0.875569
C	 2.191998	 0.301789	 0.000897
H	 0.855148	 -1.151283	 -0.871571
H	 0.855132	 -1.151660	 0.872805
C	 3.441114	 -0.581407	 0.000108
H	 2.215074	 0.954890	 -0.869742
H	 2.215465	 0.953923	 0.872248
C	 4.739576	 0.224112	 -0.001102
H	 3.419457	 -1.233487	 -0.870178
H	 3.420834	 -1.233096	 0.870717
H	 4.804918	 0.861552	 -0.878265
H	 5.606527	 -0.429058	 -0.001824
H	 4.806469	 0.861674	 0.875853

	symmetry c1
}
set optking {
	frozen_dihedral = ("
		13 9 8 10,
		16 12 9 13,
		19 15 12 16,
		1 2 4 8
	")
}

ee = energy('scf')
oeprop('DIPOLE', 'QUADRUPOLE', 'MULLIKEN_CHARGES')
f=open( 'psi4out.xyz', 'w' )
f.write( "23  " )
f.write( str(ee) + "\n" )
f.write( MOL.save_string_xyz() )
f.close()
--------------------------------------------------------------------------

    Molecular point group: c1

    Geometry (in Angstrom), charge = 0, multiplicity = 1:

       Center              X                  Y                   Z               Mass
    ------------   -----------------  -----------------  -----------------  -----------------
           O         -1.960872661827     0.137445291032     1.694246256361    15.994914619560
           C         -2.330596661827    -0.330358708968     0.665130256361    12.000000000000
           C         -3.528700661827    -1.235498708968     0.536535256361    12.000000000000
           O         -1.733365661827    -0.112095708968    -0.494916743639    15.994914619560
           H         -4.402359661827    -0.710567708968     0.904000256361     1.007825032070
           H         -3.690245661827    -1.547515708968    -0.484731743639     1.007825032070
           H         -3.378389661827    -2.103362708968     1.167485256361     1.007825032070
           C         -0.585869661827     0.731254291032    -0.494594743639    12.000000000000
           C          0.640332338173    -0.162099708968    -0.494749743639    12.000000000000
           H         -0.617004661827     1.367851291032    -1.368975743639     1.007825032070
           H         -0.617098661827     1.367457291032     0.380068256361     1.007825032070
           C          1.940383338173     0.644335291032    -0.494603743639    12.000000000000
           H          0.603533338173    -0.808736708968    -1.367071743639     1.007825032070
           H          0.603517338173    -0.809113708968     0.377304256361     1.007825032070
           C          3.189499338173    -0.238860708968    -0.495392743639    12.000000000000
           H          1.963459338173     1.297436291032    -1.365242743639     1.007825032070
           H          1.963850338173     1.296469291032     0.376747256361     1.007825032070
           C          4.487961338173     0.566658291032    -0.496602743639    12.000000000000
           H          3.167842338173    -0.890940708968    -1.365678743639     1.007825032070
           H          3.169219338173    -0.890549708968     0.375216256361     1.007825032070
           H          4.553303338173     1.204098291032    -1.373765743639     1.007825032070
           H          5.354912338173    -0.086511708968    -0.497324743639     1.007825032070
           H          4.554854338173     1.204220291032     0.380352256361     1.007825032070

  Charge       = 0
  Multiplicity = 1
  Basis Set: 6-31G*
  Basis Set:

    Orbital Energies (a.u.)
    -----------------------

    Doubly Occupied:

       1A    -20.603005     2A    -20.540706     3A    -11.376020
       4A    -11.278931     5A    -11.233256     6A    -11.220900
       7A    -11.220129     8A    -11.219087     9A    -11.210889
      10A     -1.469105    11A     -1.361589    12A     -1.091085
      13A     -1.041023    14A     -1.002306    15A     -0.930100
      16A     -0.846973    17A     -0.798948    18A     -0.770140
      19A     -0.700652    20A     -0.680593    21A     -0.656437
      22A     -0.648248    23A     -0.603051    24A     -0.588355
      25A     -0.585104    26A     -0.572585    27A     -0.549599
      28A     -0.539027    29A     -0.521438    30A     -0.511552
      31A     -0.484898    32A     -0.478133    33A     -0.473578
      34A     -0.468058    35A     -0.438931    36A     -0.434598

  @DF-RHF Final Energy:  -422.97718958100603

   => Energetics <=

    Nuclear Repulsion Energy =            456.5641396713476183
    One-Electron Energy =               -1480.7845649310215776
    Two-Electron Energy =                 601.2432356786700893
    DFT Exchange-Correlation Energy =       0.0000000000000000
    Empirical Dispersion Energy =           0.0000000000000000
    PCM Polarization Energy =               0.0000000000000000
    EFP Energy =                            0.0000000000000000
    Total Energy =                       -422.9771895810038131

  Mulliken Charges: (a.u.)
   Center  Symbol    Alpha    Beta     Spin     Total
       1     O     4.28537  4.28537  0.00000 -0.57073
       2     C     2.61496  2.61496  0.00000  0.77008
       3     C     3.28834  3.28834  0.00000 -0.57667
       4     O     4.31075  4.31075  0.00000 -0.62150
       5     H     0.39709  0.39709  0.00000  0.20581
       6     H     0.39938  0.39938  0.00000  0.20124
       7     H     0.39755  0.39755  0.00000  0.20490
       8     C     3.01083  3.01083  0.00000 -0.02166
       9     C     3.16347  3.16347  0.00000 -0.32695
      10     H     0.41117  0.41117  0.00000  0.17766
      11     H     0.39534  0.39534  0.00000  0.20932
      12     C     3.16146  3.16146  0.00000 -0.32292
      13     H     0.41573  0.41573  0.00000  0.16855
      14     H     0.41178  0.41178  0.00000  0.17643
      15     C     3.15141  3.15141  0.00000 -0.30281
      16     H     0.42336  0.42336  0.00000  0.15328
      17     H     0.41875  0.41875  0.00000  0.16249
      18     C     3.23979  3.23979  0.00000 -0.47959
      19     H     0.42225  0.42225  0.00000  0.15549
      20     H     0.42053  0.42053  0.00000  0.15894
      21     H     0.42174  0.42174  0.00000  0.15653
      22     H     0.41837  0.41837  0.00000  0.16325
      23     H     0.42057  0.42057  0.00000  0.15887

   Total alpha = 36.00000, Total beta = 36.00000, Total charge = -0.00000
