  ==> Input File <==

--------------------------------------------------------------------------
set {
	reference rhf
	basis 6-31G*
}

set_num_threads( 1 )
memory 2 gb

molecule MOL {
0 1

H	 -2.646374	 -0.642757	 1.268656
C	 -2.083525	 -0.384536	 0.393091
O	 -0.807605	 -0.127164	 0.768327
F	 -2.118945	 -1.383102	 -0.486752
F	 -2.621877	 0.670592	 -0.209486
C	 0.036490	 0.445089	 -0.165867
C	 1.342189	 -0.338223	 -0.124262
Cl	 0.321896	 2.153577	 0.204032
H	 -0.359906	 0.389138	 -1.164623
F	 2.195735	 0.144306	 -1.002194
F	 1.094345	 -1.593338	 -0.441592
F	 1.897276	 -0.311962	 1.062820

	symmetry c1
}
set optking {
	frozen_dihedral = ("
		10 7 6 9,
		9 6 3 2
	")
}

ee = energy('scf')
oeprop('DIPOLE', 'QUADRUPOLE', 'MULLIKEN_CHARGES')
f=open( 'psi4out.xyz', 'w' )
f.write( "12  " )
f.write( str(ee) + "\n" )
f.write( MOL.save_string_xyz() )
f.close()
--------------------------------------------------------------------------

    Molecular point group: c1

    Geometry (in Angstrom), charge = 0, multiplicity = 1:

       Center              X                  Y                   Z               Mass
    ------------   -----------------  -----------------  -----------------  -----------------
           H         -2.621012657849    -0.766112399013     1.267028982018     1.007825032070
           C         -2.058163657849    -0.507891399013     0.391463982018    12.000000000000
           O         -0.782243657849    -0.250519399013     0.766699982018    15.994914619560
           F         -2.093583657849    -1.506457399013    -0.488379017982    18.998403224000
           F         -2.596515657849     0.547236600987    -0.211113017982    18.998403224000
           C          0.061851342151     0.321733600987    -0.167494017982    12.000000000000
           C          1.367550342151    -0.461578399013    -0.125889017982    12.000000000000
          CL          0.347257342151     2.030221600987     0.202404982018    34.968852682000
           H         -0.334544657849     0.265782600987    -1.166250017982     1.007825032070
           F          2.221096342151     0.020950600987    -1.003821017982    18.998403224000
           F          1.119706342151    -1.716693399013    -0.443219017982    18.998403224000
           F          1.922637342151    -0.435317399013     1.061192982018    18.998403224000

  Charge       = 0
  Multiplicity = 1
  Basis Set: 6-31G*
  Basis Set:

    Orbital Energies (a.u.)
    -----------------------

    Doubly Occupied:

       1A   -104.844183     2A    -26.359726     3A    -26.358015
       4A    -26.357379     5A    -26.348980     6A    -26.343856
       7A    -20.649587     8A    -11.527156     9A    -11.489605
      10A    -11.400919    11A    -10.578903    12A     -8.048263
      13A     -8.044725    14A     -8.044629    15A     -1.760660
      16A     -1.718037    17A     -1.657299    18A     -1.655659
      19A     -1.638492    20A     -1.486105    21A     -1.180093
      22A     -1.051976    23A     -0.986451    24A     -0.919449
      25A     -0.859414    26A     -0.851858    27A     -0.844782
      28A     -0.825169    29A     -0.810996    30A     -0.789855
      31A     -0.727090    32A     -0.725764    33A     -0.705373
      34A     -0.701244    35A     -0.678099    36A     -0.674645
      37A     -0.658189    38A     -0.657184    39A     -0.647111
      40A     -0.633362    41A     -0.597070    42A     -0.581283
      43A     -0.523255    44A     -0.477454    45A     -0.469282

  @DF-RHF Final Energy: -1146.31407447331958

   => Energetics <=

    Nuclear Repulsion Energy =            738.2007425773157365
    One-Electron Energy =               -3059.2524624664511066
    Two-Electron Energy =                1174.7376454158172692
    DFT Exchange-Correlation Energy =       0.0000000000000000
    Empirical Dispersion Energy =           0.0000000000000000
    PCM Polarization Energy =               0.0000000000000000
    EFP Energy =                            0.0000000000000000
    Total Energy =                      -1146.3140744733179872

  Mulliken Charges: (a.u.)
   Center  Symbol    Alpha    Beta     Spin     Total
       1     H     0.40166  0.40166  0.00000  0.19669
       2     C     2.56579  2.56579  0.00000  0.86842
       3     O     4.29844  4.29844  0.00000 -0.59688
       4     F     4.68548  4.68548  0.00000 -0.37097
       5     F     4.68453  4.68453  0.00000 -0.36906
       6     C     3.04624  3.04624  0.00000 -0.09249
       7     C     2.43328  2.43328  0.00000  1.13344
       8    CL     8.49963  8.49963  0.00000  0.00074
       9     H     0.36682  0.36682  0.00000  0.26636
      10     F     4.67400  4.67400  0.00000 -0.34800
      11     F     4.67581  4.67581  0.00000 -0.35162
      12     F     4.66831  4.66831  0.00000 -0.33663

   Total alpha = 45.00000, Total beta = 45.00000, Total charge = -0.00000
