                              Psi4 1.0.54 Driver

  ==> Input File <==

--------------------------------------------------------------------------
set {
	reference rhf
	basis cc-pvtz
}

set_num_threads( 4 )
memory 2 gb

molecule MOL {
0 1

H	 2.646708	 0.758099	 0.000000
O	 2.258158	 -0.097743	 0.000000
C	 0.911162	 -0.015915	 0.000000
C	 0.214821	 -0.916245	 0.789506
C	 0.226383	 0.921439	 -0.750244
H	 0.762549	 -1.636358	 1.364772
C	 -1.162118	 -0.870214	 0.821011
H	 0.766654	 1.620217	 -1.362999
C	 -1.156205	 0.956018	 -0.708860
H	 -1.696495	 -1.570414	 1.434657
C	 -1.859503	 0.064428	 0.073680
H	 -1.680186	 1.687219	 -1.294621
H	 -2.931013	 0.094114	 0.103335

	symmetry c1
}
set optking {
	frozen_dihedral = ("
		4 3 2 1
	")
}

ee,wfn = optimize('scf', return_wfn=True)
oeprop( wfn, 'DIPOLE', 'QUADRUPOLE', 'MULLIKEN_CHARGES')
f=open( 'psi4out.xyz', 'w' )
f.write( "13  " )
f.write( str(ee) + "\n" )
f.write( MOL.save_string_xyz() )
f.close()
--------------------------------------------------------------------------

    Molecular point group: c1
  Charge       = 0
  Multiplicity = 1
  Basis Set: CC-PVTZ
  Basis Set:
  @DF-RHF Final Energy:  -305.66849067415438
    Total Energy =                       -305.6684906741543273
    Molecular point group: c1
  Basis Set: CC-PVTZ
  Basis Set:
  Basis Set: CC-PVTZ
  Basis Set:
  @DF-RHF Final Energy:  -305.66859840661533
    Total Energy =                       -305.6685984066151605
  Basis Set: CC-PVTZ
  Basis Set:
  Basis Set: CC-PVTZ
  Basis Set:
  @DF-RHF Final Energy:  -305.66861441316973
    Total Energy =                       -305.6686144131699621
  Basis Set: CC-PVTZ
  Basis Set:
  Charge       = 0
  Multiplicity = 1
  Basis Set: CC-PVTZ
  Basis Set:

    Orbital Energies (a.u.)
    -----------------------

    Doubly Occupied:

       1A    -20.578862     2A    -11.293916     3A    -11.234722
       4A    -11.233262     5A    -11.226291     6A    -11.222162
       7A    -11.222055     8A     -1.407930     9A     -1.152999
      10A     -1.022633    11A     -1.008397    12A     -0.846488
      13A     -0.827246    14A     -0.740374    15A     -0.686846
      16A     -0.653203    17A     -0.622740    18A     -0.598859
      19A     -0.591881    20A     -0.545751    21A     -0.517414
      22A     -0.495959    23A     -0.480134    24A     -0.342677
      25A     -0.320536

  @DF-RHF Final Energy:  -305.66861610511307

   => Energetics <=

    Nuclear Repulsion Energy =            273.6189799088739392
    One-Electron Energy =                -956.8285219050637807
    Two-Electron Energy =                 377.5409258910767676
    DFT Exchange-Correlation Energy =       0.0000000000000000
    Empirical Dispersion Energy =           0.0000000000000000
    PCM Polarization Energy =               0.0000000000000000
    EFP Energy =                            0.0000000000000000
    Total Energy =                       -305.6686161051130739
    Molecular point group: c1
  Basis Set: CC-PVTZ
  Basis Set:

  -Total Gradient:
     Atom            X                  Y                   Z
    ------   -----------------  -----------------  -----------------
       1       -0.000045492205    -0.000008729381     0.002640213682
       2        0.000156561109     0.000511813954    -0.002567058460
       3       -0.000307865601    -0.001599853984    -0.001569626670
       4       -0.000059401566     0.001199075134     0.001477234348
       5        0.000185065489    -0.000132746964     0.000009934029
       6        0.000031476982    -0.000011696375     0.000024527113
       7        0.000215253640    -0.000149250952     0.000044224988
       8       -0.000009755192    -0.000001042948     0.000007069935
       9       -0.000249815722    -0.000063425351     0.000080141823
      10        0.000015358474     0.000020419786    -0.000011904511
      11        0.000065009846     0.000240621845    -0.000136689383
      12        0.000016003414     0.000009809478     0.000007475404
      13       -0.000012398668    -0.000014994245    -0.000005542297

  **** Optimization is complete! (in 4 steps) ****
    Final optimized geometry and variables:
    Molecular point group: c1

    Geometry (in Angstrom), charge = 0, multiplicity = 1:

    H            2.645828001457     0.754378752599    -0.038570076452
    O            2.263227087772    -0.104440354329    -0.039236852215
    C            0.907988594775    -0.026520939406    -0.023676290403
    C            0.212271592343    -0.926046674991     0.762692159992
    C            0.225788824860     0.912274617125    -0.774950915170
    H            0.759825324405    -1.642236241760     1.343182699948
    C           -1.167356069978    -0.890150140586     0.782616451313
    H            0.771955333396     1.602191874881    -1.391132500727
    C           -1.155783318769     0.948274641645    -0.736279297497
    H           -1.703663932447    -1.593095245812     1.391269427776
    C           -1.860016404337     0.047757981009     0.038026733789
    H           -1.680067620592     1.680587168192    -1.320309355898
    H           -2.931988972604     0.074755146667     0.061643198151

  Mulliken Charges: (a.u.)
   Center  Symbol    Alpha    Beta     Spin     Total
       1     H     0.38560  0.38560  0.00000  0.22881
       2     O     4.18352  4.18352  0.00000 -0.36705
       3     C     2.86273  2.86273  0.00000  0.27453
       4     C     3.10898  3.10898  0.00000 -0.21796
       5     C     3.12540  3.12540  0.00000 -0.25080
       6     H     0.41751  0.41751  0.00000  0.16499
       7     C     3.06117  3.06117  0.00000 -0.12233
       8     H     0.42701  0.42701  0.00000  0.14599
       9     C     3.06682  3.06682  0.00000 -0.13364
      10     H     0.42208  0.42208  0.00000  0.15584
      11     C     3.09341  3.09341  0.00000 -0.18682
      12     H     0.42221  0.42221  0.00000  0.15559
      13     H     0.42358  0.42358  0.00000  0.15285

   Total alpha = 25.00000, Total beta = 25.00000, Total charge =  0.00000

*** Psi4 exiting successfully. Buy a developer a beer!
