  ==> Input File <==

--------------------------------------------------------------------------
set {
	reference rhf
	basis 6-31G*
}

set_num_threads( 4 )
memory 2 gb

molecule MOL {
0 1

O	 -0.988096	 -1.408613	 0.050699
C	 -0.676749	 -0.249230	 -0.009274
C	 -1.746085	 0.827156	 -0.009539
N	 0.623947	 0.147590	 -0.102813
H	 -1.701500	 1.431508	 -0.908902
H	 -2.703425	 0.330732	 0.036390
H	 -1.647323	 1.487769	 0.845106
C	 1.645717	 -0.667916	 0.523934
C	 1.038827	 1.482419	 -0.474769
H	 2.528560	 -0.687613	 -0.105524
H	 1.275832	 -1.670284	 0.651941
H	 1.927237	 -0.270093	 1.496510
H	 1.988600	 1.426665	 -0.993289
H	 0.330094	 1.947139	 -1.141602
H	 1.168516	 2.124608	 0.394476

	symmetry c1
}
set optking {
	frozen_dihedral = ("
		8 4 2 3
	")
}

ee = optimize('scf')
oeprop('DIPOLE', 'QUADRUPOLE', 'MULLIKEN_CHARGES')
f=open( 'psi4out.xyz', 'w' )
f.write( "15  " )
f.write( str(ee) + "\n" )
f.write( MOL.save_string_xyz() )
f.close()
--------------------------------------------------------------------------

    Molecular point group: c1
  Charge       = 0
  Multiplicity = 1
  Basis Set: 6-31G*
  Basis Set:
  @DF-RHF Final Energy:  -286.02379035332604
    Total Energy =                       -286.0237903533260351
    Molecular point group: c1
  Basis Set: 6-31G*
  Basis Set:
  Basis Set: 6-31G*
  Basis Set:
  @DF-RHF Final Energy:  -286.02452552882670
    Total Energy =                       -286.0245255288269277
  Basis Set: 6-31G*
  Basis Set:
  Basis Set: 6-31G*
  Basis Set:
  @DF-RHF Final Energy:  -286.02559419046872
    Total Energy =                       -286.0255941904689507
  Basis Set: 6-31G*
  Basis Set:
  Basis Set: 6-31G*
  Basis Set:
  @DF-RHF Final Energy:  -286.02623250355691
    Total Energy =                       -286.0262325035566846
  Basis Set: 6-31G*
  Basis Set:
  @DF-RHF Final Energy:  -286.02633448038625
    Total Energy =                       -286.0263344803862537
  Basis Set: 6-31G*
  Basis Set:
  @DF-RHF Final Energy:  -286.02636269745767
    Total Energy =                       -286.0263626974577278
  Basis Set: 6-31G*
  Basis Set:
  Basis Set: 6-31G*
  Basis Set:
  @DF-RHF Final Energy:  -286.02637245571339
    Total Energy =                       -286.0263724557133855
  Basis Set: 6-31G*
  Basis Set:
  Basis Set: 6-31G*
  Basis Set:
  @DF-RHF Final Energy:  -286.02637577543913
    Total Energy =                       -286.0263757754392486
  Basis Set: 6-31G*
  Basis Set:
  Charge       = 0
  Multiplicity = 1
  Basis Set: 6-31G*
  Basis Set:

    Orbital Energies (a.u.)
    -----------------------

    Doubly Occupied:

       1A    -20.519060     2A    -15.581651     3A    -11.343219
       4A    -11.264503     5A    -11.249455     6A    -11.229803
       7A     -1.387731     8A     -1.243358     9A     -1.014236
      10A     -0.970355    11A     -0.918199    12A     -0.737408
      13A     -0.681865    14A     -0.659686    15A     -0.650571
      16A     -0.589112    17A     -0.575267    18A     -0.570669
      19A     -0.561869    20A     -0.549012    21A     -0.528555
      22A     -0.503516    23A     -0.413257    24A     -0.368340

  @DF-RHF Final Energy:  -286.02637640053825

   => Energetics <=

    Nuclear Repulsion Energy =            252.6463586539142057
    One-Electron Energy =                -889.1240823333977232
    Two-Electron Energy =                 350.4513472789452635
    DFT Exchange-Correlation Energy =       0.0000000000000000
    Empirical Dispersion Energy =           0.0000000000000000
    PCM Polarization Energy =               0.0000000000000000
    EFP Energy =                            0.0000000000000000
    Total Energy =                       -286.0263764005381972
    Molecular point group: c1
  Basis Set: 6-31G*
  Basis Set:

  -Total Gradient:
     Atom            X                  Y                   Z
    ------   -----------------  -----------------  -----------------
       1        0.000038184307     0.000007427305    -0.000065379280
       2       -0.001125780129     0.000532268674    -0.006404106998
       3        0.000616383021     0.000856556223     0.005891481126
       4        0.000826234110    -0.005091613556    -0.004293144416
       5       -0.000010068118    -0.000000061762    -0.000015147759
       6       -0.000000760178     0.000004301719    -0.000011632481
       7       -0.000012980959    -0.000000818686    -0.000009065215
       8       -0.000308818254     0.003701962311     0.004928951172
       9       -0.000015446868     0.000023243161    -0.000003907061
      10        0.000010291616    -0.000015442427     0.000003656240
      11       -0.000003091678    -0.000000363225     0.000001941912
      12       -0.000002443991     0.000006794072    -0.000008395348
      13       -0.000005752908    -0.000019445044     0.000012946454
      14       -0.000001334987     0.000001188284    -0.000019002682
      15       -0.000004614981    -0.000005997046    -0.000009195664

  **** Optimization is complete! (in 9 steps) ****
    Final optimized geometry and variables:
    Molecular point group: c1

    Geometry (in Angstrom), charge = 0, multiplicity = 1:

    O           -0.981210360740    -1.409278645783     0.229964042995
    C           -0.669524030594    -0.279064200163    -0.024253521456
    C           -1.723905520333     0.810763735226    -0.071499247456
    N            0.640762516102     0.084305206243    -0.210056984239
    H           -1.797476418763     1.269850676496    -1.051448368435
    H           -2.672061166574     0.356381651073     0.172787253893
    H           -1.500465962307     1.592430398970     0.646350355362
    C            1.656855562754    -0.713600071912     0.454124331809
    C            1.026152698379     1.462947587590    -0.430437029906
    H            2.567486641462    -0.708434779206    -0.133645516921
    H            1.309298235779    -1.727454803427     0.553879314547
    H            1.882597346805    -0.313689070300     1.441141848168
    H            2.008774685804     1.477599079403    -0.884917817093
    H            0.347902506518     1.956132118649    -1.110323505292
    H            1.075521672630     2.038885691340     0.493156677662

  Mulliken Charges: (a.u.)
   Center  Symbol    Alpha    Beta     Spin     Total
       1     O     4.29839  4.29839  0.00000 -0.59678
       2     C     2.62673  2.62673  0.00000  0.74653
       3     C     3.29817  3.29817  0.00000 -0.59633
       4     N     3.81813  3.81813  0.00000 -0.63627
       5     H     0.40593  0.40593  0.00000  0.18813
       6     H     0.39052  0.39052  0.00000  0.21897
       7     H     0.40768  0.40768  0.00000  0.18464
       8     C     3.15003  3.15003  0.00000 -0.30007
       9     C     3.14467  3.14467  0.00000 -0.28934
      10     H     0.41615  0.41615  0.00000  0.16769
      11     H     0.38460  0.38460  0.00000  0.23079
      12     H     0.42212  0.42212  0.00000  0.15575
      13     H     0.40799  0.40799  0.00000  0.18401
      14     H     0.40844  0.40844  0.00000  0.18313
      15     H     0.42043  0.42043  0.00000  0.15914

   Total alpha = 24.00000, Total beta = 24.00000, Total charge = -0.00000
