                              Psi4 1.0.54 Driver

  ==> Input File <==

--------------------------------------------------------------------------
set {
	reference rhf
	basis cc-pvtz
}

set_num_threads( 4 )
memory 2 gb

molecule MOL {
0 1

H	 -4.211009	 0.601207	 -0.092979
O	 -3.515113	 -0.019339	 -0.206321
C	 -2.302264	 0.528872	 0.237390
C	 -1.175688	 -0.398187	 -0.171891
H	 -2.148018	 1.514076	 -0.197759
H	 -2.310727	 0.646384	 1.319032
C	 0.196029	 0.106276	 0.266738
H	 -1.201873	 -0.515469	 -1.250677
H	 -1.365975	 -1.378728	 0.252664
C	 1.330220	 -0.826136	 -0.155230
H	 0.359542	 1.097229	 -0.145561
H	 0.212134	 0.218135	 1.348778
C	 2.719700	 -0.407669	 0.328325
H	 1.339388	 -0.911200	 -1.239363
H	 1.119001	 -1.821953	 0.224128
C	 3.241564	 0.893452	 -0.276737
H	 3.418299	 -1.204729	 0.093035
H	 2.711776	 -0.323368	 1.411960
H	 3.254204	 0.841071	 -1.360784
H	 2.634460	 1.745075	 0.005842
H	 4.254264	 1.092401	 0.054971

	symmetry c1
}
set optking {
	frozen_dihedral = ("
		1 2 3 5
	")
}

ee,wfn = optimize('scf', return_wfn=True)
oeprop( wfn, 'DIPOLE', 'QUADRUPOLE', 'MULLIKEN_CHARGES')
f=open( 'psi4out.xyz', 'w' )
f.write( "21  " )
f.write( str(ee) + "\n" )
f.write( MOL.save_string_xyz() )
f.close()
--------------------------------------------------------------------------

    Molecular point group: c1
  Charge       = 0
  Multiplicity = 1
  Basis Set: CC-PVTZ
  Basis Set:
  @DF-RHF Final Energy:  -310.33295398851033
    Total Energy =                       -310.3329539885104396
    Molecular point group: c1
  Basis Set: CC-PVTZ
  Basis Set:
  Basis Set: CC-PVTZ
  Basis Set:
  @DF-RHF Final Energy:  -310.33295866067863
    Total Energy =                       -310.3329586606785711
  Basis Set: CC-PVTZ
  Basis Set:
  Basis Set: CC-PVTZ
  Basis Set:
  @DF-RHF Final Energy:  -310.33296028588825
    Total Energy =                       -310.3329602858880207
  Basis Set: CC-PVTZ
  Basis Set:
  Charge       = 0
  Multiplicity = 1
  Basis Set: CC-PVTZ
  Basis Set:

    Orbital Energies (a.u.)
    -----------------------

    Doubly Occupied:

       1A    -20.545278     2A    -11.264975     3A    -11.213186
       4A    -11.213080     5A    -11.211294     6A    -11.208977
       7A    -11.206146     8A     -1.363154     9A     -1.087479
      10A     -1.034504    11A     -0.955578    12A     -0.876480
      13A     -0.807737    14A     -0.779346    15A     -0.696755
      16A     -0.662100    17A     -0.623498    18A     -0.607333
      19A     -0.588928    20A     -0.571839    21A     -0.536802
      22A     -0.521011    23A     -0.512579    24A     -0.486160
      25A     -0.481444    26A     -0.461021    27A     -0.456208
      28A     -0.445381    29A     -0.435975

  @DF-RHF Final Energy:  -310.33296083406174

   => Energetics <=

    Nuclear Repulsion Energy =            312.9069993899969404
    One-Electron Energy =               -1040.7714209657917763
    Two-Electron Energy =                 417.5314607417330421
    DFT Exchange-Correlation Energy =       0.0000000000000000
    Empirical Dispersion Energy =           0.0000000000000000
    PCM Polarization Energy =               0.0000000000000000
    EFP Energy =                            0.0000000000000000
    Total Energy =                       -310.3329608340617938
    Molecular point group: c1
  Basis Set: CC-PVTZ
  Basis Set:

  -Total Gradient:
     Atom            X                  Y                   Z
    ------   -----------------  -----------------  -----------------
       1        0.000173935705     0.000222190278    -0.000639887865
       2       -0.000227220224    -0.000201917108     0.000909386923
       3        0.000432567305    -0.000302408263    -0.000757486173
       4       -0.000014117544    -0.000003050098    -0.000021840460
       5       -0.000316362761     0.000214256389     0.000519422775
       6       -0.000004121400     0.000051035315    -0.000008402276
       7       -0.000023899082     0.000009549809     0.000020866291
       8        0.000023425747    -0.000011973336    -0.000000265076
       9       -0.000027731796     0.000013104995     0.000008876600
      10       -0.000000361650     0.000009156344    -0.000035238110
      11       -0.000006836819    -0.000014987509     0.000006540632
      12       -0.000011411706    -0.000003518534    -0.000003169538
      13       -0.000016695085     0.000021115977     0.000015225047
      14        0.000004369253     0.000001397433    -0.000003503357
      15        0.000005630788     0.000009063146    -0.000004746235
      16        0.000010292522    -0.000003386514    -0.000002691061
      17       -0.000009549541    -0.000000793922     0.000005672750
      18       -0.000006555940     0.000007690495    -0.000004748307
      19       -0.000003218503     0.000002521540    -0.000000994844
      20        0.000020458844    -0.000012686379     0.000003346718
      21       -0.000002598114    -0.000006360057    -0.000006364437

  **** Optimization is complete! (in 4 steps) ****
    Final optimized geometry and variables:
    Molecular point group: c1

    Geometry (in Angstrom), charge = 0, multiplicity = 1:

    H           -4.216096497110     0.588935751780    -0.068976860020
    O           -3.518502084304    -0.028481239893    -0.187096110973
    C           -2.302098104249     0.530069639760     0.233940308499
    C           -1.175603895969    -0.396558784654    -0.175668042305
    H           -2.158810944313     1.512118627519    -0.211329091012
    H           -2.299879925742     0.660896671654     1.314253375795
    C            0.196014795606     0.108437616291     0.262247513569
    H           -1.202118749491    -0.515880459280    -1.254147163977
    H           -1.365759569913    -1.376318629633     0.250846436097
    C            1.330215533280    -0.823747054836    -0.159850576664
    H            0.359170086761     1.099371467657    -0.150341464294
    H            0.212201875184     0.220420227864     1.344153302477
    C            2.718937038257    -0.408055065303     0.328118836981
    H            1.341830495616    -0.905840515617    -1.244167917586
    H            1.117047251454    -1.820317745128     0.216337794820
    C            3.244772715100     0.892723784146    -0.274058026480
    H            3.416869345764    -1.205960067045     0.093866343254
    H            2.708088301325    -0.324920519434     1.411777763898
    H            3.258633989628     0.842099911405    -1.358155368548
    H            2.639446108043     1.745330874964     0.009238958349
    H            4.257528143878     1.088591006543     0.059241459026

  Mulliken Charges: (a.u.)
   Center  Symbol    Alpha    Beta     Spin     Total
       1     H     0.39706  0.39706  0.00000  0.20588
       2     O     4.19497  4.19497  0.00000 -0.38994
       3     C     2.96348  2.96348  0.00000  0.07304
       4     C     3.08349  3.08349  0.00000 -0.16699
       5     H     0.47527  0.47527  0.00000  0.04946
       6     H     0.47458  0.47458  0.00000  0.05084
       7     C     3.10323  3.10323  0.00000 -0.20647
       8     H     0.45146  0.45146  0.00000  0.09708
       9     H     0.45015  0.45015  0.00000  0.09970
      10     C     3.09423  3.09423  0.00000 -0.18845
      11     H     0.45381  0.45381  0.00000  0.09238
      12     H     0.45526  0.45526  0.00000  0.08949
      13     C     3.08987  3.08987  0.00000 -0.17974
      14     H     0.45321  0.45321  0.00000  0.09357
      15     H     0.44875  0.44875  0.00000  0.10250
      16     C     3.15237  3.15237  0.00000 -0.30474
      17     H     0.44844  0.44844  0.00000  0.10312
      18     H     0.45494  0.45494  0.00000  0.09011
      19     H     0.45470  0.45470  0.00000  0.09060
      20     H     0.45427  0.45427  0.00000  0.09146
      21     H     0.44646  0.44646  0.00000  0.10708

   Total alpha = 29.00000, Total beta = 29.00000, Total charge = -0.00000

*** Psi4 exiting successfully. Buy a developer a beer!
