  ==> Input File <==

--------------------------------------------------------------------------
set {
	reference rhf
	basis 6-31G*
}

set_num_threads( 1 )
memory 2 gb

molecule MOL {
0 1

O	 2.862325	 1.357334	 0.000267
C	 2.843464	 0.164689	 -0.000222
C	 1.546494	 -0.624492	 -0.000609
C	 4.124123	 -0.644674	 -0.000428
C	 0.291004	 0.242674	 0.000989
H	 1.557904	 -1.283758	 -0.867573
H	 1.558622	 -1.285963	 0.864672
C	 -0.542298	 0.065499	 1.271413
H	 -0.309002	 0.001523	 -0.870773
H	 0.577495	 1.283655	 -0.110498
C	 -1.804600	 0.929317	 1.283501
H	 -0.823237	 -0.981200	 1.378844
H	 0.065921	 0.307393	 2.141830
C	 -2.643574	 0.757573	 2.551034
H	 -2.413714	 0.687851	 0.414195
H	 -1.524914	 1.975949	 1.177041
C	 -3.902890	 1.623476	 2.555592
H	 -2.924757	 -0.288056	 2.657896
H	 -2.036214	 1.000119	 3.420599
H	 -4.548268	 1.381076	 1.716022
H	 -4.476601	 1.479381	 3.465973
H	 -3.653410	 2.678447	 2.485303
H	 4.165367	 -1.288615	 -0.874074
H	 4.976217	 0.020734	 -0.001915
H	 4.166763	 -1.286207	 0.874930

	symmetry c1
}
set optking {
	frozen_dihedral = ("
		9 5 8 12,
		15 11 8 12,
		15 11 14 18,
		1 2 3 6
	")
}

ee = energy('scf')
oeprop('DIPOLE', 'QUADRUPOLE', 'MULLIKEN_CHARGES')
f=open( 'psi4out.xyz', 'w' )
f.write( "25  " )
f.write( str(ee) + "\n" )
f.write( MOL.save_string_xyz() )
f.close()
--------------------------------------------------------------------------

    Molecular point group: c1

    Geometry (in Angstrom), charge = 0, multiplicity = 1:

       Center              X                  Y                   Z               Mass
    ------------   -----------------  -----------------  -----------------  -----------------
           O          2.557631670128     0.917778019680    -0.857926385129    15.994914619560
           C          2.538770670128    -0.274866980320    -0.858415385129    12.000000000000
           C          1.241800670128    -1.064047980320    -0.858802385129    12.000000000000
           C          3.819429670128    -1.084229980320    -0.858621385129    12.000000000000
           C         -0.013689329872    -0.196881980320    -0.857204385129    12.000000000000
           H          1.253210670128    -1.723313980320    -1.725766385129     1.007825032070
           H          1.253928670128    -1.725518980320     0.006478614871     1.007825032070
           C         -0.846991329872    -0.374056980320     0.413219614871    12.000000000000
           H         -0.613695329872    -0.438032980320    -1.728966385129     1.007825032070
           H          0.272801670128     0.844099019680    -0.968691385129     1.007825032070
           C         -2.109293329872     0.489761019680     0.425307614871    12.000000000000
           H         -1.127930329872    -1.420755980320     0.520650614871     1.007825032070
           H         -0.238772329872    -0.132162980320     1.283636614871     1.007825032070
           C         -2.948267329872     0.318017019680     1.692840614871    12.000000000000
           H         -2.718407329872     0.248295019680    -0.443998385129     1.007825032070
           H         -1.829607329872     1.536393019680     0.318847614871     1.007825032070
           C         -4.207583329872     1.183920019680     1.697398614871    12.000000000000
           H         -3.229450329872    -0.727611980320     1.799702614871     1.007825032070
           H         -2.340907329872     0.560563019680     2.562405614871     1.007825032070
           H         -4.852961329872     0.941520019680     0.857828614871     1.007825032070
           H         -4.781294329872     1.039825019680     2.607779614871     1.007825032070
           H         -3.958103329872     2.238891019680     1.627109614871     1.007825032070
           H          3.860673670128    -1.728170980320    -1.732267385129     1.007825032070
           H          4.671523670128    -0.418821980320    -0.860108385129     1.007825032070
           H          3.862069670128    -1.725762980320     0.016736614871     1.007825032070

  Charge       = 0
  Multiplicity = 1
  Basis Set: 6-31G*
  Basis Set:

    Orbital Energies (a.u.)
    -----------------------

    Doubly Occupied:

       1A    -20.551446     2A    -11.327277     3A    -11.230369
       4A    -11.229096     5A    -11.214719     6A    -11.213539
       7A    -11.212076     8A    -11.211116     9A    -11.206865
      10A     -1.397276    11A     -1.091757    12A     -1.055155
      13A     -1.014140    14A     -0.968123    15A     -0.889041
      16A     -0.814285    17A     -0.789441    18A     -0.729691
      19A     -0.668268    20A     -0.641867    21A     -0.632650
      22A     -0.622947    23A     -0.592923    24A     -0.582722
      25A     -0.574499    26A     -0.558037    27A     -0.533634
      28A     -0.525062    29A     -0.513943    30A     -0.495300
      31A     -0.483343    32A     -0.470497    33A     -0.462867
      34A     -0.458690    35A     -0.442722    36A     -0.402469

  @DF-RHF Final Energy:  -387.13171441677866

   => Energetics <=

    Nuclear Repulsion Energy =            442.2969842491671670
    One-Electron Energy =               -1401.2413755519071401
    Two-Electron Energy =                 571.8126768859574440
    DFT Exchange-Correlation Energy =       0.0000000000000000
    Empirical Dispersion Energy =           0.0000000000000000
    PCM Polarization Energy =               0.0000000000000000
    EFP Energy =                            0.0000000000000000
    Total Energy =                       -387.1317144167825290

  Mulliken Charges: (a.u.)
   Center  Symbol    Alpha    Beta     Spin     Total
       1     O     4.26015  4.26015  0.00000 -0.52031
       2     C     2.73863  2.73863  0.00000  0.52273
       3     C     3.21494  3.21494  0.00000 -0.42989
       4     C     3.28697  3.28697  0.00000 -0.57393
       5     C     3.15815  3.15815  0.00000 -0.31630
       6     H     0.40665  0.40665  0.00000  0.18670
       7     H     0.40702  0.40702  0.00000  0.18597
       8     C     3.15598  3.15598  0.00000 -0.31196
       9     H     0.42098  0.42098  0.00000  0.15803
      10     H     0.39247  0.39247  0.00000  0.21505
      11     C     3.15164  3.15164  0.00000 -0.30327
      12     H     0.42571  0.42571  0.00000  0.14858
      13     H     0.42171  0.42171  0.00000  0.15658
      14     C     3.15151  3.15151  0.00000 -0.30301
      15     H     0.42442  0.42442  0.00000  0.15115
      16     H     0.42059  0.42059  0.00000  0.15881
      17     C     3.23927  3.23927  0.00000 -0.47854
      18     H     0.42421  0.42421  0.00000  0.15159
      19     H     0.42284  0.42284  0.00000  0.15432
      20     H     0.42212  0.42212  0.00000  0.15575
      21     H     0.41978  0.41978  0.00000  0.16044
      22     H     0.42102  0.42102  0.00000  0.15795
      23     H     0.40848  0.40848  0.00000  0.18304
      24     H     0.39637  0.39637  0.00000  0.20725
      25     H     0.40836  0.40836  0.00000  0.18327

   Total alpha = 36.00000, Total beta = 36.00000, Total charge = -0.00000
