                              Psi4 1.0.54 Driver

  ==> Input File <==

--------------------------------------------------------------------------
set {
	reference rhf
	basis cc-pvtz
}

set_num_threads( 4 )
memory 2 gb

molecule MOL {
0 1

H	 -2.468933	 -0.834922	 0.590750
O	 -2.313989	 -0.142475	 -0.025864
C	 -0.943808	 -0.065018	 -0.330000
H	 -0.812293	 -0.225641	 -1.398673
C	 -0.231030	 -1.182113	 0.407592
C	 -0.353797	 1.300461	 0.050970
H	 -0.312800	 -0.992012	 1.473041
H	 -0.738841	 -2.119564	 0.220514
C	 1.246176	 -1.268044	 -0.015480
H	 -0.539537	 2.008579	 -0.751815
H	 -0.889989	 1.662858	 0.920677
C	 1.153605	 1.231851	 0.356834
H	 1.823096	 -1.684665	 0.802361
H	 1.352335	 -1.958223	 -0.845114
C	 1.826409	 0.100723	 -0.416008
H	 1.622968	 2.181508	 0.128734
H	 1.301983	 1.066493	 1.419367
H	 2.897299	 0.112407	 -0.249665
H	 1.683458	 0.265621	 -1.480024

	symmetry c1
}
set optking {
	frozen_dihedral = ("
		1 2 3 4
	")
}

ee,wfn = optimize('scf', return_wfn=True)
oeprop( wfn, 'DIPOLE', 'QUADRUPOLE', 'MULLIKEN_CHARGES')
f=open( 'psi4out.xyz', 'w' )
f.write( "19  " )
f.write( str(ee) + "\n" )
f.write( MOL.save_string_xyz() )
f.close()
--------------------------------------------------------------------------

    Molecular point group: c1
  Charge       = 0
  Multiplicity = 1
  Basis Set: CC-PVTZ
  Basis Set:
  @DF-RHF Final Energy:  -309.15976835385555
    Total Energy =                       -309.1597683538554975
    Molecular point group: c1
  Basis Set: CC-PVTZ
  Basis Set:
  Basis Set: CC-PVTZ
  Basis Set:
  @DF-RHF Final Energy:  -309.16090960483655
    Total Energy =                       -309.1609096048365473
  Basis Set: CC-PVTZ
  Basis Set:
  Basis Set: CC-PVTZ
  Basis Set:
  @DF-RHF Final Energy:  -309.16128698478502
    Total Energy =                       -309.1612869847849083
  Basis Set: CC-PVTZ
  Basis Set:
  Basis Set: CC-PVTZ
  Basis Set:
  @DF-RHF Final Energy:  -309.16129359939646
    Total Energy =                       -309.1612935993961742
  Basis Set: CC-PVTZ
  Basis Set:
  Charge       = 0
  Multiplicity = 1
  Basis Set: CC-PVTZ
  Basis Set:

    Orbital Energies (a.u.)
    -----------------------

    Doubly Occupied:

       1A    -20.540585     2A    -11.267211     3A    -11.219460
       4A    -11.218720     5A    -11.215230     6A    -11.213674
       7A    -11.206649     8A     -1.361030     9A     -1.111905
      10A     -1.005695    11A     -0.990118    12A     -0.853070
      13A     -0.834678    14A     -0.746146    15A     -0.682231
      16A     -0.666992    17A     -0.623918    18A     -0.603625
      19A     -0.578462    20A     -0.552933    21A     -0.532450
      22A     -0.522174    23A     -0.500736    24A     -0.492466
      25A     -0.466270    26A     -0.449709    27A     -0.427888
      28A     -0.414009

  @DF-RHF Final Energy:  -309.16129409263652

   => Energetics <=

    Nuclear Repulsion Energy =            331.8842162179420825
    One-Electron Energy =               -1077.4949530195476655
    Two-Electron Energy =                 436.4494427089692863
    DFT Exchange-Correlation Energy =       0.0000000000000000
    Empirical Dispersion Energy =           0.0000000000000000
    PCM Polarization Energy =               0.0000000000000000
    EFP Energy =                            0.0000000000000000
    Total Energy =                       -309.1612940926362398
    Molecular point group: c1
  Basis Set: CC-PVTZ
  Basis Set:

  -Total Gradient:
     Atom            X                  Y                   Z
    ------   -----------------  -----------------  -----------------
       1        0.000014859192     0.000044469794     0.000065211516
       2       -0.000012626561    -0.000046709910    -0.000067723280
       3       -0.000008073420    -0.000052657849     0.000012949732
       4        0.000017237580     0.000063026793    -0.000011073429
       5       -0.000002324868     0.000013873529    -0.000016748972
       6        0.000002562436    -0.000005966530     0.000005883296
       7        0.000002486151    -0.000009551135    -0.000003988747
       8        0.000001833549     0.000002318703     0.000005042885
       9       -0.000016217874    -0.000006316996     0.000036147728
      10        0.000000990008     0.000005679745    -0.000010551927
      11       -0.000003010226     0.000001818511    -0.000001001355
      12       -0.000009041606    -0.000000247634    -0.000002858008
      13        0.000026104728    -0.000014093870     0.000001036340
      14       -0.000002048928     0.000004075962    -0.000002729797
      15       -0.000004139915     0.000014685102    -0.000017594848
      16       -0.000010951739     0.000009146497     0.000010029371
      17        0.000004342769     0.000001269394     0.000011402956
      18       -0.000006159382    -0.000023163725    -0.000000547277
      19        0.000004178100    -0.000001656381    -0.000012886184

  **** Optimization is complete! (in 5 steps) ****
    Final optimized geometry and variables:
    Molecular point group: c1

    Geometry (in Angstrom), charge = 0, multiplicity = 1:

    H           -2.593442357994    -0.675848207304     0.476084459800
    O           -2.333835958631     0.016332263724    -0.102188907058
    C           -0.944942823864    -0.025666629964    -0.332021677092
    H           -0.809770049792    -0.160642011597    -1.401053179748
    C           -0.265496680003    -1.185481328773     0.378695426607
    C           -0.314376591400     1.307848090682     0.088320585579
    H           -0.339712289360    -1.025467716957     1.451663482634
    H           -0.790169738660    -2.110611773414     0.161701815590
    C            1.210768285096    -1.306005134274    -0.040981683738
    H           -0.485953725545     2.039354801099    -0.693300074197
    H           -0.842663901017     1.662793496712     0.964953031765
    C            1.190414044786     1.185429936232     0.389535931449
    H            1.772102748927    -1.756168895494     0.769850337008
    H            1.297175851760    -1.981888188413    -0.884183559564
    C            1.829307757362     0.054041664648    -0.411132587279
    H            1.688551274411     2.125228880170     0.183131440801
    H            1.338089091860     0.990412659208     1.447714213564
    H            2.900149190387     0.027859212716    -0.246489429008
    H            1.689317495108     0.246584345007    -1.470505279665

  Mulliken Charges: (a.u.)
   Center  Symbol    Alpha    Beta     Spin     Total
       1     H     0.39144  0.39144  0.00000  0.21712
       2     O     4.21047  4.21047  0.00000 -0.42094
       3     C     2.92650  2.92650  0.00000  0.14701
       4     H     0.45435  0.45435  0.00000  0.09131
       5     C     3.11614  3.11614  0.00000 -0.23229
       6     C     3.10710  3.10710  0.00000 -0.21420
       7     H     0.45322  0.45322  0.00000  0.09357
       8     H     0.44448  0.44448  0.00000  0.11104
       9     C     3.11306  3.11306  0.00000 -0.22611
      10     H     0.44688  0.44688  0.00000  0.10624
      11     H     0.44774  0.44774  0.00000  0.10451
      12     C     3.10159  3.10159  0.00000 -0.20319
      13     H     0.44713  0.44713  0.00000  0.10573
      14     H     0.44604  0.44604  0.00000  0.10792
      15     C     3.10191  3.10191  0.00000 -0.20382
      16     H     0.44191  0.44191  0.00000  0.11617
      17     H     0.45453  0.45453  0.00000  0.09094
      18     H     0.44271  0.44271  0.00000  0.11457
      19     H     0.45279  0.45279  0.00000  0.09442

   Total alpha = 28.00000, Total beta = 28.00000, Total charge = -0.00000

*** Psi4 exiting successfully. Buy a developer a beer!
