  ==> Input File <==

--------------------------------------------------------------------------
set {
	reference rhf
	basis 6-31G*
}

set_num_threads( 4 )
memory 2 gb

molecule MOL {
0 1

O	 2.862325	 1.357334	 0.000267
C	 2.843464	 0.164689	 -0.000222
C	 1.546494	 -0.624492	 -0.000609
C	 4.124123	 -0.644674	 -0.000428
C	 0.291004	 0.242674	 0.000989
H	 1.557904	 -1.283758	 -0.867573
H	 1.558622	 -1.285963	 0.864672
C	 0.004008	 0.856260	 1.372451
H	 -0.555402	 -0.356233	 -0.320004
H	 0.400557	 1.028642	 -0.739552
C	 -1.253580	 1.726898	 1.386344
H	 -0.101264	 0.062730	 2.110878
H	 0.857434	 1.454187	 1.689018
C	 -1.547472	 2.344143	 2.754792
H	 -2.107475	 1.130016	 1.070729
H	 -1.149104	 2.521022	 0.649154
C	 -2.805279	 3.212228	 2.760725
H	 -1.653295	 1.551239	 3.492307
H	 -0.695223	 2.942262	 3.070677
H	 -3.681739	 2.634233	 2.481636
H	 -2.987394	 3.634955	 3.744003
H	 -2.716439	 4.035789	 2.057874
H	 4.165367	 -1.288615	 -0.874074
H	 4.976217	 0.020734	 -0.001915
H	 4.166763	 -1.286207	 0.874930

	symmetry c1
}
set optking {
	frozen_dihedral = ("
		9 5 3 6
	")
}

ee = optimize('scf')
oeprop('DIPOLE', 'QUADRUPOLE', 'MULLIKEN_CHARGES')
f=open( 'psi4out.xyz', 'w' )
f.write( "25  " )
f.write( str(ee) + "\n" )
f.write( MOL.save_string_xyz() )
f.close()
--------------------------------------------------------------------------

    Molecular point group: c1
  Charge       = 0
  Multiplicity = 1
  Basis Set: 6-31G*
  Basis Set:
  @DF-RHF Final Energy:  -387.13562529490042
    Total Energy =                       -387.1356252948999099
    Molecular point group: c1
  Basis Set: 6-31G*
  Basis Set:
  Basis Set: 6-31G*
  Basis Set:
  @DF-RHF Final Energy:  -387.13575931723869
    Total Energy =                       -387.1357593172382394
  Basis Set: 6-31G*
  Basis Set:
  Basis Set: 6-31G*
  Basis Set:
  @DF-RHF Final Energy:  -387.13403248178997
    Total Energy =                       -387.1340324817902001
  Basis Set: 6-31G*
  Basis Set:
  Basis Set: 6-31G*
  Basis Set:
  @DF-RHF Final Energy:  -387.13588177441198
    Total Energy =                       -387.1358817744122689
  Basis Set: 6-31G*
  Basis Set:
  @DF-RHF Final Energy:  -387.13591097366856
    Total Energy =                       -387.1359109736681603
  @DF-RHF Final Energy:  -387.13592543757107
    Total Energy =                       -387.1359254375709043
  Basis Set: 6-31G*
  Basis Set:
  @DF-RHF Final Energy:  -387.13593804300473
    Total Energy =                       -387.1359380430046713
  Basis Set: 6-31G*
  Basis Set:
  Basis Set: 6-31G*
  Basis Set:
  @DF-RHF Final Energy:  -387.13594733754496
    Total Energy =                       -387.1359473375441667
  Basis Set: 6-31G*
  Basis Set:
  Basis Set: 6-31G*
  Basis Set:
  @DF-RHF Final Energy:  -387.13595119419517
    Total Energy =                       -387.1359511941952860
  Basis Set: 6-31G*
  Basis Set:
  Charge       = 0
  Multiplicity = 1
  Basis Set: 6-31G*
  Basis Set:

    Orbital Energies (a.u.)
    -----------------------

    Doubly Occupied:

       1A    -20.551294     2A    -11.327446     3A    -11.232207
       4A    -11.228961     5A    -11.216960     6A    -11.211913
       7A    -11.211097     8A    -11.209895     9A    -11.205700
      10A     -1.396679    11A     -1.090663    12A     -1.054608
      13A     -1.013706    14A     -0.967379    15A     -0.888724
      16A     -0.814946    17A     -0.787626    18A     -0.728126
      19A     -0.668343    20A     -0.637314    21A     -0.631783
      22A     -0.623069    23A     -0.590870    24A     -0.584871
      25A     -0.573821    26A     -0.556575    27A     -0.533584
      28A     -0.525284    29A     -0.515718    30A     -0.496828
      31A     -0.481539    32A     -0.474330    33A     -0.460331
      34A     -0.458466    35A     -0.439893    36A     -0.401388

  @DF-RHF Final Energy:  -387.13595198292575

   => Energetics <=

    Nuclear Repulsion Energy =            447.3008348584264127
    One-Electron Energy =               -1411.2897049140447052
    Two-Electron Energy =                 576.8529180726925460
    DFT Exchange-Correlation Energy =       0.0000000000000000
    Empirical Dispersion Energy =           0.0000000000000000
    PCM Polarization Energy =               0.0000000000000000
    EFP Energy =                            0.0000000000000000
    Total Energy =                       -387.1359519829256897
    Molecular point group: c1
  Basis Set: 6-31G*
  Basis Set:

  -Total Gradient:
     Atom            X                  Y                   Z
    ------   -----------------  -----------------  -----------------
       1        0.000052786585     0.000019998031     0.000045181575
       2        0.000113124582    -0.000063986768    -0.000236118624
       3        0.000879232838     0.001296125984    -0.001158186570
       4        0.000013746597     0.000064431981     0.000042699934
       5       -0.000469606960    -0.000727162981     0.001813505648
       6       -0.000635430093    -0.000967402293     0.000750342279
       7       -0.000041320338    -0.000035735877     0.000009885991
       8        0.000015630584     0.000072375843     0.000056592901
       9        0.000187314094     0.000383248213    -0.001327185470
      10        0.000019600625    -0.000020697202     0.000010499915
      11        0.000025711274     0.000017552761     0.000007352755
      12       -0.000012473107    -0.000017798449    -0.000011638803
      13       -0.000057674237    -0.000018539227    -0.000029013913
      14       -0.000033315196    -0.000036135673    -0.000000757837
      15        0.000000177975    -0.000001446374     0.000008347686
      16       -0.000020164085     0.000010555459    -0.000003770532
      17        0.000013360901     0.000034060180     0.000006093214
      18       -0.000010753084    -0.000007503839     0.000003818584
      19       -0.000005974870    -0.000014127905     0.000001574421
      20        0.000005090092    -0.000006097303     0.000013052984
      21        0.000001145325     0.000015972129    -0.000002430908
      22       -0.000009059655    -0.000002946255    -0.000010067806
      23       -0.000026192055     0.000021056909    -0.000007034124
      24        0.000003444207    -0.000001320993    -0.000004541255
      25       -0.000008402006    -0.000014476354     0.000021797957

  **** Optimization is complete! (in 10 steps) ****
    Final optimized geometry and variables:
    Molecular point group: c1

    Geometry (in Angstrom), charge = 0, multiplicity = 1:

    O            2.213059296896     0.381264500129    -1.122138080306
    C            2.174650889369    -0.802888297793    -0.981984221911
    C            0.868554467911    -1.578830995487    -0.958814225979
    C            3.440945872296    -1.618293802329    -0.823041372302
    C           -0.389350586002    -0.711231479206    -0.911886682985
    H            0.860280237167    -2.214321874611    -1.843408458522
    H            0.894515678322    -2.268968853699    -0.116981146870
    C           -0.674396716266    -0.119206876818     0.469611010807
    H           -1.236658021701    -1.311697797486    -1.234113175472
    H           -0.286360394861     0.090410412181    -1.634994753768
    C           -1.928035088057     0.756462080674     0.494671609571
    H           -0.787348952039    -0.927988106191     1.190892499845
    H            0.180166509733     0.469394821715     0.790602641938
    C           -2.226081596442     1.345439428573     1.874655897292
    H           -2.784733850643     0.172065814489     0.161766576324
    H           -1.813065463067     1.566196972707    -0.223377639974
    C           -3.474653361443     2.226658392365     1.891223314874
    H           -2.345743626282     0.537312272847     2.593488900128
    H           -1.369863135341     1.927037317194     2.209077545418
    H           -4.355879885322     1.663961376949     1.595782211745
    H           -3.657985292270     2.631645422665     2.881760444502
    H           -3.372702908092     3.063146139106     1.205670980786
    H            3.445371858224    -2.467374353497    -1.499450402939
    H            4.303930943680    -0.994799156037    -1.011113211138
    H            3.497856328629    -2.011027998312     0.188561813177

  Mulliken Charges: (a.u.)
   Center  Symbol    Alpha    Beta     Spin     Total
       1     O     4.26258  4.26258  0.00000 -0.52516
       2     C     2.73516  2.73516  0.00000  0.52967
       3     C     3.21259  3.21259  0.00000 -0.42518
       4     C     3.28703  3.28703  0.00000 -0.57405
       5     C     3.15163  3.15163  0.00000 -0.30326
       6     H     0.40543  0.40543  0.00000  0.18914
       7     H     0.41131  0.41131  0.00000  0.17739
       8     C     3.15593  3.15593  0.00000 -0.31185
       9     H     0.42117  0.42117  0.00000  0.15766
      10     H     0.40601  0.40601  0.00000  0.18798
      11     C     3.15155  3.15155  0.00000 -0.30310
      12     H     0.42800  0.42800  0.00000  0.14400
      13     H     0.41167  0.41167  0.00000  0.17665
      14     C     3.15159  3.15159  0.00000 -0.30319
      15     H     0.42582  0.42582  0.00000  0.14836
      16     H     0.42046  0.42046  0.00000  0.15908
      17     C     3.23930  3.23930  0.00000 -0.47859
      18     H     0.42453  0.42453  0.00000  0.15095
      19     H     0.42153  0.42153  0.00000  0.15693
      20     H     0.42260  0.42260  0.00000  0.15481
      21     H     0.41984  0.41984  0.00000  0.16031
      22     H     0.42108  0.42108  0.00000  0.15785
      23     H     0.41015  0.41015  0.00000  0.17970
      24     H     0.39656  0.39656  0.00000  0.20687
      25     H     0.40648  0.40648  0.00000  0.18704

   Total alpha = 36.00000, Total beta = 36.00000, Total charge =  0.00000
