                              Psi4 1.0.54 Driver

  ==> Input File <==

--------------------------------------------------------------------------
set {
	reference rhf
	basis cc-pvtz
}

set_num_threads( 4 )
memory 2 gb

molecule MOL {
0 1

H	 1.166964	 -1.062386	 0.758429
O	 1.324748	 -0.612467	 -0.052206
C	 0.706474	 0.636793	 -0.025501
C	 -0.795092	 0.592702	 -0.056934
H	 1.065673	 1.175403	 -0.894510
H	 1.023120	 1.207674	 0.845435
C	 -1.529886	 -0.486653	 -0.209830
H	 -1.274821	 1.550855	 0.057316
H	 -1.089004	 -1.456033	 -0.343612
H	 -2.601732	 -0.430770	 -0.219029

	symmetry c1
}
set optking {
	frozen_dihedral = ("
		5 3 2 1
	")
}

ee,wfn = optimize('scf', return_wfn=True)
oeprop( wfn, 'DIPOLE', 'QUADRUPOLE', 'MULLIKEN_CHARGES')
f=open( 'psi4out.xyz', 'w' )
f.write( "10  " )
f.write( str(ee) + "\n" )
f.write( MOL.save_string_xyz() )
f.close()
--------------------------------------------------------------------------

    Molecular point group: c1
  Charge       = 0
  Multiplicity = 1
  Basis Set: CC-PVTZ
  Basis Set:
  @DF-RHF Final Energy:  -191.99882222069377
    Total Energy =                       -191.9988222206937394
    Molecular point group: c1
  Basis Set: CC-PVTZ
  Basis Set:
  Basis Set: CC-PVTZ
  Basis Set:
  @DF-RHF Final Energy:  -191.99882649480702
    Total Energy =                       -191.9988264948071048
  Basis Set: CC-PVTZ
  Basis Set:
  Charge       = 0
  Multiplicity = 1
  Basis Set: CC-PVTZ
  Basis Set:

    Orbital Energies (a.u.)
    -----------------------

    Doubly Occupied:

       1A    -20.554592     2A    -11.278242     3A    -11.229628
       4A    -11.215812     5A     -1.374886     6A     -1.061795
       7A     -0.931881     8A     -0.770993     9A     -0.693531
      10A     -0.664857    11A     -0.620207    12A     -0.574526
      13A     -0.538251    14A     -0.498376    15A     -0.451948
      16A     -0.368460

  @DF-RHF Final Energy:  -191.99882714187993

   => Energetics <=

    Nuclear Repulsion Energy =            119.5176783645814425
    One-Electron Energy =                -497.3770392095146349
    Two-Electron Energy =                 185.8605337030531928
    DFT Exchange-Correlation Energy =       0.0000000000000000
    Empirical Dispersion Energy =           0.0000000000000000
    PCM Polarization Energy =               0.0000000000000000
    EFP Energy =                            0.0000000000000000
    Total Energy =                       -191.9988271418799854
    Molecular point group: c1
  Basis Set: CC-PVTZ
  Basis Set:

  -Total Gradient:
     Atom            X                  Y                   Z
    ------   -----------------  -----------------  -----------------
       1        0.000373356887     0.000179845165     0.000158025557
       2       -0.000378236862    -0.000209939219    -0.000149943448
       3       -0.000256273651    -0.000121336375    -0.000188158779
       4       -0.000043142013    -0.000009241369    -0.000030757675
       5        0.000284921890     0.000139441680     0.000217835214
       6        0.000018488996     0.000001263915    -0.000018323611
       7        0.000022566224     0.000011711137     0.000035155777
       8       -0.000014128145     0.000000005550    -0.000003688575
       9       -0.000000980036     0.000006990498    -0.000016420209
      10       -0.000006573290     0.000001259017    -0.000003724250

  **** Optimization is complete! (in 3 steps) ****
    Final optimized geometry and variables:
    Molecular point group: c1

    Geometry (in Angstrom), charge = 0, multiplicity = 1:

    H            1.160456895884    -1.068883135669     0.825027663362
    O            1.322490041305    -0.615998459253     0.017109964927
    C            0.706314947634     0.634663967705     0.045297416240
    C           -0.795290889809     0.592608979767     0.010617322259
    H            1.070091575045     1.176326290767    -0.819898295435
    H            1.022178476387     1.202759770558     0.918328506844
    C           -1.530043389394    -0.487895345304    -0.132267807439
    H           -1.274269322378     1.552482519657     0.113378533655
    H           -1.088084140187    -1.458221072061    -0.254028650919
    H           -2.601864331049    -0.431764247399    -0.145232405940

  Mulliken Charges: (a.u.)
   Center  Symbol    Alpha    Beta     Spin     Total
       1     H     0.39112  0.39112  0.00000  0.21776
       2     O     4.19912  4.19912  0.00000 -0.39824
       3     C     2.95104  2.95104  0.00000  0.09792
       4     C     3.08478  3.08478  0.00000 -0.16956
       5     H     0.45334  0.45334  0.00000  0.09331
       6     H     0.46840  0.46840  0.00000  0.06320
       7     C     3.17692  3.17692  0.00000 -0.35384
       8     H     0.42335  0.42335  0.00000  0.15330
       9     H     0.42379  0.42379  0.00000  0.15242
      10     H     0.42813  0.42813  0.00000  0.14373

   Total alpha = 16.00000, Total beta = 16.00000, Total charge = -0.00000

*** Psi4 exiting successfully. Buy a developer a beer!
