  ==> Input File <==

--------------------------------------------------------------------------
set {
	reference rhf
	basis 6-31G*
}

set_num_threads( 4 )
memory 2 gb

molecule MOL {
0 1

H	 3.622375	 0.015710	 -0.877809
N	 3.092854	 -0.246221	 -0.068770
C	 1.865559	 0.531981	 0.018834
H	 3.676281	 -0.072527	 0.727643
C	 0.645745	 -0.382037	 -0.029944
H	 1.841966	 1.207024	 -0.831236
H	 1.815756	 1.155410	 0.915079
C	 -0.679275	 0.379305	 0.025956
H	 0.698998	 -0.976915	 -0.937203
H	 0.693479	 -1.083846	 0.802235
C	 -1.903357	 -0.536963	 -0.023547
H	 -0.726309	 1.082987	 -0.803784
H	 -0.717680	 0.977832	 0.934877
C	 -3.225172	 0.228290	 0.028445
H	 -1.867824	 -1.134999	 -0.931459
H	 -1.860449	 -1.239604	 0.805977
H	 -3.313397	 0.915643	 -0.808262
H	 -4.073500	 -0.448134	 -0.008893
H	 -3.306061	 0.809945	 0.942516

	symmetry c1
}
set optking {
	frozen_dihedral = ("
		1 2 3 6
	")
}

ee = optimize('scf')
oeprop('DIPOLE', 'QUADRUPOLE', 'MULLIKEN_CHARGES')
f=open( 'psi4out.xyz', 'w' )
f.write( "19  " )
f.write( str(ee) + "\n" )
f.write( MOL.save_string_xyz() )
f.close()
--------------------------------------------------------------------------

    Molecular point group: c1
  Charge       = 0
  Multiplicity = 1
  Basis Set: 6-31G*
  Basis Set:
  @DF-RHF Final Energy:  -251.34764427357860
    Total Energy =                       -251.3476442735785668
    Molecular point group: c1
  Basis Set: 6-31G*
  Basis Set:
  Basis Set: 6-31G*
  Basis Set:
  @DF-RHF Final Energy:  -251.34825795205717
    Total Energy =                       -251.3482579520572244
  Basis Set: 6-31G*
  Basis Set:
  Basis Set: 6-31G*
  Basis Set:
  @DF-RHF Final Energy:  -251.34845563171302
    Total Energy =                       -251.3484556317129659
  Basis Set: 6-31G*
  Basis Set:
  Basis Set: 6-31G*
  Basis Set:
  @DF-RHF Final Energy:  -251.34845739372051
    Total Energy =                       -251.3484573937204800
  Basis Set: 6-31G*
  Basis Set:
  Basis Set: 6-31G*
  Basis Set:
  @DF-RHF Final Energy:  -251.34845979280368
    Total Energy =                       -251.3484597928036806
  Basis Set: 6-31G*
  Basis Set:
  Charge       = 0
  Multiplicity = 1
  Basis Set: 6-31G*
  Basis Set:

    Orbital Energies (a.u.)
    -----------------------

    Doubly Occupied:

       1A    -15.530490     2A    -11.240530     3A    -11.211550
       4A    -11.209450     5A    -11.205796     6A    -11.202351
       7A     -1.172435     8A     -1.070136     9A     -0.996433
      10A     -0.899460    11A     -0.809879    12A     -0.784691
      13A     -0.675531    14A     -0.634129    15A     -0.613359
      16A     -0.576576    17A     -0.569274    18A     -0.553884
      19A     -0.516576    20A     -0.505243    21A     -0.471714
      22A     -0.462067    23A     -0.456397    24A     -0.455793
      25A     -0.375546

  @DF-RHF Final Energy:  -251.34845990562147

   => Energetics <=

    Nuclear Repulsion Energy =            245.1244129196287247
    One-Electron Energy =                -824.5471651177465446
    Two-Electron Energy =                 328.0742922924964091
    DFT Exchange-Correlation Energy =       0.0000000000000000
    Empirical Dispersion Energy =           0.0000000000000000
    PCM Polarization Energy =               0.0000000000000000
    EFP Energy =                            0.0000000000000000
    Total Energy =                       -251.3484599056213824
    Molecular point group: c1
  Basis Set: 6-31G*
  Basis Set:

  -Total Gradient:
     Atom            X                  Y                   Z
    ------   -----------------  -----------------  -----------------
       1       -0.000139786830    -0.000188234307    -0.000162564676
       2        0.000194808185     0.000269263105     0.000233574428
       3       -0.000197387072    -0.000252620593    -0.000208619740
       4        0.000005980126     0.000003883068     0.000005430695
       5        0.000011102914     0.000002867785    -0.000007551467
       6        0.000124879505     0.000169451902     0.000139774558
       7        0.000002612875     0.000001153444     0.000005505159
       8       -0.000000246644    -0.000004457099    -0.000003976649
       9       -0.000000453301     0.000000471920    -0.000001057973
      10       -0.000002952960    -0.000000859737    -0.000001036353
      11       -0.000005212949     0.000000702546     0.000004289203
      12        0.000006748370    -0.000003902228    -0.000004838530
      13       -0.000004782936     0.000001920701    -0.000004636219
      14        0.000002269094    -0.000000275754     0.000006931549
      15       -0.000000150942     0.000005054389    -0.000001667910
      16        0.000001616531    -0.000004543804    -0.000000901974
      17        0.000000923397    -0.000001029327    -0.000000168968
      18        0.000001608677    -0.000000454122     0.000000826473
      19       -0.000001576041     0.000001608109     0.000000688394

  **** Optimization is complete! (in 6 steps) ****
    Final optimized geometry and variables:
    Molecular point group: c1

    Geometry (in Angstrom), charge = 0, multiplicity = 1:

    H            3.668144285580     0.022202369051    -0.831205454299
    N            3.105880254779    -0.240486362077    -0.048151211363
    C            1.861237676656     0.525779499220     0.008238200949
    H            3.659387635591    -0.110996204723     0.773595756681
    C            0.639886269657    -0.389157992937    -0.029996395870
    H            1.812909748385     1.225352327421    -0.823003041754
    H            1.827724629646     1.131353926877     0.911450959105
    C           -0.685025793660     0.372015478129     0.027526748389
    H            0.686238912784    -0.989387642812    -0.935305417949
    H            0.704512183360    -1.087197747425     0.801227868422
    C           -1.910273775558    -0.543391592206    -0.009667722866
    H           -0.738460367251     1.072798710252    -0.804949210236
    H           -0.718921375525     0.975886081379     0.933694485628
    C           -3.231692675808     0.222046382870     0.049517687830
    H           -1.881715838474    -1.144777403863    -0.915670265730
    H           -1.860942610466    -1.243212652514     0.821697118591
    H           -3.326440922575     0.906413824132    -0.789011003752
    H           -4.080575287716    -0.454298417100     0.021346866680
    H           -3.305505087442     0.807213499070     0.961989251354

  Mulliken Charges: (a.u.)
   Center  Symbol    Alpha    Beta     Spin     Total
       1     H     0.33105  0.33105  0.00000  0.33791
       2     N     3.92803  3.92803  0.00000 -0.85606
       3     C     3.06755  3.06755  0.00000 -0.13510
       4     H     0.33116  0.33116  0.00000  0.33768
       5     C     3.13890  3.13890  0.00000 -0.27780
       6     H     0.42593  0.42593  0.00000  0.14814
       7     H     0.42651  0.42651  0.00000  0.14699
       8     C     3.15719  3.15719  0.00000 -0.31439
       9     H     0.42093  0.42093  0.00000  0.15815
      10     H     0.42154  0.42154  0.00000  0.15692
      11     C     3.15012  3.15012  0.00000 -0.30023
      12     H     0.42597  0.42597  0.00000  0.14805
      13     H     0.42602  0.42602  0.00000  0.14797
      14     C     3.23906  3.23906  0.00000 -0.47813
      15     H     0.42264  0.42264  0.00000  0.15472
      16     H     0.42270  0.42270  0.00000  0.15460
      17     H     0.42247  0.42247  0.00000  0.15507
      18     H     0.41976  0.41976  0.00000  0.16049
      19     H     0.42248  0.42248  0.00000  0.15503

   Total alpha = 25.00000, Total beta = 25.00000, Total charge =  0.00000
