  ==> Input File <==

--------------------------------------------------------------------------
set {
	reference rhf
	basis cc-pvtz
}

set_num_threads( 4 )
memory 2 gb

molecule MOL {
0 1

H	 -1.752232	 -2.214755	 -0.011938
C	 -1.343852	 -1.221619	 -0.018179
N	 -0.058800	 -1.097635	 -0.261688
C	 -2.148159	 -0.124236	 0.219734
C	 0.449026	 0.119242	 -0.273393
H	 -3.196988	 -0.237571	 0.417076
N	 -1.655094	 1.094230	 0.209506
C	 -0.370318	 1.215445	 -0.035100
C	 1.924033	 0.265863	 -0.538106
H	 0.033214	 2.210441	 -0.046812
C	 2.704241	 -1.018729	 -0.254294
H	 2.054643	 0.543975	 -1.577027
H	 2.318340	 1.076184	 0.063656
H	 3.753589	 -0.884626	 -0.488432
H	 2.323593	 -1.835763	 -0.853078
H	 2.626268	 -1.300077	 0.789884

	symmetry c1
}
set optking {
	frozen_dihedral = ("
		12 9 5 3
	")
}

ee = optimize('scf')
oeprop('DIPOLE', 'QUADRUPOLE', 'MULLIKEN_CHARGES')
f=open( 'psi4out.xyz', 'w' )
f.write( "16  " )
f.write( str(ee) + "\n" )
f.write( MOL.save_string_xyz() )
f.close()
--------------------------------------------------------------------------

    Molecular point group: c1
  Charge       = 0
  Multiplicity = 1
  Basis Set: CC-PVTZ
  Basis Set:
  @DF-RHF Final Energy:  -340.87037732218590
    Total Energy =                       -340.8703773221861297
    Molecular point group: c1
  Basis Set: CC-PVTZ
  Basis Set:
  Basis Set: CC-PVTZ
  Basis Set:
  @DF-RHF Final Energy:  -340.87094825098683
    Total Energy =                       -340.8709482509865438
  Basis Set: CC-PVTZ
  Basis Set:
  Basis Set: CC-PVTZ
  Basis Set:
  @DF-RHF Final Energy:  -340.87111599534967
    Total Energy =                       -340.8711159953500101
  Basis Set: CC-PVTZ
  Basis Set:
  Basis Set: CC-PVTZ
  Basis Set:
  @DF-RHF Final Energy:  -340.87113955338231
    Total Energy =                       -340.8711395533824202
  Basis Set: CC-PVTZ
  Basis Set:
  Basis Set: CC-PVTZ
  Basis Set:
  @DF-RHF Final Energy:  -340.87115181521926
    Total Energy =                       -340.8711518152194913
  Basis Set: CC-PVTZ
  Basis Set:
  Basis Set: CC-PVTZ
  Basis Set:
  @DF-RHF Final Energy:  -340.87115469403597
    Total Energy =                       -340.8711546940358517
  Basis Set: CC-PVTZ
  Basis Set:
  Charge       = 0
  Multiplicity = 1
  Basis Set: CC-PVTZ
  Basis Set:

    Orbital Energies (a.u.)
    -----------------------

    Doubly Occupied:

       1A    -15.580407     2A    -15.575100     3A    -11.280202
       4A    -11.271119     5A    -11.269026     6A    -11.266397
       7A    -11.233360     8A    -11.211427     9A     -1.315911
      10A     -1.223985    11A     -1.084884    12A     -1.015126
      13A     -0.911750    14A     -0.890969    15A     -0.825683
      16A     -0.720444    17A     -0.708912    18A     -0.658421
      19A     -0.627935    20A     -0.604075    21A     -0.571208
      22A     -0.561014    23A     -0.523436    24A     -0.504349
      25A     -0.501968    26A     -0.487565    27A     -0.434633
      28A     -0.397210    29A     -0.345851

  @DF-RHF Final Energy:  -340.87115543227804

   => Energetics <=

    Nuclear Repulsion Energy =            350.4014574311015053
    One-Electron Energy =               -1155.3404920631810455
    Two-Electron Energy =                 464.0678791998016095
    DFT Exchange-Correlation Energy =       0.0000000000000000
    Empirical Dispersion Energy =           0.0000000000000000
    PCM Polarization Energy =               0.0000000000000000
    EFP Energy =                            0.0000000000000000
    Total Energy =                       -340.8711554322778738
    Molecular point group: c1
  Basis Set: CC-PVTZ
  Basis Set:

  -Total Gradient:
     Atom            X                  Y                   Z
    ------   -----------------  -----------------  -----------------
       1        0.000017505854    -0.000004456559     0.000000952494
       2       -0.000021650790     0.000004483534    -0.000021783135
       3        0.000075479456    -0.000055493241     0.000451810238
       4        0.000049505186    -0.000022530186    -0.000017714620
       5       -0.000152642871     0.000142038493    -0.000592422810
       6        0.000005574731     0.000005685555     0.000018440533
       7        0.000068763410     0.000036905972    -0.000032249476
       8       -0.000061124207    -0.000004141807     0.000044408697
       9        0.000114302253    -0.000564069283     0.000009934343
      10       -0.000004056999     0.000015409635     0.000002998776
      11       -0.000031826365    -0.000020039923    -0.000015263932
      12       -0.000038890630     0.000462839378     0.000128307798
      13       -0.000027024515     0.000009928150    -0.000002253787
      14       -0.000016685557     0.000010977448     0.000014319365
      15        0.000014712352    -0.000007270266    -0.000003807977
      16        0.000008058696    -0.000010266901     0.000014323494

  **** Optimization is complete! (in 7 steps) ****
    Final optimized geometry and variables:
    Molecular point group: c1

    Geometry (in Angstrom), charge = 0, multiplicity = 1:

    H           -1.799720554656    -2.084175009810     0.118748928802
    C           -1.373220153098    -1.099077008265     0.108251451277
    N           -0.076903320674    -1.004817356612    -0.121606681243
    C           -2.152831772891     0.011535335646     0.328671354242
    C            0.456383345819     0.193788652266    -0.135586286854
    H           -3.205894124485    -0.074699830303     0.514966633551
    N           -1.629023395577     1.223649042132     0.322609913954
    C           -0.344649301706     1.313091433313     0.096157582904
    C            1.931310515351     0.351732391925    -0.421589124046
    H            0.086176430936     2.297337644215     0.095727747409
    C            2.769741829730    -0.889490458768    -0.144062942540
    H            2.044141640042     0.642804932450    -1.462631232707
    H            2.304568498095     1.187211001858     0.160747994660
    H            3.812875540695    -0.683738658095    -0.352428754821
    H            2.454816278383    -1.721125604926    -0.757740700845
    H            2.684852803922    -1.194136032264     0.892028144858

  Mulliken Charges: (a.u.)
   Center  Symbol    Alpha    Beta     Spin     Total
       1     H     0.41462  0.41462  0.00000  0.17076
       2     C     3.04616  3.04616  0.00000 -0.09233
       3     N     3.59006  3.59006  0.00000 -0.18013
       4     C     3.04728  3.04728  0.00000 -0.09456
       5     C     2.94491  2.94491  0.00000  0.11018
       6     H     0.41367  0.41367  0.00000  0.17267
       7     N     3.58677  3.58677  0.00000 -0.17353
       8     C     3.07531  3.07531  0.00000 -0.15063
       9     C     3.07908  3.07908  0.00000 -0.15816
      10     H     0.41655  0.41655  0.00000  0.16689
      11     C     3.14418  3.14418  0.00000 -0.28835
      12     H     0.44635  0.44635  0.00000  0.10730
      13     H     0.44818  0.44818  0.00000  0.10365
      14     H     0.45021  0.45021  0.00000  0.09958
      15     H     0.44480  0.44480  0.00000  0.11040
      16     H     0.45187  0.45187  0.00000  0.09625

   Total alpha = 29.00000, Total beta = 29.00000, Total charge = -0.00000
