                              Psi4 1.0.54 Driver

  ==> Input File <==

--------------------------------------------------------------------------
set {
	reference rhf
	basis cc-pvtz
}

set_num_threads( 4 )
memory 2 gb

molecule MOL {
0 1

O	 1.847685	 1.294399	 -0.000190
C	 1.704209	 0.119472	 -0.000093
C	 0.380337	 -0.600947	 -0.000234
O	 2.715427	 -0.733672	 0.000025
C	 -0.824290	 0.329213	 -0.000115
H	 0.371455	 -1.255476	 -0.865660
H	 0.371410	 -1.255787	 0.864952
C	 -1.036871	 1.003948	 -1.351988
H	 -0.695251	 1.080852	 0.770379
H	 -1.709748	 -0.232963	 0.274134
C	 -2.241274	 1.940699	 -1.371545
H	 -0.144366	 1.563971	 -1.622282
H	 -1.162414	 0.244633	 -2.120699
C	 -2.453497	 2.615464	 -2.722494
H	 -2.116495	 2.700085	 -0.604785
H	 -3.133535	 1.382057	 -1.103311
H	 -1.590683	 3.210528	 -3.003001
H	 -3.315083	 3.272711	 -2.701740
H	 -2.616160	 1.882099	 -3.505407
C	 4.020999	 -0.192556	 0.000019
H	 4.182809	 0.412891	 -0.879449
H	 4.692590	 -1.035653	 0.000152
H	 4.182726	 0.413087	 0.879368

	symmetry c1
}
set optking {
	frozen_dihedral = ("
		9 5 3 6
	")
}

ee,wfn = optimize('scf', return_wfn=True)
oeprop( wfn, 'DIPOLE', 'QUADRUPOLE', 'MULLIKEN_CHARGES')
f=open( 'psi4out.xyz', 'w' )
f.write( "23  " )
f.write( str(ee) + "\n" )
f.write( MOL.save_string_xyz() )
f.close()
--------------------------------------------------------------------------

    Molecular point group: c1
  Charge       = 0
  Multiplicity = 1
  Basis Set: CC-PVTZ
  Basis Set:
  @DF-RHF Final Energy:  -423.12996105723550
    Total Energy =                       -423.1299610572352776
    Molecular point group: c1
  Basis Set: CC-PVTZ
  Basis Set:
  Basis Set: CC-PVTZ
  Basis Set:
  @DF-RHF Final Energy:  -423.13027586549657
    Total Energy =                       -423.1302758654964009
  Basis Set: CC-PVTZ
  Basis Set:
  Basis Set: CC-PVTZ
  Basis Set:
  @DF-RHF Final Energy:  -423.12854530986226
    Total Energy =                       -423.1285453098621474
  Basis Set: CC-PVTZ
  Basis Set:
  Basis Set: CC-PVTZ
  Basis Set:
  @DF-RHF Final Energy:  -423.13042014791006
    Total Energy =                       -423.1304201479106268
  Basis Set: CC-PVTZ
  Basis Set:
  Basis Set: CC-PVTZ
  Basis Set:
  @DF-RHF Final Energy:  -423.13046545030267
    Total Energy =                       -423.1304654503027223
  Basis Set: CC-PVTZ
  Basis Set:
  Basis Set: CC-PVTZ
  Basis Set:
  @DF-RHF Final Energy:  -423.13048296226282
    Total Energy =                       -423.1304829622625903
  Basis Set: CC-PVTZ
  Basis Set:
  Basis Set: CC-PVTZ
  Basis Set:
  @DF-RHF Final Energy:  -423.13048644434366
    Total Energy =                       -423.1304864443441147
  Basis Set: CC-PVTZ
  Basis Set:
  Charge       = 0
  Multiplicity = 1
  Basis Set: CC-PVTZ
  Basis Set:

    Orbital Energies (a.u.)
    -----------------------

    Doubly Occupied:

       1A    -20.597212     2A    -20.534640     3A    -11.365380
       4A    -11.279022     5A    -11.234074     6A    -11.217502
       7A    -11.211256     8A    -11.209980     9A    -11.204439
      10A     -1.473096    11A     -1.366429    12A     -1.092183
      13A     -1.042623    14A     -0.987068    15A     -0.931134
      16A     -0.843942    17A     -0.794142    18A     -0.768254
      19A     -0.704001    20A     -0.684176    21A     -0.675692
      22A     -0.641111    23A     -0.614099    24A     -0.600380
      25A     -0.569463    26A     -0.559016    27A     -0.553810
      28A     -0.531763    29A     -0.524236    30A     -0.500576
      31A     -0.492300    32A     -0.467306    33A     -0.465179
      34A     -0.458644    35A     -0.452309    36A     -0.439519

  @DF-RHF Final Energy:  -423.13048690437768

   => Energetics <=

    Nuclear Repulsion Energy =            462.9816606657966531
    One-Electron Energy =               -1494.0523889878052159
    Two-Electron Energy =                 607.9402414176311140
    DFT Exchange-Correlation Energy =       0.0000000000000000
    Empirical Dispersion Energy =           0.0000000000000000
    PCM Polarization Energy =               0.0000000000000000
    EFP Energy =                            0.0000000000000000
    Total Energy =                       -423.1304869043774488
    Molecular point group: c1
  Basis Set: CC-PVTZ
  Basis Set:

  -Total Gradient:
     Atom            X                  Y                   Z
    ------   -----------------  -----------------  -----------------
       1       -0.000031665826     0.000014589043     0.000008519395
       2        0.000036104565    -0.000044175692    -0.000018689024
       3       -0.000417296877    -0.000463850873     0.000371794157
       4       -0.000017698119     0.000027261446     0.000006765338
       5       -0.000310519404    -0.000399171068     0.000501353769
       6        0.000396652968     0.000486643567    -0.000390564876
       7       -0.000003608021    -0.000013651087     0.000005427716
       8       -0.000006250728    -0.000008416040    -0.000017876405
       9        0.000352274992     0.000436507500    -0.000470649232
      10       -0.000001308524    -0.000007585946    -0.000000118015
      11        0.000004797336    -0.000002391955     0.000008077572
      12       -0.000004390409     0.000001148661     0.000001926725
      13       -0.000001401882    -0.000006044559    -0.000011102665
      14        0.000010222662    -0.000000204510     0.000000632159
      15       -0.000003617778     0.000001994839     0.000003421513
      16        0.000001852692    -0.000004962410    -0.000001380842
      17        0.000000382967     0.000000262361    -0.000003085670
      18        0.000001971226    -0.000000419609     0.000004416884
      19       -0.000001333469    -0.000000169165     0.000001028933
      20        0.000022509207     0.000004180872     0.000000985530
      21       -0.000010493017    -0.000014803825     0.000013539632
      22       -0.000009489639    -0.000002449412    -0.000001479518
      23       -0.000007694917    -0.000004292144    -0.000012943074

  **** Optimization is complete! (in 8 steps) ****
    Final optimized geometry and variables:
    Molecular point group: c1

    Geometry (in Angstrom), charge = 0, multiplicity = 1:

    O            1.370364271702     0.624107748182     0.865225233102
    C            1.212325240645    -0.531267957646     0.659931281387
    C           -0.118838596454    -1.240879519560     0.612252624830
    O            2.212646597508    -1.374605292138     0.467521047722
    C           -1.323714794961    -0.307292244091     0.579788727800
    H           -0.106846194140    -1.906073431068    -0.243265930979
    H           -0.148347928836    -1.879407372542     1.489531821612
    C           -1.539931352512     0.368321785668    -0.772508834219
    H           -1.204947236983     0.449796741281     1.345268834007
    H           -2.207027925776    -0.884066628406     0.835495073007
    C           -2.744126210104     1.305277549797    -0.784054625406
    H           -0.650601464063     0.928262414825    -1.042345451951
    H           -1.673275319675    -0.394496264393    -1.537031142846
    C           -2.967903285708     1.974356938122    -2.135987514263
    H           -2.608966926283     2.068270297594    -0.022928731391
    H           -3.635861265171     0.749927814696    -0.505119170293
    H           -2.105927482302     2.565499153696    -2.426338562675
    H           -3.827640352196     2.634046138676    -2.110142133050
    H           -3.139796368262     1.237861634220    -2.914129277418
    C            3.524202256548    -0.851269774938     0.527123695327
    H            3.667004065227    -0.093959041339    -0.229263965888
    H            4.185087722742    -1.684038491582     0.349548555154
    H            3.719234130250    -0.420816822282     1.498148892275

  Mulliken Charges: (a.u.)
   Center  Symbol    Alpha    Beta     Spin     Total
       1     O     4.19982  4.19982  0.00000 -0.39964
       2     C     2.80368  2.80368  0.00000  0.39264
       3     C     3.11075  3.11075  0.00000 -0.22149
       4     O     4.14582  4.14582  0.00000 -0.29164
       5     C     3.09262  3.09262  0.00000 -0.18524
       6     H     0.43848  0.43848  0.00000  0.12305
       7     H     0.43255  0.43255  0.00000  0.13491
       8     C     3.08759  3.08759  0.00000 -0.17518
       9     H     0.44467  0.44467  0.00000  0.11066
      10     H     0.44647  0.44647  0.00000  0.10705
      11     C     3.08563  3.08563  0.00000 -0.17127
      12     H     0.44674  0.44674  0.00000  0.10653
      13     H     0.45787  0.45787  0.00000  0.08426
      14     C     3.15011  3.15011  0.00000 -0.30021
      15     H     0.45180  0.45180  0.00000  0.09640
      16     H     0.45600  0.45600  0.00000  0.08800
      17     H     0.45370  0.45370  0.00000  0.09259
      18     H     0.44871  0.44871  0.00000  0.10258
      19     H     0.45631  0.45631  0.00000  0.08737
      20     C     3.03669  3.03669  0.00000 -0.07337
      21     H     0.45429  0.45429  0.00000  0.09142
      22     H     0.44532  0.44532  0.00000  0.10937
      23     H     0.45439  0.45439  0.00000  0.09123

   Total alpha = 36.00000, Total beta = 36.00000, Total charge = -0.00000

*** Psi4 exiting successfully. Buy a developer a beer!
