                              Psi4 1.0.54 Driver

  ==> Input File <==

--------------------------------------------------------------------------
set {
	reference rhf
	basis cc-pvtz
}

set_num_threads( 4 )
memory 2 gb

molecule MOL {
0 1

H	 1.128311	 0.207724	 1.465118
C	 1.134565	 0.093781	 0.372499
C	 0.062554	 0.862911	 -0.350953
O	 1.948932	 -0.587720	 -0.146651
C	 -1.316311	 0.703887	 0.297165
H	 0.053122	 0.549606	 -1.386928
H	 0.354023	 1.910348	 -0.319389
C	 -1.879899	 -0.709853	 0.185996
H	 -1.998330	 1.402945	 -0.172667
H	 -1.258295	 0.994244	 1.342522
H	 -1.982117	 -1.006435	 -0.851861
H	 -2.857515	 -0.772034	 0.648643
H	 -1.238457	 -1.437026	 0.671594

	symmetry c1
}
set optking {
	frozen_dihedral = ("
		6 3 2 4
	")
}

ee,wfn = optimize('scf', return_wfn=True)
oeprop( wfn, 'DIPOLE', 'QUADRUPOLE', 'MULLIKEN_CHARGES')
f=open( 'psi4out.xyz', 'w' )
f.write( "13  " )
f.write( str(ee) + "\n" )
f.write( MOL.save_string_xyz() )
f.close()
--------------------------------------------------------------------------

    Molecular point group: c1
  Charge       = 0
  Multiplicity = 1
  Basis Set: CC-PVTZ
  Basis Set:
  @DF-RHF Final Energy:  -231.07069406037019
    Total Energy =                       -231.0706940603703288
    Molecular point group: c1
  Basis Set: CC-PVTZ
  Basis Set:
  Basis Set: CC-PVTZ
  Basis Set:
  @DF-RHF Final Energy:  -231.07046382666360
    Total Energy =                       -231.0704638266639108
  Basis Set: CC-PVTZ
  Basis Set:
  Basis Set: CC-PVTZ
  Basis Set:
  @DF-RHF Final Energy:  -231.07070521154836
    Total Energy =                       -231.0707052115485283
  Basis Set: CC-PVTZ
  Basis Set:
  Basis Set: CC-PVTZ
  Basis Set:
  @DF-RHF Final Energy:  -231.07070145530656
    Total Energy =                       -231.0707014553064482
  Basis Set: CC-PVTZ
  Basis Set:
  Charge       = 0
  Multiplicity = 1
  Basis Set: CC-PVTZ
  Basis Set:

    Orbital Energies (a.u.)
    -----------------------

    Doubly Occupied:

       1A    -20.552399     2A    -11.322092     3A    -11.236624
       4A    -11.234890     5A    -11.220349     6A     -1.407520
       7A     -1.088405     8A     -0.974138     9A     -0.848552
      10A     -0.790407    11A     -0.667093    12A     -0.651464
      13A     -0.631817    14A     -0.595965    15A     -0.561532
      16A     -0.536350    17A     -0.508221    18A     -0.493839
      19A     -0.484262    20A     -0.413008

  @DF-RHF Final Energy:  -231.07070674840986

   => Energetics <=

    Nuclear Repulsion Energy =            173.8627288184477493
    One-Electron Energy =                -657.4290148117817125
    Two-Electron Energy =                 252.4955792449239880
    DFT Exchange-Correlation Energy =       0.0000000000000000
    Empirical Dispersion Energy =           0.0000000000000000
    PCM Polarization Energy =               0.0000000000000000
    EFP Energy =                            0.0000000000000000
    Total Energy =                       -231.0707067484099753
    Molecular point group: c1
  Basis Set: CC-PVTZ
  Basis Set:

  -Total Gradient:
     Atom            X                  Y                   Z
    ------   -----------------  -----------------  -----------------
       1       -0.000029908485     0.000028031811     0.000073725332
       2       -0.000457189943    -0.000655963167     0.000140466458
       3        0.000508716702     0.000524485867    -0.000225143900
       4        0.000227815024     0.000423995736    -0.000101880625
       5        0.000037702950    -0.000033491771     0.000059111750
       6       -0.000312716922    -0.000328749700     0.000032925335
       7        0.000025610542     0.000021717519     0.000018166930
       8        0.000001790896     0.000009404718    -0.000007758933
       9        0.000009912325     0.000021884949    -0.000032334127
      10       -0.000019414215     0.000020006301     0.000053932367
      11       -0.000010218702    -0.000011355411    -0.000026951992
      12       -0.000002657117     0.000003220139     0.000001976227
      13        0.000020556950    -0.000023186991     0.000013765178

  **** Optimization is complete! (in 5 steps) ****
    Final optimized geometry and variables:
    Molecular point group: c1

    Geometry (in Angstrom), charge = 0, multiplicity = 1:

    H            1.152392661973     0.158028070466     1.391306674048
    C            1.146138952910     0.037737590215     0.299285237519
    C            0.069967690347     0.806889105815    -0.419427313327
    O            1.958857395408    -0.640626567516    -0.226245726310
    C           -1.307764757366     0.651778481292     0.229048224839
    H            0.058680693489     0.494851111135    -1.455933256375
    H            0.367137625992     1.852958465630    -0.389077700194
    C           -1.871485441399    -0.762233239090     0.120919466371
    H           -1.990213805245     1.349809940952    -0.241793889787
    H           -1.249359051518     0.944013077776     1.273905638538
    H           -1.973249450552    -1.061249442247    -0.916373039759
    H           -2.849101317706    -0.824511951256     0.583465654604
    H           -1.229961732414    -1.488350247633     0.608689548233

  Mulliken Charges: (a.u.)
   Center  Symbol    Alpha    Beta     Spin     Total
       1     H     0.46436  0.46436  0.00000  0.07127
       2     C     2.90701  2.90701  0.00000  0.18598
       3     C     3.08683  3.08683  0.00000 -0.17365
       4     O     4.16411  4.16411  0.00000 -0.32823
       5     C     3.10365  3.10365  0.00000 -0.20731
       6     H     0.44263  0.44263  0.00000  0.11474
       7     H     0.44222  0.44222  0.00000  0.11556
       8     C     3.14442  3.14442  0.00000 -0.28885
       9     H     0.44370  0.44370  0.00000  0.11261
      10     H     0.45143  0.45143  0.00000  0.09715
      11     H     0.45092  0.45092  0.00000  0.09816
      12     H     0.44631  0.44631  0.00000  0.10738
      13     H     0.45241  0.45241  0.00000  0.09519

   Total alpha = 20.00000, Total beta = 20.00000, Total charge = -0.00000

*** Psi4 exiting successfully. Buy a developer a beer!
