  ==> Input File <==

--------------------------------------------------------------------------
set {
	reference rhf
	basis cc-pvtz
}

set_num_threads( 4 )
memory 2 gb

molecule MOL {
0 1

H	 3.459101	 0.139266	 -0.762951
C	 2.749156	 -0.051729	 0.031265
C	 1.322304	 0.099773	 -0.484271
H	 2.929445	 -1.053887	 0.403481
H	 2.954281	 0.646699	 0.834672
C	 0.308557	 -0.162619	 0.622645
H	 1.143368	 -0.594400	 -1.295960
H	 1.169532	 1.100095	 -0.870217
N	 -1.069352	 -0.004081	 0.085342
H	 0.371632	 -1.172932	 0.991288
H	 0.400391	 0.548875	 1.426218
O	 -1.691442	 0.934140	 0.455911
O	 -1.463126	 -0.842123	 -0.654638

	symmetry c1
}
set optking {
	frozen_dihedral = ("
		12 9 6 3
	")
}

ee = optimize('scf')
oeprop('DIPOLE', 'QUADRUPOLE', 'MULLIKEN_CHARGES')
f=open( 'psi4out.xyz', 'w' )
f.write( "13  " )
f.write( str(ee) + "\n" )
f.write( MOL.save_string_xyz() )
f.close()
--------------------------------------------------------------------------

    Molecular point group: c1
  Charge       = 0
  Multiplicity = 1
  Basis Set: CC-PVTZ
  Basis Set:
  @DF-RHF Final Energy:  -321.86123367108371
    Total Energy =                       -321.8612336710835962
    Molecular point group: c1
  Basis Set: CC-PVTZ
  Basis Set:
  Basis Set: CC-PVTZ
  Basis Set:
  @DF-RHF Final Energy:  -321.85575876301749
    Total Energy =                       -321.8557587630174339
  Basis Set: CC-PVTZ
  Basis Set:
  Basis Set: CC-PVTZ
  Basis Set:
  @DF-RHF Final Energy:  -321.86124971654476
    Total Energy =                       -321.8612497165449327
  Basis Set: CC-PVTZ
  Basis Set:
  Basis Set: CC-PVTZ
  Basis Set:
  @DF-RHF Final Energy:  -321.86139996523002
    Total Energy =                       -321.8613999652301345
  Basis Set: CC-PVTZ
  Basis Set:
  Basis Set: CC-PVTZ
  Basis Set:
  @DF-RHF Final Energy:  -321.86140422069917
    Total Energy =                       -321.8614042206990575
  Basis Set: CC-PVTZ
  Basis Set:
  Basis Set: CC-PVTZ
  Basis Set:
  @DF-RHF Final Energy:  -321.86140523441264
    Total Energy =                       -321.8614052344124730
  Basis Set: CC-PVTZ
  Basis Set:
  Charge       = 0
  Multiplicity = 1
  Basis Set: CC-PVTZ
  Basis Set:

    Orbital Energies (a.u.)
    -----------------------

    Doubly Occupied:

       1A    -20.592181     2A    -20.588987     3A    -15.837160
       4A    -11.297479     5A    -11.253145     6A    -11.236862
       7A     -1.636204     8A     -1.420477     9A     -1.133825
      10A     -1.027756    11A     -0.884196    12A     -0.833472
      13A     -0.762131    14A     -0.739826    15A     -0.728189
      16A     -0.671748    17A     -0.604391    18A     -0.587130
      19A     -0.551395    20A     -0.521291    21A     -0.513269
      22A     -0.487378    23A     -0.474903    24A     -0.453334

  @DF-RHF Final Energy:  -321.86140526657562

   => Energetics <=

    Nuclear Repulsion Energy =            247.9176411333662600
    One-Electron Energy =                -929.8846309009286415
    Two-Electron Energy =                 360.1055845009868790
    DFT Exchange-Correlation Energy =       0.0000000000000000
    Empirical Dispersion Energy =           0.0000000000000000
    PCM Polarization Energy =               0.0000000000000000
    EFP Energy =                            0.0000000000000000
    Total Energy =                       -321.8614052665755025
    Molecular point group: c1
  Basis Set: CC-PVTZ
  Basis Set:

  -Total Gradient:
     Atom            X                  Y                   Z
    ------   -----------------  -----------------  -----------------
       1        0.000001185281    -0.000002024361     0.000000563920
       2        0.000000208823    -0.000000653053    -0.000002964755
       3       -0.000001172135    -0.000256644986    -0.000065705183
       4       -0.000000082594     0.000000360156     0.000001794997
       5        0.000001627581     0.000001507242    -0.000000824282
       6       -0.000041595011     0.000280408286     0.000189318134
       7        0.000000421892     0.000004558692    -0.000004602813
       8        0.000000601832    -0.000000848483     0.000002162520
       9        0.000170563041     0.000127861684    -0.000412143930
      10       -0.000000261805    -0.000000341529     0.000002174184
      11       -0.000004285132    -0.000001510557    -0.000001925350
      12       -0.000135265033    -0.000168557523     0.000280901524
      13        0.000008053257     0.000015884434     0.000011251033

  **** Optimization is complete! (in 7 steps) ****
    Final optimized geometry and variables:
    Molecular point group: c1

    Geometry (in Angstrom), charge = 0, multiplicity = 1:

    H            3.466325485912     0.136665944737    -0.771373297545
    C            2.754621428005    -0.047515974325     0.022862179508
    C            1.328758682665     0.095228972123    -0.498448591630
    H            2.935559759686    -1.045957355276     0.405020889470
    H            2.957475316688     0.658440884675     0.820245689094
    C            0.314878950613    -0.159885311502     0.608413378564
    H            1.151885428067    -0.602731613558    -1.305280244987
    H            1.176925215689     1.093682393582    -0.892707930300
    N           -1.070579092902    -0.001909180188     0.087336815477
    H            0.375293551026    -1.174204229387     0.971697721637
    H            0.409771113973     0.540389432143     1.420170758851
    O           -1.693206279288     0.935017071254     0.458457254510
    O           -1.455203762844    -0.824382061940    -0.675385572391

  Mulliken Charges: (a.u.)
   Center  Symbol    Alpha    Beta     Spin     Total
       1     H     0.44163  0.44163  0.00000  0.11675
       2     C     3.15117  3.15117  0.00000 -0.30233
       3     C     3.09626  3.09626  0.00000 -0.19253
       4     H     0.45182  0.45182  0.00000  0.09636
       5     H     0.45176  0.45176  0.00000  0.09648
       6     C     3.03958  3.03958  0.00000 -0.07916
       7     H     0.43464  0.43464  0.00000  0.13073
       8     H     0.44160  0.44160  0.00000  0.11680
       9     N     3.27660  3.27660  0.00000  0.44680
      10     H     0.43631  0.43631  0.00000  0.12739
      11     H     0.43330  0.43330  0.00000  0.13340
      12     O     4.17009  4.17009  0.00000 -0.34019
      13     O     4.17524  4.17524  0.00000 -0.35048

   Total alpha = 24.00000, Total beta = 24.00000, Total charge =  0.00000
