  ==> Input File <==

--------------------------------------------------------------------------
set {
	reference rhf
	basis cc-pvtz
}

set_num_threads( 4 )
memory 2 gb

molecule MOL {
0 1

H	 -1.835082	 1.385983	 0.000069
C	 -1.300516	 0.441153	 -0.000028
O	 -0.006604	 0.654344	 -0.000106
O	 -1.828920	 -0.612308	 0.000113
C	 0.852093	 -0.482521	 -0.000161
C	 0.956055	 -0.981770	 -1.421654
H	 0.437454	 -1.233402	 0.657265
H	 1.816202	 -0.192026	 0.392357
H	 -0.016744	 -1.265247	 -1.802802
H	 1.604441	 -1.849081	 -1.456592
H	 1.368913	 -0.218623	 -2.069053

	symmetry c1
}
set optking {
	frozen_dihedral = ("
		7 5 3 2
	")
}

ee = optimize('scf')
oeprop('DIPOLE', 'QUADRUPOLE', 'MULLIKEN_CHARGES')
f=open( 'psi4out.xyz', 'w' )
f.write( "11  " )
f.write( str(ee) + "\n" )
f.write( MOL.save_string_xyz() )
f.close()
--------------------------------------------------------------------------

    Molecular point group: c1
  Charge       = 0
  Multiplicity = 1
  Basis Set: CC-PVTZ
  Basis Set:
  @DF-RHF Final Energy:  -266.92917596835582
    Total Energy =                       -266.9291759683558212
    Molecular point group: c1
  Basis Set: CC-PVTZ
  Basis Set:
  Basis Set: CC-PVTZ
  Basis Set:
  @DF-RHF Final Energy:  -266.93044651225335
    Total Energy =                       -266.9304465122532406
  Basis Set: CC-PVTZ
  Basis Set:
  Basis Set: CC-PVTZ
  Basis Set:
  @DF-RHF Final Energy:  -266.92319253864787
    Total Energy =                       -266.9231925386480384
  Basis Set: CC-PVTZ
  Basis Set:
  Basis Set: CC-PVTZ
  Basis Set:
  @DF-RHF Final Energy:  -266.93076432335153
    Total Energy =                       -266.9307643233514682
  Basis Set: CC-PVTZ
  Basis Set:
  Basis Set: CC-PVTZ
  Basis Set:
  @DF-RHF Final Energy:  -266.93087054526308
    Total Energy =                       -266.9308705452632466
  Basis Set: CC-PVTZ
  Basis Set:
  Charge       = 0
  Multiplicity = 1
  Basis Set: CC-PVTZ
  Basis Set:

    Orbital Energies (a.u.)
    -----------------------

    Doubly Occupied:

       1A    -20.605194     2A    -20.545580     3A    -11.370965
       4A    -11.289943     5A    -11.221641     6A     -1.478549
       7A     -1.377459     8A     -1.049603     9A     -0.913062
      10A     -0.796973    11A     -0.747898    12A     -0.687837
      13A     -0.657198    14A     -0.625668    15A     -0.577054
      16A     -0.542409    17A     -0.539036    18A     -0.502005
      19A     -0.462394    20A     -0.456695

  @DF-RHF Final Energy:  -266.93087247144621

   => Energetics <=

    Nuclear Repulsion Energy =            182.4216390992709762
    One-Electron Energy =                -725.8107003791012630
    Two-Electron Energy =                 276.4581888083840795
    DFT Exchange-Correlation Energy =       0.0000000000000000
    Empirical Dispersion Energy =           0.0000000000000000
    PCM Polarization Energy =               0.0000000000000000
    EFP Energy =                            0.0000000000000000
    Total Energy =                       -266.9308724714461505
    Molecular point group: c1
  Basis Set: CC-PVTZ
  Basis Set:

  -Total Gradient:
     Atom            X                  Y                   Z
    ------   -----------------  -----------------  -----------------
       1        0.000059430280    -0.000032765252     0.000025010040
       2        0.000127183489    -0.000145778456    -0.000316732473
       3        0.000139465572     0.000239753587     0.000384612892
       4       -0.000143456792    -0.000011735999     0.000014469374
       5       -0.000231004407    -0.000282282988    -0.000324112780
       6       -0.000078584875     0.000069241122     0.000012052615
       7        0.000168345651     0.000080936347     0.000198082039
       8       -0.000057509219     0.000082724242    -0.000009215372
       9        0.000006428123     0.000001791383    -0.000002775612
      10        0.000008292316     0.000002776131     0.000026172813
      11        0.000001409865    -0.000004660117    -0.000007563535

  **** Optimization is complete! (in 6 steps) ****
    Final optimized geometry and variables:
    Molecular point group: c1

    Geometry (in Angstrom), charge = 0, multiplicity = 1:

    H           -1.540289286007     1.630175191487     0.355493942754
    C           -1.036954454039     0.668999875394     0.321398738246
    O            0.262344714322     0.845481475385     0.294472068548
    O           -1.602142152367    -0.365587265763     0.315412135415
    C            1.107533316747    -0.302746547861     0.250139062843
    C            1.278709034656    -0.817229282824    -1.163581235777
    H            0.703283626731    -1.064065076716     0.899268173466
    H            2.048172281251     0.039162037719     0.653649849242
    H            0.338581017012    -1.169260278231    -1.565188293706
    H            1.980366672924    -1.643509614524    -1.164403470259
    H            1.667703458006    -0.039078176972    -1.808765350314

  Mulliken Charges: (a.u.)
   Center  Symbol    Alpha    Beta     Spin     Total
       1     H     0.44619  0.44619  0.00000  0.10763
       2     C     2.84250  2.84250  0.00000  0.31500
       3     O     4.14899  4.14899  0.00000 -0.29799
       4     O     4.19737  4.19737  0.00000 -0.39475
       5     C     2.98133  2.98133  0.00000  0.03735
       6     C     3.14602  3.14602  0.00000 -0.29204
       7     H     0.44908  0.44908  0.00000  0.10184
       8     H     0.44388  0.44388  0.00000  0.11223
       9     H     0.44198  0.44198  0.00000  0.11604
      10     H     0.45127  0.45127  0.00000  0.09746
      11     H     0.45138  0.45138  0.00000  0.09723

   Total alpha = 20.00000, Total beta = 20.00000, Total charge = -0.00000
