  ==> Input File <==

--------------------------------------------------------------------------
set {
	reference rhf
	basis 6-31G*
}

set_num_threads( 4 )
memory 2 gb

molecule MOL {
0 1

H	 -3.042581	 -0.665861	 0.004336
O	 -2.245037	 -1.176175	 0.000806
C	 -1.162163	 -0.365336	 0.001020
C	 0.038672	 -0.729472	 0.583025
C	 -1.297678	 0.873928	 -0.612731
H	 0.144378	 -1.688582	 1.061468
C	 1.103470	 0.159699	 0.544428
H	 -2.245517	 1.125072	 -1.052782
C	 -0.234869	 1.759378	 -0.651838
H	 2.038022	 -0.119260	 0.998117
C	 0.975530	 1.392147	 -0.063581
C	 -0.373646	 3.097459	 -1.339866
H	 1.809441	 2.071514	 -0.083108
H	 0.079965	 3.888364	 -0.752077
H	 -1.413979	 3.353027	 -1.501893
H	 0.119668	 3.085689	 -2.307776

	symmetry c1
}
set optking {
	frozen_dihedral = ("
		5 3 2 1
	")
}

ee = optimize('scf')
oeprop('DIPOLE', 'QUADRUPOLE', 'MULLIKEN_CHARGES')
f=open( 'psi4out.xyz', 'w' )
f.write( "16  " )
f.write( str(ee) + "\n" )
f.write( MOL.save_string_xyz() )
f.close()
--------------------------------------------------------------------------

    Molecular point group: c1
  Charge       = 0
  Multiplicity = 1
  Basis Set: 6-31G*
  Basis Set:
  @DF-RHF Final Energy:  -344.59201725001139
    Total Energy =                       -344.5920172500111676
    Molecular point group: c1
  Basis Set: 6-31G*
  Basis Set:
  Basis Set: 6-31G*
  Basis Set:
  @DF-RHF Final Energy:  -344.59373908551305
    Total Energy =                       -344.5937390855128797
  Basis Set: 6-31G*
  Basis Set:
  Basis Set: 6-31G*
  Basis Set:
  @DF-RHF Final Energy:  -344.59387877828999
    Total Energy =                       -344.5938787782898771
  Basis Set: 6-31G*
  Basis Set:
  Basis Set: 6-31G*
  Basis Set:
  @DF-RHF Final Energy:  -344.59389558691566
    Total Energy =                       -344.5938955869160054
  Basis Set: 6-31G*
  Basis Set:
  @DF-RHF Final Energy:  -344.59390020665211
    Total Energy =                       -344.5939002066519379
  @DF-RHF Final Energy:  -344.59390192128484
    Total Energy =                       -344.5939019212843846
  @DF-RHF Final Energy:  -344.59390372889078
    Total Energy =                       -344.5939037288909503
  @DF-RHF Final Energy:  -344.59390765995414
    Total Energy =                       -344.5939076599540840
  @DF-RHF Final Energy:  -344.59391012429950
    Total Energy =                       -344.5939101242993274
  @DF-RHF Final Energy:  -344.59391098997691
    Total Energy =                       -344.5939109899768482
  @DF-RHF Final Energy:  -344.59391126122108
    Total Energy =                       -344.5939112612210238
  @DF-RHF Final Energy:  -344.59391127097382
    Total Energy =                       -344.5939112709737628
  Basis Set: 6-31G*
  Basis Set:
  @DF-RHF Final Energy:  -344.59391150258415
    Total Energy =                       -344.5939115025840920
  Basis Set: 6-31G*
  Basis Set:
  Basis Set: 6-31G*
  Basis Set:
  @DF-RHF Final Energy:  -344.59391168230297
    Total Energy =                       -344.5939116823030304
  Basis Set: 6-31G*
  Basis Set:
  Basis Set: 6-31G*
  Basis Set:
  @DF-RHF Final Energy:  -344.59391172436278
    Total Energy =                       -344.5939117243630108
  Basis Set: 6-31G*
  Basis Set:
  Charge       = 0
  Multiplicity = 1
  Basis Set: 6-31G*
  Basis Set:

    Orbital Energies (a.u.)
    -----------------------

    Doubly Occupied:

       1A    -20.585645     2A    -11.293891     3A    -11.243370
       4A    -11.232683     5A    -11.223245     6A    -11.222364
       7A    -11.217403     8A    -11.217161     9A     -1.403297
      10A     -1.149896    11A     -1.043999    12A     -1.003199
      13A     -0.938172    14A     -0.838246    15A     -0.799448
      16A     -0.726209    17A     -0.678998    18A     -0.648440
      19A     -0.604717    20A     -0.592697    21A     -0.577438
      22A     -0.567281    23A     -0.560492    24A     -0.531545
      25A     -0.503055    26A     -0.481785    27A     -0.466504
      28A     -0.329997    29A     -0.307505

  @DF-RHF Final Energy:  -344.59391256883583

   => Energetics <=

    Nuclear Repulsion Energy =            345.4315216160027262
    One-Electron Energy =               -1152.0735058555128489
    Two-Electron Energy =                 462.0480716706741759
    DFT Exchange-Correlation Energy =       0.0000000000000000
    Empirical Dispersion Energy =           0.0000000000000000
    PCM Polarization Energy =               0.0000000000000000
    EFP Energy =                            0.0000000000000000
    Total Energy =                       -344.5939125688358899
    Molecular point group: c1
  Basis Set: 6-31G*
  Basis Set:

  -Total Gradient:
     Atom            X                  Y                   Z
    ------   -----------------  -----------------  -----------------
       1        0.000037526522     0.000051828781     0.002356025971
       2        0.000192192569    -0.000542423320    -0.003813625540
       3       -0.001198648874     0.001157285044     0.002961910739
       4        0.000395358539     0.000128356169    -0.000053161775
       5        0.000627871694    -0.000793019069    -0.001468860676
       6       -0.000025117314    -0.000035386356     0.000022773230
       7       -0.000180481250    -0.000156088120     0.000151502815
       8        0.000040978050     0.000010002091     0.000046510132
       9        0.000255955146     0.000067319478    -0.000022289028
      10        0.000001542329     0.000040026542    -0.000029961158
      11       -0.000094390113     0.000093134371    -0.000188587883
      12       -0.000076561706     0.000026447781     0.000000524846
      13        0.000034204196    -0.000045867201     0.000029215153
      14       -0.000023768422     0.000013514857     0.000020227948
      15       -0.000016604934    -0.000002198451    -0.000032625222
      16        0.000029943573    -0.000012932595     0.000020420447

  **** Optimization is complete! (in 16 steps) ****
    Final optimized geometry and variables:
    Molecular point group: c1

    Geometry (in Angstrom), charge = 0, multiplicity = 1:

    H           -2.574637526846    -1.404442949561     0.207478998092
    O           -1.741051481722    -1.853318586875     0.222235660668
    C           -0.719139121853    -0.959975837116     0.204995530013
    C            0.480070060404    -1.335884587136     0.787249523981
    C           -0.840291126127     0.273930607912    -0.415739323427
    H            0.556311069212    -2.297191257560     1.259981215972
    C            1.547324920697    -0.457195084115     0.748602218588
    H           -1.775051378150     0.541952865684    -0.879914009546
    C            0.228950016164     1.160386485425    -0.447600282516
    H            2.480422287103    -0.740213406694     1.202747300287
    C            1.428672350059     0.783283607888     0.142779190082
    C            0.097790972220     2.495506510510    -1.143384552983
    H            2.268234372084     1.455890907407     0.129238808121
    H            0.626986600452     3.272540692012    -0.602782924769
    H           -0.939825900974     2.796170309105    -1.232888565391
    H            0.515929144771     2.450803890298    -2.145198849264

  Mulliken Charges: (a.u.)
   Center  Symbol    Alpha    Beta     Spin     Total
       1     H     0.27248  0.27248  0.00000  0.45504
       2     O     4.38120  4.38120  0.00000 -0.76239
       3     C     2.79362  2.79362  0.00000  0.41275
       4     C     3.12693  3.12693  0.00000 -0.25386
       5     C     3.15529  3.15529  0.00000 -0.31058
       6     H     0.39286  0.39286  0.00000  0.21429
       7     C     3.08885  3.08885  0.00000 -0.17770
       8     H     0.40576  0.40576  0.00000  0.18848
       9     C     2.96972  2.96972  0.00000  0.06056
      10     H     0.39855  0.39855  0.00000  0.20290
      11     C     3.12389  3.12389  0.00000 -0.24777
      12     C     3.25425  3.25425  0.00000 -0.50851
      13     H     0.40329  0.40329  0.00000  0.19342
      14     H     0.41131  0.41131  0.00000  0.17738
      15     H     0.41399  0.41399  0.00000  0.17203
      16     H     0.40803  0.40803  0.00000  0.18395

   Total alpha = 29.00000, Total beta = 29.00000, Total charge =  0.00000
