                              Psi4 1.0.54 Driver

  ==> Input File <==

--------------------------------------------------------------------------
set {
	reference rhf
	basis cc-pvtz
}

set_num_threads( 4 )
memory 2 gb

molecule MOL {
0 1

H	 -0.753245	 1.747628	 0.004221
O	 0.057669	 1.301365	 -0.158528
C	 0.004145	 -0.005141	 0.363049
C	 1.199168	 -0.827145	 -0.096690
C	 -1.316386	 -0.602081	 -0.083515
H	 0.012026	 0.043363	 1.450619
H	 1.216685	 -0.896776	 -1.178167
H	 2.129940	 -0.372354	 0.228035
H	 1.160783	 -1.829622	 0.314294
H	 -1.357882	 -0.655920	 -1.165207
H	 -2.140147	 0.011735	 0.257253
H	 -1.440790	 -1.601175	 0.317669

	symmetry c1
}
set optking {
	frozen_dihedral = ("
		1 2 3 4
	")
}

ee,wfn = optimize('scf', return_wfn=True)
oeprop( wfn, 'DIPOLE', 'QUADRUPOLE', 'MULLIKEN_CHARGES')
f=open( 'psi4out.xyz', 'w' )
f.write( "12  " )
f.write( str(ee) + "\n" )
f.write( MOL.save_string_xyz() )
f.close()
--------------------------------------------------------------------------

    Molecular point group: c1
  Charge       = 0
  Multiplicity = 1
  Basis Set: CC-PVTZ
  Basis Set:
  @DF-RHF Final Energy:  -193.19392551237689
    Total Energy =                       -193.1939255123768362
    Molecular point group: c1
  Basis Set: CC-PVTZ
  Basis Set:
  Basis Set: CC-PVTZ
  Basis Set:
  @DF-RHF Final Energy:  -193.13711618067873
    Total Energy =                       -193.1371161806787029
  Basis Set: CC-PVTZ
  Basis Set:
  Basis Set: CC-PVTZ
  Basis Set:
  @DF-RHF Final Energy:  -193.19241103214495
    Total Energy =                       -193.1924110321449461
  Basis Set: CC-PVTZ
  Basis Set:
  Basis Set: CC-PVTZ
  Basis Set:
  @DF-RHF Final Energy:  -193.19574274326376
    Total Energy =                       -193.1957427432637076
  Basis Set: CC-PVTZ
  Basis Set:
  Basis Set: CC-PVTZ
  Basis Set:
  @DF-RHF Final Energy:  -193.19586814801238
    Total Energy =                       -193.1958681480123801
  Basis Set: CC-PVTZ
  Basis Set:
  Basis Set: CC-PVTZ
  Basis Set:
  @DF-RHF Final Energy:  -193.19588270349635
    Total Energy =                       -193.1958827034963520
  Basis Set: CC-PVTZ
  Basis Set:
  Charge       = 0
  Multiplicity = 1
  Basis Set: CC-PVTZ
  Basis Set:

    Orbital Energies (a.u.)
    -----------------------

    Doubly Occupied:

       1A    -20.544054     2A    -11.274004     3A    -11.213078
       4A    -11.205109     5A     -1.364674     6A     -1.043620
       7A     -0.941533     8A     -0.805398     9A     -0.697188
      10A     -0.633214    11A     -0.607006    12A     -0.546724
      13A     -0.533884    14A     -0.531158    15A     -0.512975
      16A     -0.469630    17A     -0.432783

  @DF-RHF Final Energy:  -193.19588288561471

   => Energetics <=

    Nuclear Repulsion Energy =            135.7913945704498815
    One-Electron Energy =                -531.2624915368070333
    Two-Electron Energy =                 202.2752140807424723
    DFT Exchange-Correlation Energy =       0.0000000000000000
    Empirical Dispersion Energy =           0.0000000000000000
    PCM Polarization Energy =               0.0000000000000000
    EFP Energy =                            0.0000000000000000
    Total Energy =                       -193.1958828856146795
    Molecular point group: c1
  Basis Set: CC-PVTZ
  Basis Set:

  -Total Gradient:
     Atom            X                  Y                   Z
    ------   -----------------  -----------------  -----------------
       1       -0.000477607200    -0.000214332638    -0.000901812861
       2        0.000438724210     0.000254314206     0.000937369827
       3        0.000423548554     0.000182000356     0.000466754976
       4       -0.000416943381    -0.000176733427    -0.000481758378
       5        0.000022811135    -0.000010481368    -0.000020879485
       6        0.000006804256    -0.000023236438     0.000000318415
       7        0.000002531250     0.000000049126    -0.000008179656
       8       -0.000025158508    -0.000005865436     0.000018615784
       9        0.000005154893    -0.000009675418    -0.000008022507
      10       -0.000005097549     0.000002249457    -0.000001404965
      11        0.000024922334     0.000005141884    -0.000000561034
      12        0.000000310005    -0.000003430302    -0.000000440116

  **** Optimization is complete! (in 7 steps) ****
    Final optimized geometry and variables:
    Molecular point group: c1

    Geometry (in Angstrom), charge = 0, multiplicity = 1:

    H           -1.059735676330     1.466095027626     0.583233309103
    O           -0.231073500057     1.280894287358     0.180690392255
    C            0.095402302191    -0.078669394441     0.344124824869
    C            1.301185913324    -0.350799973142    -0.534391962203
    C           -1.085552423073    -0.972828613015    -0.003187379040
    H            0.372601511161    -0.256343409116     1.381745362697
    H            1.051595050791    -0.189319426567    -1.576560136581
    H            2.113343788166     0.315424710135    -0.273127050038
    H            1.641426858678    -1.372710204827    -0.412985524506
    H           -1.386528722484    -0.820985467605    -1.033502878594
    H           -1.937068475446    -0.756093774409     0.634946172417
    H           -0.831780097838    -2.017867499224     0.131992881183

  Mulliken Charges: (a.u.)
   Center  Symbol    Alpha    Beta     Spin     Total
       1     H     0.39531  0.39531  0.00000  0.20938
       2     O     4.20512  4.20512  0.00000 -0.41024
       3     C     2.92056  2.92056  0.00000  0.15888
       4     C     3.14181  3.14181  0.00000 -0.28363
       5     C     3.14816  3.14816  0.00000 -0.29631
       6     H     0.46645  0.46645  0.00000  0.06710
       7     H     0.45371  0.45371  0.00000  0.09258
       8     H     0.44609  0.44609  0.00000  0.10782
       9     H     0.45905  0.45905  0.00000  0.08191
      10     H     0.45051  0.45051  0.00000  0.09898
      11     H     0.45811  0.45811  0.00000  0.08378
      12     H     0.45512  0.45512  0.00000  0.08976

   Total alpha = 17.00000, Total beta = 17.00000, Total charge = -0.00000

*** Psi4 exiting successfully. Buy a developer a beer!
