  ==> Input File <==

--------------------------------------------------------------------------
set {
	reference rhf
	basis 6-31G*
}

set_num_threads( 1 )
memory 2 gb

molecule MOL {
0 1

O	 -0.682937	 1.318834	 -0.186099
C	 -0.860635	 0.152188	 -0.042321
C	 -2.173363	 -0.477127	 0.338347
O	 0.083258	 -0.765189	 -0.202595
H	 -2.477673	 -1.180929	 -0.427595
H	 -2.923125	 0.290956	 0.455536
H	 -2.058825	 -1.029004	 1.264191
C	 1.135813	 -0.830065	 0.756944
C	 0.732284	 -1.645701	 1.971255
H	 1.424222	 0.172085	 1.035615
H	 1.954317	 -1.298994	 0.230014
H	 1.576739	 -1.740560	 2.646996
H	 -0.078597	 -1.166845	 2.505612
H	 0.419259	 -2.641110	 1.675296

	symmetry c1
}
set optking {
	frozen_dihedral = ("
		10 8 4 2
	")
}

ee = energy('scf')
oeprop('DIPOLE', 'QUADRUPOLE', 'MULLIKEN_CHARGES')
f=open( 'psi4out.xyz', 'w' )
f.write( "14  " )
f.write( str(ee) + "\n" )
f.write( MOL.save_string_xyz() )
f.close()
--------------------------------------------------------------------------

    Molecular point group: c1

    Geometry (in Angstrom), charge = 0, multiplicity = 1:

       Center              X                  Y                   Z               Mass
    ------------   -----------------  -----------------  -----------------  -----------------
           O         -0.390347227741     1.698319360600    -0.635066518703    15.994914619560
           C         -0.568045227741     0.531673360600    -0.491288518703    12.000000000000
           C         -1.880773227741    -0.097641639400    -0.110620518703    12.000000000000
           O          0.375847772259    -0.385703639400    -0.651562518703    15.994914619560
           H         -2.185083227741    -0.801443639400    -0.876562518703     1.007825032070
           H         -2.630535227741     0.670441360600     0.006568481297     1.007825032070
           H         -1.766235227741    -0.649518639400     0.815223481297     1.007825032070
           C          1.428402772259    -0.450579639400     0.307976481297    12.000000000000
           C          1.024873772259    -1.266215639400     1.522287481297    12.000000000000
           H          1.716811772259     0.551570360600     0.586647481297     1.007825032070
           H          2.246906772259    -0.919508639400    -0.218953518703     1.007825032070
           H          1.869328772259    -1.361074639400     2.198028481297     1.007825032070
           H          0.213992772259    -0.787359639400     2.056644481297     1.007825032070
           H          0.711848772259    -2.261624639400     1.226328481297     1.007825032070

  Charge       = 0
  Multiplicity = 1
  Basis Set: 6-31G*
  Basis Set:

    Orbital Energies (a.u.)
    -----------------------

    Doubly Occupied:

       1A    -20.586662     2A    -20.552475     3A    -11.375823
       4A    -11.296548     5A    -11.232690     6A    -11.231379
       7A     -1.462760     8A     -1.365298     9A     -1.054138
      10A     -1.009222    11A     -0.887711    12A     -0.769217
      13A     -0.694884    14A     -0.685848    15A     -0.667398
      16A     -0.612884    17A     -0.592713    18A     -0.573456
      19A     -0.560932    20A     -0.554151    21A     -0.509078
      22A     -0.491298    23A     -0.451527    24A     -0.438090

  @DF-RHF Final Energy:  -305.85657331445668

   => Energetics <=

    Nuclear Repulsion Energy =            249.1149115736518240
    One-Electron Energy =                -910.6305013470018821
    Two-Electron Energy =                 355.6590164588936318
    DFT Exchange-Correlation Energy =       0.0000000000000000
    Empirical Dispersion Energy =           0.0000000000000000
    PCM Polarization Energy =               0.0000000000000000
    EFP Energy =                            0.0000000000000000
    Total Energy =                       -305.8565733144563978

  Mulliken Charges: (a.u.)
   Center  Symbol    Alpha    Beta     Spin     Total
       1     O     4.26276  4.26276  0.00000 -0.52553
       2     C     2.62665  2.62665  0.00000  0.74670
       3     C     3.28382  3.28382  0.00000 -0.56763
       4     O     4.31146  4.31146  0.00000 -0.62291
       5     H     0.39910  0.39910  0.00000  0.20180
       6     H     0.39960  0.39960  0.00000  0.20079
       7     H     0.40562  0.40562  0.00000  0.18875
       8     C     3.00752  3.00752  0.00000 -0.01504
       9     C     3.25375  3.25375  0.00000 -0.50750
      10     H     0.40505  0.40505  0.00000  0.18990
      11     H     0.40525  0.40525  0.00000  0.18950
      12     H     0.41342  0.41342  0.00000  0.17316
      13     H     0.41666  0.41666  0.00000  0.16668
      14     H     0.40934  0.40934  0.00000  0.18133

   Total alpha = 24.00000, Total beta = 24.00000, Total charge =  0.00000
