                              Psi4 1.0.54 Driver

  ==> Input File <==

--------------------------------------------------------------------------
set {
	reference rhf
	basis cc-pvtz
}

set_num_threads( 4 )
memory 2 gb

molecule MOL {
0 1

H	 1.536136	 0.029170	 -3.001842
C	 1.506414	 0.160973	 -1.925492
C	 0.120711	 -0.176643	 -1.392249
H	 1.755339	 1.190125	 -1.697890
H	 2.275712	 -0.469845	 -1.497729
N	 0.000297	 0.000045	 0.046090
H	 -0.592409	 0.475527	 -1.877275
H	 -0.152309	 -1.194235	 -1.685331
C	 -1.359159	 0.315706	 0.454404
C	 0.557950	 -1.117310	 0.791117
C	 -2.416729	 -0.286720	 -0.460525
H	 -1.478729	 1.390261	 0.442008
H	 -1.539692	 0.003361	 1.486761
C	 1.062757	 -0.725855	 2.173278
H	 1.391479	 -1.519044	 0.231743
H	 -0.168054	 -1.930544	 0.877613
H	 -2.285276	 0.073129	 -1.473515
H	 -2.371743	 -1.368476	 -0.483209
H	 -3.408658	 -0.007405	 -0.121593
H	 1.832724	 0.031277	 2.090758
H	 0.273998	 -0.331191	 2.801670
H	 1.481760	 -1.589941	 2.677861

	symmetry c1
}
set optking {
	frozen_dihedral = ("
		3 6 9 11
	")
}

ee,wfn = optimize('scf', return_wfn=True)
oeprop( wfn, 'DIPOLE', 'QUADRUPOLE', 'MULLIKEN_CHARGES')
f=open( 'psi4out.xyz', 'w' )
f.write( "22  " )
f.write( str(ee) + "\n" )
f.write( MOL.save_string_xyz() )
f.close()
--------------------------------------------------------------------------

    Molecular point group: c1
  Charge       = 0
  Multiplicity = 1
  Basis Set: CC-PVTZ
  Basis Set:
  @DF-RHF Final Energy:  -290.46460180168839
    Total Energy =                       -290.4646018016887297
    Molecular point group: c1
  Basis Set: CC-PVTZ
  Basis Set:
  Basis Set: CC-PVTZ
  Basis Set:
  @DF-RHF Final Energy:  -290.18705354529806
    Total Energy =                       -290.1870535452981699
  Basis Set: CC-PVTZ
  Basis Set:
  Basis Set: CC-PVTZ
  Basis Set:
  @DF-RHF Final Energy:  -290.33395038067675
    Total Energy =                       -290.3339503806766970
  Basis Set: CC-PVTZ
  Basis Set:
  Basis Set: CC-PVTZ
  Basis Set:
  @DF-RHF Final Energy:  -290.44578804641947
    Total Energy =                       -290.4457880464198070
  Basis Set: CC-PVTZ
  Basis Set:
  @DF-RHF Final Energy:  -290.39843881683487
    Total Energy =                       -290.3984388168350961
  @DF-RHF Final Energy:  -290.46510649157545
    Total Energy =                       -290.4651064915753977
  @DF-RHF Final Energy:  -290.18086775960734
    Total Energy =                       -290.1808677596073949
  @DF-RHF Final Energy:  -290.38912691460763
    Total Energy =                       -290.3891269146076297
  @DF-RHF Final Energy:  -290.46241463443334
    Total Energy =                       -290.4624146344332871
  @DF-RHF Final Energy:  -290.46764790437436
    Total Energy =                       -290.4676479043746440
  @DF-RHF Final Energy:  -290.46949866222241
    Total Energy =                       -290.4694986622226907
  Basis Set: CC-PVTZ
  Basis Set:
  @DF-RHF Final Energy:  -290.46964494280485
    Total Energy =                       -290.4696449428049618
  Basis Set: CC-PVTZ
  Basis Set:
  Basis Set: CC-PVTZ
  Basis Set:
  @DF-RHF Final Energy:  -290.46966875978046
    Total Energy =                       -290.4696687597804612
  Basis Set: CC-PVTZ
  Basis Set:
  Basis Set: CC-PVTZ
  Basis Set:
  @DF-RHF Final Energy:  -290.46970447874293
    Total Energy =                       -290.4697044787430400
  Basis Set: CC-PVTZ
  Basis Set:
  Charge       = 0
  Multiplicity = 1
  Basis Set: CC-PVTZ
  Basis Set:

    Orbital Energies (a.u.)
    -----------------------

    Doubly Occupied:

       1A    -15.530951     2A    -11.238686     3A    -11.238052
       4A    -11.236955     5A    -11.207426     6A    -11.202777
       7A    -11.202042     8A     -1.220984     9A     -1.023624
      10A     -1.022366    11A     -0.956747    12A     -0.857400
      13A     -0.846240    14A     -0.759352    15A     -0.658609
      16A     -0.642251    17A     -0.618542    18A     -0.598287
      19A     -0.577826    20A     -0.546508    21A     -0.542833
      22A     -0.516623    23A     -0.511908    24A     -0.505950
      25A     -0.492433    26A     -0.491634    27A     -0.465376
      28A     -0.457212    29A     -0.338088

  @DF-RHF Final Energy:  -290.46970505222316

   => Energetics <=

    Nuclear Repulsion Energy =            338.3151199598582934
    One-Electron Energy =               -1062.5542925967715746
    Two-Electron Energy =                 433.7694675846898349
    DFT Exchange-Correlation Energy =       0.0000000000000000
    Empirical Dispersion Energy =           0.0000000000000000
    PCM Polarization Energy =               0.0000000000000000
    EFP Energy =                            0.0000000000000000
    Total Energy =                       -290.4697050522234463
    Molecular point group: c1
  Basis Set: CC-PVTZ
  Basis Set:

  -Total Gradient:
     Atom            X                  Y                   Z
    ------   -----------------  -----------------  -----------------
       1        0.000008651402    -0.000001785841     0.000010894927
       2        0.000020191919    -0.000029098308     0.000005433102
       3       -0.004799266582     0.000350046500     0.003219564494
       4       -0.000006684996    -0.000013070271    -0.000006980831
       5        0.000000765408     0.000023082302    -0.000006380680
       6        0.008079731543    -0.000257533800    -0.007027392988
       7       -0.000009796582    -0.000024240131     0.000017313135
       8        0.000013827008     0.000008191014     0.000014927754
       9       -0.005888632019    -0.000646344077     0.008718419647
      10        0.000040379709     0.000051931708     0.000063835882
      11        0.002598593484     0.000529779576    -0.004937927859
      12        0.000013511525     0.000018779043    -0.000008931399
      13       -0.000016292017     0.000003183867    -0.000017840521
      14       -0.000030538339     0.000006967229    -0.000019041497
      15        0.000028345936    -0.000004318127    -0.000044513600
      16       -0.000036625618     0.000004915105     0.000033245601
      17       -0.000005565130     0.000006022623    -0.000022448959
      18       -0.000000690033     0.000001524655     0.000011962775
      19       -0.000000409888     0.000024396469     0.000001492799
      20        0.000010283073    -0.000010928282    -0.000017738188
      21       -0.000016802015    -0.000037867698     0.000005070864
      22       -0.000002977790    -0.000003633551     0.000007035545

  **** Optimization is complete! (in 15 steps) ****
    Final optimized geometry and variables:
    Molecular point group: c1

    Geometry (in Angstrom), charge = 0, multiplicity = 1:

    H           -0.918966503977    -1.694524900181    -2.797729633892
    C           -0.340116057649    -1.611738825336    -1.883923605570
    C           -0.548245176508    -0.236760230306    -1.259635651642
    H            0.705510710743    -1.758250533074    -2.125178399699
    H           -0.648326785450    -2.418429911179    -1.231245057677
    N            0.259526101677    -0.026841876592    -0.070417434175
    H           -0.255516005184     0.495773035774    -1.999484606819
    H           -1.611393800250    -0.077399642660    -1.068165589728
    C            0.559783432333     1.372562648739     0.240358640506
    C           -0.257962019439    -0.742988192594     1.088453252952
    C           -0.461960724222     2.433465558472    -0.175563744925
    H            1.506432511781     1.632332974878    -0.226462766582
    H            0.724387210316     1.451223648674     1.305497129215
    C            0.836406872329    -1.190787428508     2.048193837696
    H           -0.783186590863    -1.623218475479     0.746664043296
    H           -0.996522793744    -0.143642860926     1.626422520310
    H           -0.556151873187     2.518206296385    -1.249072908427
    H           -1.446945913213     2.237080703202     0.234357055499
    H           -0.137572666930     3.398211624957     0.198875190371
    H            1.533025885344    -1.847570098044     1.541650301270
    H            1.398571395177    -0.354070458043     2.444556050923
    H            0.406071690136    -1.725600186966     2.888521429236

  Mulliken Charges: (a.u.)
   Center  Symbol    Alpha    Beta     Spin     Total
       1     H     0.45276  0.45276  0.00000  0.09447
       2     C     3.14443  3.14443  0.00000 -0.28887
       3     C     3.03941  3.03941  0.00000 -0.07882
       4     H     0.45150  0.45150  0.00000  0.09699
       5     H     0.45610  0.45610  0.00000  0.08780
       6     N     3.62283  3.62283  0.00000 -0.24567
       7     H     0.45284  0.45284  0.00000  0.09433
       8     H     0.46333  0.46333  0.00000  0.07334
       9     C     3.04974  3.04974  0.00000 -0.09948
      10     C     3.04624  3.04624  0.00000 -0.09247
      11     C     3.15624  3.15624  0.00000 -0.31248
      12     H     0.44898  0.44898  0.00000  0.10205
      13     H     0.45415  0.45415  0.00000  0.09170
      14     C     3.13857  3.13857  0.00000 -0.27714
      15     H     0.44873  0.44873  0.00000  0.10253
      16     H     0.46250  0.46250  0.00000  0.07500
      17     H     0.45053  0.45053  0.00000  0.09894
      18     H     0.45261  0.45261  0.00000  0.09479
      19     H     0.44629  0.44629  0.00000  0.10742
      20     H     0.45203  0.45203  0.00000  0.09594
      21     H     0.45578  0.45578  0.00000  0.08845
      22     H     0.45441  0.45441  0.00000  0.09118

   Total alpha = 29.00000, Total beta = 29.00000, Total charge = -0.00000

*** Psi4 exiting successfully. Buy a developer a beer!
