  ==> Input File <==

--------------------------------------------------------------------------
set {
	reference rhf
	basis 6-31G*
}

set_num_threads( 4 )
memory 2 gb

molecule MOL {
0 1

O	 -2.821601	 1.309235	 -0.001213
C	 -2.668563	 0.129746	 -0.000350
C	 -3.801572	 -0.864014	 -0.000442
O	 -1.481751	 -0.454642	 0.000584
H	 -4.417280	 -0.689587	 -0.874708
H	 -3.443784	 -1.883046	 -0.000565
H	 -4.417179	 -0.689832	 0.873954
C	 -0.334255	 0.388708	 0.000906
C	 0.891947	 -0.504646	 0.000751
H	 -0.365390	 1.025305	 -0.873475
H	 -0.365484	 1.024911	 0.875569
C	 0.581086	 -1.909231	 -0.519804
H	 1.285396	 -0.561059	 1.011916
H	 1.662538	 -0.043172	 -0.610553
C	 1.805397	 -2.826472	 -0.527339
H	 -0.199335	 -2.359253	 0.091350
H	 0.177968	 -1.842294	 -1.528812
C	 1.494559	 -4.229761	 -1.046017
H	 2.209294	 -2.894770	 0.480271
H	 2.585439	 -2.379396	 -1.139489
H	 0.741095	 -4.716458	 -0.433293
H	 2.381175	 -4.855940	 -1.039166
H	 1.120401	 -4.197249	 -2.065310

	symmetry c1
}
set optking {
	frozen_dihedral = ("
		13 9 8 10
	")
}

ee = optimize('scf')
oeprop('DIPOLE', 'QUADRUPOLE', 'MULLIKEN_CHARGES')
f=open( 'psi4out.xyz', 'w' )
f.write( "23  " )
f.write( str(ee) + "\n" )
f.write( MOL.save_string_xyz() )
f.close()
--------------------------------------------------------------------------

    Molecular point group: c1
  Charge       = 0
  Multiplicity = 1
  Basis Set: 6-31G*
  Basis Set:
  @DF-RHF Final Energy:  -422.97094769129615
    Total Energy =                       -422.9709476912958053
    Molecular point group: c1
  Basis Set: 6-31G*
  Basis Set:
  Basis Set: 6-31G*
  Basis Set:
  @DF-RHF Final Energy:  -422.97196000653651
    Total Energy =                       -422.9719600065365057
  Basis Set: 6-31G*
  Basis Set:
  Basis Set: 6-31G*
  Basis Set:
  @DF-RHF Final Energy:  -422.97364791522796
    Total Energy =                       -422.9736479152275024
  Basis Set: 6-31G*
  Basis Set:
  Basis Set: 6-31G*
  Basis Set:
  @DF-RHF Final Energy:  -422.97363713794812
    Total Energy =                       -422.9736371379484581
  Basis Set: 6-31G*
  Basis Set:
  @DF-RHF Final Energy:  -422.97358124790361
    Total Energy =                       -422.9735812479034394
  Basis Set: 6-31G*
  Basis Set:
  @DF-RHF Final Energy:  -422.97378190993510
    Total Energy =                       -422.9737819099358376
  Basis Set: 6-31G*
  Basis Set:
  Basis Set: 6-31G*
  Basis Set:
  @DF-RHF Final Energy:  -422.97377900775052
    Total Energy =                       -422.9737790077505224
  Basis Set: 6-31G*
  Basis Set:
  Basis Set: 6-31G*
  Basis Set:
  @DF-RHF Final Energy:  -422.97378336345702
    Total Energy =                       -422.9737833634574145
  Basis Set: 6-31G*
  Basis Set:
  Charge       = 0
  Multiplicity = 1
  Basis Set: 6-31G*
  Basis Set:

    Orbital Energies (a.u.)
    -----------------------

    Doubly Occupied:

       1A    -20.604363     2A    -20.541698     3A    -11.375212
       4A    -11.282310     5A    -11.233291     6A    -11.225787
       7A    -11.218526     8A    -11.217445     9A    -11.210925
      10A     -1.469413    11A     -1.362101    12A     -1.089246
      13A     -1.040414    14A     -1.002168    15A     -0.931316
      16A     -0.844235    17A     -0.807162    18A     -0.765124
      19A     -0.688789    20A     -0.687376    21A     -0.667338
      22A     -0.642899    23A     -0.605332    24A     -0.588410
      25A     -0.579881    26A     -0.566496    27A     -0.559945
      28A     -0.529882    29A     -0.525926    30A     -0.516051
      31A     -0.489200    32A     -0.473599    33A     -0.467537
      34A     -0.457956    35A     -0.444843    36A     -0.438086

  @DF-RHF Final Energy:  -422.97378333095395

   => Energetics <=

    Nuclear Repulsion Energy =            459.7121778834065822
    One-Electron Energy =               -1487.0713576035918777
    Two-Electron Energy =                 604.3853963892311185
    DFT Exchange-Correlation Energy =       0.0000000000000000
    Empirical Dispersion Energy =           0.0000000000000000
    PCM Polarization Energy =               0.0000000000000000
    EFP Energy =                            0.0000000000000000
    Total Energy =                       -422.9737833309541202
    Molecular point group: c1
  Basis Set: 6-31G*
  Basis Set:

  -Total Gradient:
     Atom            X                  Y                   Z
    ------   -----------------  -----------------  -----------------
       1        0.000000697837    -0.000005994559     0.000017446802
       2        0.000001346613     0.000001645889    -0.000048086370
       3       -0.000000699647     0.000003417446     0.000032008291
       4        0.000037036843     0.000020741127    -0.000002745399
       5        0.000005719836    -0.000001814197    -0.000004085454
       6       -0.000000714030     0.000000756184    -0.000000597910
       7       -0.000008674189    -0.000000118807    -0.000004733786
       8       -0.003159506481    -0.004431564780    -0.004069941660
       9       -0.003763043916    -0.004760840075     0.002239371530
      10        0.003186994688     0.004420248194     0.003009785480
      11       -0.000016383417    -0.000005041837    -0.000010889004
      12        0.000002036275     0.000018995473    -0.000005721954
      13        0.003711207048     0.004746414968    -0.001179735753
      14        0.000009032745    -0.000005251464     0.000009391685
      15       -0.000007043361    -0.000009442935     0.000017515038
      16        0.000005862845     0.000013288010     0.000013117491
      17       -0.000013899869    -0.000001712785    -0.000001711889
      18        0.000010112033     0.000003615144    -0.000018791419
      19       -0.000002496062    -0.000008373073     0.000003231422
      20        0.000000883418     0.000003275995     0.000010028813
      21        0.000005995010     0.000003313435     0.000003489573
      22        0.000001502703    -0.000001825644    -0.000008201522
      23       -0.000005966924    -0.000003731716    -0.000000144004

  **** Optimization is complete! (in 9 steps) ****
    Final optimized geometry and variables:
    Molecular point group: c1

    Geometry (in Angstrom), charge = 0, multiplicity = 1:

    O           -2.072050714987     2.396713716113     0.158522767479
    C           -2.004395404018     1.211996710190     0.235755952485
    C           -3.205933622969     0.305110716193     0.306838512998
    O           -0.862768092054     0.543808414308     0.269335865314
    H           -3.817831582889     0.468945799259    -0.572093225948
    H           -2.922907145550    -0.735368375818     0.368364132742
    H           -3.796844415687     0.577802449675     1.173063189287
    C            0.339215667886     1.299779696231     0.207723224807
    C            1.553389095899     0.368753756614     0.276688173590
    H            0.350039005386     1.904484144713    -0.688830153158
    H            0.347683272300     1.995543271855     1.036206505644
    C            1.345865976256    -1.037109626179    -0.287311472673
    H            1.928391841482     0.328156100894     1.295567568927
    H            2.347454467395     0.856190330015    -0.285746345911
    C            2.638675179932    -1.854858964018    -0.302235865461
    H            0.594176077982    -1.557451851394     0.296510083975
    H            0.951189152188    -0.966051362072    -1.298699518486
    C            2.440754193754    -3.266769147314    -0.852593026101
    H            3.039279503902    -1.914993299681     0.707633210761
    H            3.388671601660    -1.338112995657    -0.897351045109
    H            1.723562948199    -3.822993569978    -0.255719580201
    H            3.372960646537    -3.823044588992    -0.852800797131
    H            2.070562288153    -3.241171195334    -1.873595640751

  Mulliken Charges: (a.u.)
   Center  Symbol    Alpha    Beta     Spin     Total
       1     O     4.28354  4.28354  0.00000 -0.56708
       2     C     2.61404  2.61404  0.00000  0.77192
       3     C     3.28771  3.28771  0.00000 -0.57541
       4     O     4.30994  4.30994  0.00000 -0.61987
       5     H     0.39725  0.39725  0.00000  0.20549
       6     H     0.40008  0.40008  0.00000  0.19985
       7     H     0.39731  0.39731  0.00000  0.20539
       8     C     3.00081  3.00081  0.00000 -0.00162
       9     C     3.17576  3.17576  0.00000 -0.35152
      10     H     0.40937  0.40937  0.00000  0.18126
      11     H     0.40853  0.40853  0.00000  0.18293
      12     C     3.14738  3.14738  0.00000 -0.29475
      13     H     0.41551  0.41551  0.00000  0.16899
      14     H     0.41760  0.41760  0.00000  0.16480
      15     C     3.15357  3.15357  0.00000 -0.30713
      16     H     0.41346  0.41346  0.00000  0.17308
      17     H     0.42153  0.42153  0.00000  0.15694
      18     C     3.23919  3.23919  0.00000 -0.47837
      19     H     0.42269  0.42269  0.00000  0.15462
      20     H     0.42320  0.42320  0.00000  0.15360
      21     H     0.42131  0.42131  0.00000  0.15738
      22     H     0.41886  0.41886  0.00000  0.16228
      23     H     0.42139  0.42139  0.00000  0.15723

   Total alpha = 36.00000, Total beta = 36.00000, Total charge =  0.00000
