                              Psi4 1.0.54 Driver

  ==> Input File <==

--------------------------------------------------------------------------
set {
	reference rhf
	basis cc-pvtz
}

set_num_threads( 4 )
memory 2 gb

molecule MOL {
0 1

O	 -0.694481	 1.313155	 -0.204815
C	 -0.862519	 0.151932	 -0.046791
C	 -2.171428	 -0.477048	 0.339095
O	 0.085519	 -0.757083	 -0.192238
H	 -2.467997	 -1.191667	 -0.417688
H	 -2.923379	 0.287970	 0.444097
H	 -2.053854	 -1.015120	 1.270901
C	 1.392036	 -0.330828	 -0.560749
C	 2.432534	 -0.783717	 0.442323
H	 1.398207	 0.742439	 -0.669721
H	 1.565439	 -0.783303	 -1.525606
H	 3.419535	 -0.499572	 0.095130
H	 2.266025	 -0.323323	 1.406530
H	 2.409272	 -1.860598	 0.557989

	symmetry c1
}
set optking {
	frozen_dihedral = ("
		10 8 4 2
	")
}

ee,wfn = optimize('scf', return_wfn=True)
oeprop( wfn, 'DIPOLE', 'QUADRUPOLE', 'MULLIKEN_CHARGES')
f=open( 'psi4out.xyz', 'w' )
f.write( "14  " )
f.write( str(ee) + "\n" )
f.write( MOL.save_string_xyz() )
f.close()
--------------------------------------------------------------------------

    Molecular point group: c1
  Charge       = 0
  Multiplicity = 1
  Basis Set: CC-PVTZ
  Basis Set:
  @DF-RHF Final Energy:  -305.98956247294882
    Total Energy =                       -305.9895624729487054
    Molecular point group: c1
  Basis Set: CC-PVTZ
  Basis Set:
  Basis Set: CC-PVTZ
  Basis Set:
  @DF-RHF Final Energy:  -305.98981095938734
    Total Energy =                       -305.9898109593873414
  Basis Set: CC-PVTZ
  Basis Set:
  Basis Set: CC-PVTZ
  Basis Set:
  @DF-RHF Final Energy:  -305.99006172772908
    Total Energy =                       -305.9900617277289712
  Basis Set: CC-PVTZ
  Basis Set:
  Basis Set: CC-PVTZ
  Basis Set:
  @DF-RHF Final Energy:  -305.98981892497392
    Total Energy =                       -305.9898189249740881
  Basis Set: CC-PVTZ
  Basis Set:
  Basis Set: CC-PVTZ
  Basis Set:
  @DF-RHF Final Energy:  -305.99011486496863
    Total Energy =                       -305.9901148649686320
  Basis Set: CC-PVTZ
  Basis Set:
  Charge       = 0
  Multiplicity = 1
  Basis Set: CC-PVTZ
  Basis Set:

    Orbital Energies (a.u.)
    -----------------------

    Doubly Occupied:

       1A    -20.593768     2A    -20.532511     3A    -11.368556
       4A    -11.281840     5A    -11.231237     6A    -11.220470
       7A     -1.468973     8A     -1.366199     9A     -1.058009
      10A     -1.000244    11A     -0.878240    12A     -0.775824
      13A     -0.699635    14A     -0.685986    15A     -0.662296
      16A     -0.613469    17A     -0.582988    18A     -0.566585
      19A     -0.562878    20A     -0.532680    21A     -0.519268
      22A     -0.497184    23A     -0.452118    24A     -0.442937

  @DF-RHF Final Energy:  -305.99011556751259

   => Energetics <=

    Nuclear Repulsion Energy =            246.6455612848400563
    One-Electron Energy =                -906.0835640585116835
    Two-Electron Energy =                 353.4478872061589527
    DFT Exchange-Correlation Energy =       0.0000000000000000
    Empirical Dispersion Energy =           0.0000000000000000
    PCM Polarization Energy =               0.0000000000000000
    EFP Energy =                            0.0000000000000000
    Total Energy =                       -305.9901155675127029
    Molecular point group: c1
  Basis Set: CC-PVTZ
  Basis Set:

  -Total Gradient:
     Atom            X                  Y                   Z
    ------   -----------------  -----------------  -----------------
       1        0.000044939682     0.000024113512     0.000005360674
       2       -0.000012320714    -0.000042739781    -0.000062868201
       3       -0.000007449205    -0.000022983937    -0.000020784033
       4       -0.000017688041     0.000080160505     0.000100366314
       5       -0.000006896720    -0.000012455885     0.000010158697
       6        0.000012854490     0.000006546445     0.000000767338
       7       -0.000009756806    -0.000005144398     0.000018258565
       8       -0.000006790874    -0.000048351391    -0.000156672609
       9       -0.000017252147     0.000000864147     0.000028347933
      10       -0.000012468013     0.000006567732     0.000075718301
      11        0.000009982335     0.000005591495    -0.000012616625
      12        0.000008501117     0.000005975039    -0.000008561481
      13        0.000008654860    -0.000003087943     0.000019542956
      14        0.000005690039     0.000004944460     0.000002982173

  **** Optimization is complete! (in 6 steps) ****
    Final optimized geometry and variables:
    Molecular point group: c1

    Geometry (in Angstrom), charge = 0, multiplicity = 1:

    O           -0.745646773646     1.462542757446    -0.255639968151
    C           -0.895743466973     0.303333766249    -0.071360405084
    C           -2.208426770155    -0.339576950209     0.278066733993
    O            0.070306578431    -0.596862658624    -0.144596361942
    H           -2.460719801199    -1.078965847090    -0.470962617387
    H           -2.977246069137     0.413891137772     0.331163150189
    H           -2.120292521875    -0.851140298665     1.227804933702
    C            1.397336498204    -0.196542673482    -0.466912533267
    C            2.335022188565    -0.625252173636     0.640728444492
    H            1.423534641962     0.869174150612    -0.616546257290
    H            1.649728975732    -0.686112513670    -1.397668847506
    H            3.355415182573    -0.373394045428     0.375236142985
    H            2.090381578131    -0.121831622761     1.568035966945
    H            2.277604743215    -1.694080497508     0.804165407671

  Mulliken Charges: (a.u.)
   Center  Symbol    Alpha    Beta     Spin     Total
       1     O     4.19826  4.19826  0.00000 -0.39652
       2     C     2.80005  2.80005  0.00000  0.39990
       3     C     3.14033  3.14033  0.00000 -0.28066
       4     O     4.15783  4.15783  0.00000 -0.31566
       5     H     0.44580  0.44580  0.00000  0.10840
       6     H     0.43827  0.43827  0.00000  0.12345
       7     H     0.44622  0.44622  0.00000  0.10757
       8     C     2.98786  2.98786  0.00000  0.02429
       9     C     3.13590  3.13590  0.00000 -0.27180
      10     H     0.44112  0.44112  0.00000  0.11776
      11     H     0.45192  0.45192  0.00000  0.09616
      12     H     0.45385  0.45385  0.00000  0.09230
      13     H     0.45102  0.45102  0.00000  0.09797
      14     H     0.45158  0.45158  0.00000  0.09685

   Total alpha = 24.00000, Total beta = 24.00000, Total charge = -0.00000

*** Psi4 exiting successfully. Buy a developer a beer!
