  ==> Input File <==

--------------------------------------------------------------------------
set {
	reference rhf
	basis 6-31G*
}

set_num_threads( 1 )
memory 2 gb

molecule MOL {
0 1

O	 0.074228	 1.262779	 -0.000085
C	 0.028650	 0.075053	 -0.000277
C	 -1.233602	 -0.752807	 0.000328
O	 1.109162	 -0.694619	 -0.000298
C	 -2.501530	 0.091881	 0.000126
H	 -1.193807	 -1.406641	 -0.865785
H	 -1.193516	 -1.405779	 0.867015
H	 -2.545121	 0.729328	 -0.874513
H	 -3.377167	 -0.548497	 0.000561
H	 -2.544818	 0.730135	 0.874258
C	 0.944639	 -2.033197	 0.431824
H	 0.590625	 -2.062017	 1.452244
H	 1.920395	 -2.487956	 0.361425
H	 0.242025	 -2.553690	 -0.202914

	symmetry c1
}
set optking {
	frozen_dihedral = ("
		4 2 3 6
	")
}

ee = energy('scf')
oeprop('DIPOLE', 'QUADRUPOLE', 'MULLIKEN_CHARGES')
f=open( 'psi4out.xyz', 'w' )
f.write( "14  " )
f.write( str(ee) + "\n" )
f.write( MOL.save_string_xyz() )
f.close()
--------------------------------------------------------------------------

    Molecular point group: c1

    Geometry (in Angstrom), charge = 0, multiplicity = 1:

       Center              X                  Y                   Z               Mass
    ------------   -----------------  -----------------  -----------------  -----------------
           O          0.328379665163     1.619574965983    -0.077343438131    15.994914619560
           C          0.282801665163     0.431848965983    -0.077535438131    12.000000000000
           C         -0.979450334837    -0.396011034017    -0.076930438131    12.000000000000
           O          1.363313665163    -0.337823034017    -0.077556438131    15.994914619560
           C         -2.247378334837     0.448676965983    -0.077132438131    12.000000000000
           H         -0.939655334837    -1.049845034017    -0.943043438131     1.007825032070
           H         -0.939364334837    -1.048983034017     0.789756561869     1.007825032070
           H         -2.290969334837     1.086123965983    -0.951771438131     1.007825032070
           H         -3.123015334837    -0.191701034017    -0.076697438131     1.007825032070
           H         -2.290666334837     1.086930965983     0.796999561869     1.007825032070
           C          1.198790665163    -1.676401034017     0.354565561869    12.000000000000
           H          0.844776665163    -1.705221034017     1.374985561869     1.007825032070
           H          2.174546665163    -2.131160034017     0.284166561869     1.007825032070
           H          0.496176665163    -2.196894034017    -0.280172438131     1.007825032070

  Charge       = 0
  Multiplicity = 1
  Basis Set: 6-31G*
  Basis Set:

    Orbital Energies (a.u.)
    -----------------------

    Doubly Occupied:

       1A    -20.607022     2A    -20.545736     3A    -11.375505
       4A    -11.298451     5A    -11.245506     6A    -11.220612
       7A     -1.469121     8A     -1.370245     9A     -1.065988
      10A     -0.989734    11A     -0.907938    12A     -0.765723
      13A     -0.709346    14A     -0.697218    15A     -0.676885
      16A     -0.622623    17A     -0.608138    18A     -0.564485
      19A     -0.555288    20A     -0.524139    21A     -0.515844
      22A     -0.505257    23A     -0.452381    24A     -0.431895

  @DF-RHF Final Energy:  -305.84585230646621

   => Energetics <=

    Nuclear Repulsion Energy =            250.3413458998352610
    One-Electron Energy =                -912.9242620857926340
    Two-Electron Energy =                 356.7370638794910178
    DFT Exchange-Correlation Energy =       0.0000000000000000
    Empirical Dispersion Energy =           0.0000000000000000
    PCM Polarization Energy =               0.0000000000000000
    EFP Energy =                            0.0000000000000000
    Total Energy =                       -305.8458523064663837

  Mulliken Charges: (a.u.)
   Center  Symbol    Alpha    Beta     Spin     Total
       1     O     4.27102  4.27102  0.00000 -0.54204
       2     C     2.59408  2.59408  0.00000  0.81185
       3     C     3.24170  3.24170  0.00000 -0.48341
       4     O     4.29893  4.29893  0.00000 -0.59786
       5     C     3.23415  3.23415  0.00000 -0.46830
       6     H     0.39878  0.39878  0.00000  0.20243
       7     H     0.40270  0.40270  0.00000  0.19459
       8     H     0.40755  0.40755  0.00000  0.18490
       9     H     0.41923  0.41923  0.00000  0.16154
      10     H     0.40849  0.40849  0.00000  0.18302
      11     C     3.10377  3.10377  0.00000 -0.20753
      12     H     0.41095  0.41095  0.00000  0.17810
      13     H     0.39548  0.39548  0.00000  0.20904
      14     H     0.41317  0.41317  0.00000  0.17366

   Total alpha = 24.00000, Total beta = 24.00000, Total charge =  0.00000
