                              Psi4 1.0.54 Driver

  ==> Input File <==

--------------------------------------------------------------------------
set {
	reference rhf
	basis cc-pvtz
}

set_num_threads( 4 )
memory 2 gb

molecule MOL {
0 1

H	 -3.250798	 -0.955633	 -0.419446
O	 -2.321472	 -0.864941	 -0.318626
C	 -2.021813	 0.336996	 0.342658
C	 -0.669613	 0.837286	 -0.127252
H	 -2.780861	 1.084746	 0.127159
H	 -2.006390	 0.184138	 1.420053
C	 0.490865	 -0.082543	 0.241244
H	 -0.708709	 0.967192	 -1.204587
H	 -0.507562	 1.822272	 0.303070
C	 1.839800	 0.429565	 -0.255472
H	 0.305636	 -1.070211	 -0.165276
H	 0.527397	 -0.195943	 1.322876
C	 3.001144	 -0.485193	 0.119072
H	 1.804373	 0.541073	 -1.335756
H	 2.020437	 1.423114	 0.146921
H	 2.866892	 -1.477297	 -0.298806
H	 3.943543	 -0.095749	 -0.249061
H	 3.085064	 -0.590459	 1.195790

	symmetry c1
}
set optking {
	frozen_dihedral = ("
		1 2 3 4
	")
}

ee,wfn = optimize('scf', return_wfn=True)
oeprop( wfn, 'DIPOLE', 'QUADRUPOLE', 'MULLIKEN_CHARGES')
f=open( 'psi4out.xyz', 'w' )
f.write( "18  " )
f.write( str(ee) + "\n" )
f.write( MOL.save_string_xyz() )
f.close()
--------------------------------------------------------------------------

    Molecular point group: c1
  Charge       = 0
  Multiplicity = 1
  Basis Set: CC-PVTZ
  Basis Set:
  @DF-RHF Final Energy:  -271.28595230845463
    Total Energy =                       -271.2859523084544549
    Molecular point group: c1
  Basis Set: CC-PVTZ
  Basis Set:
  Basis Set: CC-PVTZ
  Basis Set:
  @DF-RHF Final Energy:  -271.28600120793817
    Total Energy =                       -271.2860012079380567
  Basis Set: CC-PVTZ
  Basis Set:
  Basis Set: CC-PVTZ
  Basis Set:
  @DF-RHF Final Energy:  -271.28601553822648
    Total Energy =                       -271.2860155382262519
  Basis Set: CC-PVTZ
  Basis Set:
  Charge       = 0
  Multiplicity = 1
  Basis Set: CC-PVTZ
  Basis Set:

    Orbital Energies (a.u.)
    -----------------------

    Doubly Occupied:

       1A    -20.545575     2A    -11.266116     3A    -11.210206
       4A    -11.208881     5A    -11.204579     6A    -11.202405
       7A     -1.363361     8A     -1.076306     9A     -1.010001
      10A     -0.914266    11A     -0.818928    12A     -0.785559
      13A     -0.705739    14A     -0.648672    15A     -0.620644
      16A     -0.582780    17A     -0.575446    18A     -0.554186
      19A     -0.519726    20A     -0.512829    21A     -0.489467
      22A     -0.467349    23A     -0.458919    24A     -0.443059
      25A     -0.433857

  @DF-RHF Final Energy:  -271.28601586162347

   => Energetics <=

    Nuclear Repulsion Energy =            249.2451153295392032
    One-Electron Energy =                -861.8245443902842453
    Two-Electron Energy =                 341.2934131991213462
    DFT Exchange-Correlation Energy =       0.0000000000000000
    Empirical Dispersion Energy =           0.0000000000000000
    PCM Polarization Energy =               0.0000000000000000
    EFP Energy =                            0.0000000000000000
    Total Energy =                       -271.2860158616236959
    Molecular point group: c1
  Basis Set: CC-PVTZ
  Basis Set:

  -Total Gradient:
     Atom            X                  Y                   Z
    ------   -----------------  -----------------  -----------------
       1        0.000123799099     0.000716378926    -0.001403907893
       2       -0.000272449958    -0.000714958376     0.001453770302
       3        0.000584469035    -0.000470476396     0.000670977587
       4       -0.000454402194     0.000469360740    -0.000721802232
       5        0.000015488126    -0.000001516347     0.000001720609
       6        0.000019397094     0.000022519708    -0.000030135499
       7        0.000005893730     0.000008762470     0.000023471143
       8       -0.000015067256     0.000001442375     0.000006935110
       9       -0.000015707411    -0.000020367493     0.000012257655
      10        0.000011439994    -0.000005019168    -0.000004572606
      11        0.000004197390    -0.000004347706     0.000015121181
      12       -0.000007489948     0.000005643836    -0.000004834223
      13       -0.000001487286    -0.000006651631    -0.000016127326
      14        0.000005836175     0.000009203724    -0.000004690184
      15       -0.000003461473    -0.000007823058     0.000006639440
      16        0.000003891170    -0.000003974954     0.000002575909
      17       -0.000000516011    -0.000002953022    -0.000003027422
      18       -0.000003830278     0.000004776373    -0.000004371551

  **** Optimization is complete! (in 4 steps) ****
    Final optimized geometry and variables:
    Molecular point group: c1

    Geometry (in Angstrom), charge = 0, multiplicity = 1:

    H           -3.237548543764    -0.987974436084    -0.399085759041
    O           -2.311050881877    -0.887483167155    -0.291913111261
    C           -2.022347558787     0.336613856560     0.336779726350
    C           -0.669479222182     0.843067777993    -0.126488305942
    H           -2.782379614614     1.073833670444     0.094461030454
    H           -2.024679648867     0.207733488266     1.416756215149
    C            0.489506231496    -0.079224602598     0.241178284724
    H           -0.704114314046     0.978617826096    -1.203207745475
    H           -0.508674735620     1.824874088104     0.312219663363
    C            1.840069719664     0.432626397445    -0.251176102619
    H            0.303852698545    -1.065400353753    -0.169125347015
    H            0.523074750882    -0.196783313021     1.322279390184
    C            2.998851525806    -0.487457887405     0.118054024037
    H            1.805777608243     0.551372349008    -1.330762322711
    H            2.022761329177     1.423030372586     0.157946874365
    H            2.861599304116    -1.476902377524    -0.305042209642
    H            3.942281217249    -0.098728571550    -0.248202252610
    H            3.082551737833    -0.598755044998     1.194124723617

  Mulliken Charges: (a.u.)
   Center  Symbol    Alpha    Beta     Spin     Total
       1     H     0.39365  0.39365  0.00000  0.21269
       2     O     4.20128  4.20128  0.00000 -0.40257
       3     C     2.97335  2.97335  0.00000  0.05331
       4     C     3.08623  3.08623  0.00000 -0.17247
       5     H     0.46654  0.46654  0.00000  0.06692
       6     H     0.47274  0.47274  0.00000  0.05451
       7     C     3.08841  3.08841  0.00000 -0.17682
       8     H     0.45489  0.45489  0.00000  0.09021
       9     H     0.45589  0.45589  0.00000  0.08822
      10     C     3.08346  3.08346  0.00000 -0.16692
      11     H     0.44412  0.44412  0.00000  0.11176
      12     H     0.45855  0.45855  0.00000  0.08290
      13     C     3.14968  3.14968  0.00000 -0.29936
      14     H     0.45465  0.45465  0.00000  0.09069
      15     H     0.45679  0.45679  0.00000  0.08641
      16     H     0.45436  0.45436  0.00000  0.09127
      17     H     0.44954  0.44954  0.00000  0.10092
      18     H     0.45584  0.45584  0.00000  0.08833

   Total alpha = 25.00000, Total beta = 25.00000, Total charge = -0.00000

*** Psi4 exiting successfully. Buy a developer a beer!
