  ==> Input File <==

--------------------------------------------------------------------------
set {
	reference rhf
	basis 6-31G*
}

set_num_threads( 4 )
memory 2 gb

molecule MOL {
0 1

O	 -1.276010	 1.052711	 -0.768302
C	 -1.204840	 0.067374	 -0.106123
C	 -2.388195	 -0.672128	 0.458071
O	 -0.067104	 -0.527208	 0.221609
H	 -2.388023	 -1.694060	 0.097175
H	 -3.300579	 -0.174919	 0.164318
H	 -2.315377	 -0.706351	 1.539059
C	 0.685678	 -1.200513	 -0.797169
C	 1.505962	 -2.257677	 -0.079445
C	 1.540297	 -0.195339	 -1.553407
H	 -0.015088	 -1.666676	 -1.474018
H	 0.860846	 -2.942786	 0.458791
H	 2.089910	 -2.827195	 -0.794978
H	 2.185743	 -1.798943	 0.630564
H	 2.129906	 -0.701976	 -2.310834
H	 0.919831	 0.542385	 -2.046116
H	 2.218653	 0.312020	 -0.874858

	symmetry c1
}
set optking {
	frozen_dihedral = ("
		8 4 2 1
	")
}

ee = optimize('scf')
oeprop('DIPOLE', 'QUADRUPOLE', 'MULLIKEN_CHARGES')
f=open( 'psi4out.xyz', 'w' )
f.write( "17  " )
f.write( str(ee) + "\n" )
f.write( MOL.save_string_xyz() )
f.close()
--------------------------------------------------------------------------

    Molecular point group: c1
  Charge       = 0
  Multiplicity = 1
  Basis Set: 6-31G*
  Basis Set:
  @DF-RHF Final Energy:  -344.89695250557065
    Total Energy =                       -344.8969525055704821
    Molecular point group: c1
  Basis Set: 6-31G*
  Basis Set:
  Basis Set: 6-31G*
  Basis Set:
  @DF-RHF Final Energy:  -344.89500692033641
    Total Energy =                       -344.8950069203363569
  Basis Set: 6-31G*
  Basis Set:
  Basis Set: 6-31G*
  Basis Set:
  @DF-RHF Final Energy:  -344.89806028141896
    Total Energy =                       -344.8980602814192480
  Basis Set: 6-31G*
  Basis Set:
  Basis Set: 6-31G*
  Basis Set:
  @DF-RHF Final Energy:  -344.89823056164391
    Total Energy =                       -344.8982305616443682
  Basis Set: 6-31G*
  Basis Set:
  Basis Set: 6-31G*
  Basis Set:
  @DF-RHF Final Energy:  -344.89824494967957
    Total Energy =                       -344.8982449496798495
  Basis Set: 6-31G*
  Basis Set:
  Basis Set: 6-31G*
  Basis Set:
  @DF-RHF Final Energy:  -344.89824897100374
    Total Energy =                       -344.8982489710041364
  Basis Set: 6-31G*
  Basis Set:
  Charge       = 0
  Multiplicity = 1
  Basis Set: 6-31G*
  Basis Set:

    Orbital Energies (a.u.)
    -----------------------

    Doubly Occupied:

       1A    -20.582210     2A    -20.554124     3A    -11.376865
       4A    -11.299927     5A    -11.235186     6A    -11.222205
       7A    -11.212602     8A     -1.456927     9A     -1.364260
      10A     -1.074489    11A     -1.008404    12A     -0.947945
      13A     -0.844168    14A     -0.771021    15A     -0.691790
      16A     -0.673466    17A     -0.650658    18A     -0.611233
      19A     -0.591297    20A     -0.584768    21A     -0.557763
      22A     -0.550454    23A     -0.548773    24A     -0.515277
      25A     -0.498739    26A     -0.486521    27A     -0.444387
      28A     -0.434779

  @DF-RHF Final Energy:  -344.89824948088477

   => Energetics <=

    Nuclear Repulsion Energy =            322.0039535497048178
    One-Electron Energy =               -1108.2239248206410593
    Two-Electron Energy =                 441.3217217900513560
    DFT Exchange-Correlation Energy =       0.0000000000000000
    Empirical Dispersion Energy =           0.0000000000000000
    PCM Polarization Energy =               0.0000000000000000
    EFP Energy =                            0.0000000000000000
    Total Energy =                       -344.8982494808848287
    Molecular point group: c1
  Basis Set: 6-31G*
  Basis Set:

  -Total Gradient:
     Atom            X                  Y                   Z
    ------   -----------------  -----------------  -----------------
       1        0.000150176357     0.004236113575     0.005502042263
       2       -0.001477723416    -0.008664625529    -0.007555828851
       3       -0.000072478901     0.000079262256    -0.000004345382
       4        0.003768641666     0.009001508507     0.000708839315
       5       -0.000000879005    -0.000024832606     0.000000841547
       6        0.000003487353    -0.000008785691     0.000018594458
       7        0.000013645704     0.000021825010     0.000014896561
       8       -0.002280423561    -0.004639519874     0.001344608147
       9       -0.000002323694     0.000017546401     0.000001743875
      10       -0.000074154458     0.000041856248     0.000019204726
      11       -0.000030198491    -0.000031320568    -0.000049999366
      12       -0.000001933937     0.000018429018    -0.000012475774
      13        0.000001833946     0.000004930685    -0.000009427150
      14        0.000000649371    -0.000000874935     0.000005674268
      15        0.000001261870    -0.000036376129     0.000002232785
      16        0.000026943444    -0.000008314869     0.000021330650
      17       -0.000026524242    -0.000006821503    -0.000007932072

  **** Optimization is complete! (in 7 steps) ****
    Final optimized geometry and variables:
    Molecular point group: c1

    Geometry (in Angstrom), charge = 0, multiplicity = 1:

    O           -1.196156302041     1.491467104963    -0.490396585029
    C           -1.076680132750     0.557350462680     0.226981029787
    C           -2.220626639819    -0.132816505993     0.919483379472
    O            0.119943405499     0.054896090273     0.583222654842
    H           -2.240653356128    -1.180792265716     0.638263335477
    H           -3.156571895830     0.338148226805     0.657657710911
    H           -2.067278699923    -0.089692009858     1.991932343846
    C            0.896894077856    -0.622206587163    -0.415967893087
    C            1.663862048559    -1.713828441279     0.308129599169
    C            1.801141146533     0.365310305079    -1.136407854583
    H            0.211815422108    -1.072304026675    -1.128593058733
    H            0.983904395736    -2.396664884795     0.804407659576
    H            2.270061531673    -2.277664173519    -0.393327325172
    H            2.317410485217    -1.279176785598     1.056439509011
    H            2.391043812640    -0.146651164110    -1.890868271949
    H            1.217217830934     1.139438350494    -1.615628266621
    H            2.477433423843     0.833681227597    -0.429230308957

  Mulliken Charges: (a.u.)
   Center  Symbol    Alpha    Beta     Spin     Total
       1     O     4.25959  4.25959  0.00000 -0.51917
       2     C     2.62339  2.62339  0.00000  0.75323
       3     C     3.28277  3.28277  0.00000 -0.56553
       4     O     4.32262  4.32262  0.00000 -0.64524
       5     H     0.40681  0.40681  0.00000  0.18639
       6     H     0.39809  0.39809  0.00000  0.20382
       7     H     0.39809  0.39809  0.00000  0.20383
       8     C     2.92902  2.92902  0.00000  0.14196
       9     C     3.23873  3.23873  0.00000 -0.47747
      10     C     3.24372  3.24372  0.00000 -0.48743
      11     H     0.41982  0.41982  0.00000  0.16035
      12     H     0.41420  0.41420  0.00000  0.17160
      13     H     0.41810  0.41810  0.00000  0.16379
      14     H     0.41066  0.41066  0.00000  0.17868
      15     H     0.42302  0.42302  0.00000  0.15395
      16     H     0.39701  0.39701  0.00000  0.20599
      17     H     0.41438  0.41438  0.00000  0.17124

   Total alpha = 28.00000, Total beta = 28.00000, Total charge =  0.00000
