  ==> Input File <==

--------------------------------------------------------------------------
set {
	reference rhf
	basis 6-31G*
}

set_num_threads( 1 )
memory 2 gb

molecule MOL {
0 1

H	 3.093496	 -1.573221	 -1.321578
O	 2.441625	 -1.548148	 -0.627899
C	 1.688107	 -0.463589	 -0.807784
C	 0.624473	 -0.343591	 0.253101
O	 1.869465	 0.288858	 -1.708866
C	 -0.265902	 0.883932	 0.072916
H	 0.054889	 -1.266995	 0.236646
H	 1.130435	 -0.323901	 1.215061
C	 -1.728698	 0.646073	 0.462102
H	 -0.209144	 1.219470	 -0.958188
H	 0.135059	 1.692851	 0.673903
C	 -2.482460	 -0.343073	 -0.431425
H	 -2.245265	 1.602650	 0.432430
H	 -1.779332	 0.308348	 1.496285
C	 -3.960546	 -0.461025	 -0.060175
H	 -2.395034	 -0.026811	 -1.468912
H	 -2.024850	 -1.327147	 -0.371646
H	 -4.472726	 -1.168004	 -0.705284
H	 -4.465146	 0.496508	 -0.151489
H	 -4.081218	 -0.800940	 0.964585

	symmetry c1
}
set optking {
	frozen_dihedral = ("
		16 12 9 6,
		12 9 6 10,
		5 3 4 7,
		1 2 3 5
	")
}

ee = energy('scf')
oeprop('DIPOLE', 'QUADRUPOLE', 'MULLIKEN_CHARGES')
f=open( 'psi4out.xyz', 'w' )
f.write( "20  " )
f.write( str(ee) + "\n" )
f.write( MOL.save_string_xyz() )
f.close()
--------------------------------------------------------------------------

    Molecular point group: c1

    Geometry (in Angstrom), charge = 0, multiplicity = 1:

       Center              X                  Y                   Z               Mass
    ------------   -----------------  -----------------  -----------------  -----------------
           H          3.282486158647    -1.381171369804    -0.947112115645     1.007825032070
           O          2.630615158647    -1.356098369804    -0.253433115645    15.994914619560
           C          1.877097158647    -0.271539369804    -0.433318115645    12.000000000000
           C          0.813463158647    -0.151541369804     0.627566884355    12.000000000000
           O          2.058455158647     0.480907630196    -1.334400115645    15.994914619560
           C         -0.076911841353     1.075981630196     0.447381884355    12.000000000000
           H          0.243879158647    -1.074945369804     0.611111884355     1.007825032070
           H          1.319425158647    -0.131851369804     1.589526884355     1.007825032070
           C         -1.539707841353     0.838122630196     0.836567884355    12.000000000000
           H         -0.020153841353     1.411519630196    -0.583722115645     1.007825032070
           H          0.324049158647     1.884900630196     1.048368884355     1.007825032070
           C         -2.293469841353    -0.151023369804    -0.056959115645    12.000000000000
           H         -2.056274841353     1.794699630196     0.806895884355     1.007825032070
           H         -1.590341841353     0.500397630196     1.870750884355     1.007825032070
           C         -3.771555841353    -0.268975369804     0.314290884355    12.000000000000
           H         -2.206043841353     0.165238630196    -1.094446115645     1.007825032070
           H         -1.835859841353    -1.135097369804     0.002819884355     1.007825032070
           H         -4.283735841353    -0.975954369804    -0.330818115645     1.007825032070
           H         -4.276155841353     0.688557630196     0.222976884355     1.007825032070
           H         -3.892227841353    -0.608890369804     1.339050884355     1.007825032070

  Charge       = 0
  Multiplicity = 1
  Basis Set: 6-31G*
  Basis Set:

    Orbital Energies (a.u.)
    -----------------------

    Doubly Occupied:

       1A    -20.612796     2A    -20.551999     3A    -11.381391
       4A    -11.238994     5A    -11.220106     6A    -11.219522
       7A    -11.218974     8A    -11.211635     9A     -1.474894
      10A     -1.366169    11A     -1.095438    12A     -1.039898
      13A     -0.960408    14A     -0.869109    15A     -0.815148
      16A     -0.775616    17A     -0.700126    18A     -0.692625
      19A     -0.662302    20A     -0.634339    21A     -0.604368
      22A     -0.593833    23A     -0.575827    24A     -0.556895
      25A     -0.531355    26A     -0.514119    27A     -0.494779
      28A     -0.479566    29A     -0.469565    30A     -0.465180
      31A     -0.455600    32A     -0.444920

  @DF-RHF Final Energy:  -383.94511353660045

   => Energetics <=

    Nuclear Repulsion Energy =            379.2616683641372788
    One-Electron Energy =               -1274.5584607872394827
    Two-Electron Energy =                 511.3516788865011904
    DFT Exchange-Correlation Energy =       0.0000000000000000
    Empirical Dispersion Energy =           0.0000000000000000
    PCM Polarization Energy =               0.0000000000000000
    EFP Energy =                            0.0000000000000000
    Total Energy =                       -383.9451135366010703

  Mulliken Charges: (a.u.)
   Center  Symbol    Alpha    Beta     Spin     Total
       1     H     0.26780  0.26780  0.00000  0.46440
       2     O     4.35059  4.35059  0.00000 -0.70117
       3     C     2.62652  2.62652  0.00000  0.74695
       4     C     3.21390  3.21390  0.00000 -0.42779
       5     O     4.27837  4.27837  0.00000 -0.55673
       6     C     3.16101  3.16101  0.00000 -0.32202
       7     H     0.39621  0.39621  0.00000  0.20759
       8     H     0.39612  0.39612  0.00000  0.20775
       9     C     3.15637  3.15637  0.00000 -0.31275
      10     H     0.39723  0.39723  0.00000  0.20554
      11     H     0.41513  0.41513  0.00000  0.16974
      12     C     3.15445  3.15445  0.00000 -0.30890
      13     H     0.41879  0.41879  0.00000  0.16243
      14     H     0.42462  0.42462  0.00000  0.15076
      15     C     3.23906  3.23906  0.00000 -0.47811
      16     H     0.41934  0.41934  0.00000  0.16132
      17     H     0.42399  0.42399  0.00000  0.15201
      18     H     0.41824  0.41824  0.00000  0.16351
      19     H     0.42059  0.42059  0.00000  0.15882
      20     H     0.42167  0.42167  0.00000  0.15666

   Total alpha = 32.00000, Total beta = 32.00000, Total charge =  0.00000
