                              Psi4 1.0.54 Driver

  ==> Input File <==

--------------------------------------------------------------------------
set {
	reference rhf
	basis cc-pvtz
}

set_num_threads( 4 )
memory 2 gb

molecule MOL {
0 1

O	 -2.313297	 -1.673290	 0.699839
C	 -1.562933	 -1.706848	 -0.220627
C	 -0.881910	 -0.448129	 -0.720509
C	 -1.233454	 -3.000437	 -0.926913
C	 0.376695	 -0.140025	 0.100361
H	 -1.587685	 0.367042	 -0.623100
H	 -0.622445	 -0.551620	 -1.768761
C	 1.630207	 -0.772146	 -0.501001
H	 0.486632	 0.935267	 0.162725
H	 0.248225	 -0.501310	 1.117842
C	 2.907848	 -0.545876	 0.309149
H	 1.772784	 -0.391628	 -1.509394
H	 1.468529	 -1.842059	 -0.599744
C	 3.373802	 0.906639	 0.372125
H	 3.699140	 -1.146831	 -0.127906
H	 2.764321	 -0.923458	 1.318191
H	 3.519798	 1.311927	 -0.623875
H	 4.316899	 0.983758	 0.900700
H	 2.661122	 1.540651	 0.885346
H	 -1.640847	 -2.971639	 -1.932497
H	 -1.657042	 -3.835538	 -0.390491
H	 -0.160215	 -3.123467	 -1.019718

	symmetry c1
}
set optking {
	frozen_dihedral = ("
		6 3 5 8
	")
}

ee,wfn = optimize('scf', return_wfn=True)
oeprop( wfn, 'DIPOLE', 'QUADRUPOLE', 'MULLIKEN_CHARGES')
f=open( 'psi4out.xyz', 'w' )
f.write( "22  " )
f.write( str(ee) + "\n" )
f.write( MOL.save_string_xyz() )
f.close()
--------------------------------------------------------------------------

    Molecular point group: c1
  Charge       = 0
  Multiplicity = 1
  Basis Set: CC-PVTZ
  Basis Set:
  @DF-RHF Final Energy:  -348.21818380589872
    Total Energy =                       -348.2181838058990593
    Molecular point group: c1
  Basis Set: CC-PVTZ
  Basis Set:
  Basis Set: CC-PVTZ
  Basis Set:
  @DF-RHF Final Energy:  -348.21911891932405
    Total Energy =                       -348.2191189193235346
  Basis Set: CC-PVTZ
  Basis Set:
  Basis Set: CC-PVTZ
  Basis Set:
  @DF-RHF Final Energy:  -348.21761588428978
    Total Energy =                       -348.2176158842898417
  Basis Set: CC-PVTZ
  Basis Set:
  Basis Set: CC-PVTZ
  Basis Set:
  @DF-RHF Final Energy:  -348.21965133933821
    Total Energy =                       -348.2196513393384976
  Basis Set: CC-PVTZ
  Basis Set:
  @DF-RHF Final Energy:  -348.21984760482542
    Total Energy =                       -348.2198476048253042
  @DF-RHF Final Energy:  -348.21995509582473
    Total Energy =                       -348.2199550958246732
  @DF-RHF Final Energy:  -348.22058280284398
    Total Energy =                       -348.2205828028443193
  @DF-RHF Final Energy:  -348.22031997378474
    Total Energy =                       -348.2203199737854220
  @DF-RHF Final Energy:  -348.22171968733022
    Total Energy =                       -348.2217196873299940
  @DF-RHF Final Energy:  -348.22062192948755
    Total Energy =                       -348.2206219294877201
  @DF-RHF Final Energy:  -348.19290334459657
    Total Energy =                       -348.1929033445965160
  @DF-RHF Final Energy:  -348.22090199324043
    Total Energy =                       -348.2209019932406022
  @DF-RHF Final Energy:  -348.22233232113297
    Total Energy =                       -348.2223323211327966
  @DF-RHF Final Energy:  -348.22299588676037
    Total Energy =                       -348.2229958867606001
  @DF-RHF Final Energy:  -348.22318907877479
    Total Energy =                       -348.2231890787744533
  @DF-RHF Final Energy:  -348.22338292455180
    Total Energy =                       -348.2233829245516290
  Basis Set: CC-PVTZ
  Basis Set:
  @DF-RHF Final Energy:  -348.22346331124663
    Total Energy =                       -348.2234633112464053
  Basis Set: CC-PVTZ
  Basis Set:
  Basis Set: CC-PVTZ
  Basis Set:
  @DF-RHF Final Energy:  -348.22347526730749
    Total Energy =                       -348.2234752673074354
  Basis Set: CC-PVTZ
  Basis Set:
  Basis Set: CC-PVTZ
  Basis Set:
  @DF-RHF Final Energy:  -348.22347683151906
    Total Energy =                       -348.2234768315189513
  Basis Set: CC-PVTZ
  Basis Set:
  Charge       = 0
  Multiplicity = 1
  Basis Set: CC-PVTZ
  Basis Set:

    Orbital Energies (a.u.)
    -----------------------

    Doubly Occupied:

       1A    -20.539835     2A    -11.321731     3A    -11.230372
       4A    -11.227147     5A    -11.214164     6A    -11.211467
       7A    -11.210861     8A    -11.205172     9A     -1.400017
      10A     -1.089498    11A     -1.042995    12A     -1.001198
      13A     -0.933961    14A     -0.855540    15A     -0.781238
      16A     -0.730934    17A     -0.668064    18A     -0.634983
      19A     -0.630623    20A     -0.613030    21A     -0.603116
      22A     -0.577749    23A     -0.564795    24A     -0.548171
      25A     -0.522373    26A     -0.515141    27A     -0.498284
      28A     -0.491498    29A     -0.462566    30A     -0.459669
      31A     -0.448234    32A     -0.404137

  @DF-RHF Final Energy:  -348.22347754056443

   => Energetics <=

    Nuclear Repulsion Energy =            377.4073053975706671
    One-Electron Energy =               -1219.9844398912618999
    Two-Electron Energy =                 494.3536569531265741
    DFT Exchange-Correlation Energy =       0.0000000000000000
    Empirical Dispersion Energy =           0.0000000000000000
    PCM Polarization Energy =               0.0000000000000000
    EFP Energy =                            0.0000000000000000
    Total Energy =                       -348.2234775405646587
    Molecular point group: c1
  Basis Set: CC-PVTZ
  Basis Set:

  -Total Gradient:
     Atom            X                  Y                   Z
    ------   -----------------  -----------------  -----------------
       1        0.000041002175     0.000013319742     0.000034336476
       2       -0.000060691086     0.000005125910     0.000016954279
       3       -0.001718888875    -0.000434926304     0.002648874734
       4        0.000000690448    -0.000012011841    -0.000049589653
       5       -0.000066713523    -0.001793379227     0.001668532627
       6        0.001453125825     0.000762747482    -0.002628327276
       7       -0.000013696220     0.000015251462     0.000011801879
       8        0.000347902081     0.001437353907    -0.001713687711
       9        0.000019704484     0.000000283586     0.000008281658
      10       -0.000007491253    -0.000003107822    -0.000008163892
      11       -0.000006180347    -0.000002730907     0.000017887701
      12       -0.000009817636    -0.000012236657     0.000004082618
      13        0.000000734588     0.000020596635    -0.000005715436
      14        0.000016910281     0.000002342982     0.000006396453
      15       -0.000005016127     0.000015706724     0.000003049785
      16        0.000009142635     0.000000777665     0.000000991271
      17        0.000001021079     0.000000302308     0.000001576900
      18       -0.000009268196     0.000000612162    -0.000010127300
      19        0.000010515036    -0.000013296470     0.000003450963
      20       -0.000008893816     0.000008350898    -0.000022014412
      21        0.000002674679     0.000000904208     0.000019034599
      22        0.000003233761    -0.000011986448    -0.000007626259

  **** Optimization is complete! (in 20 steps) ****
    Final optimized geometry and variables:
    Molecular point group: c1

    Geometry (in Angstrom), charge = 0, multiplicity = 1:

    O           -1.378785161937    -1.430827306993     0.981443995134
    C           -1.665236008921    -1.102992311550    -0.123324519889
    C           -1.060173237828     0.113633580234    -0.796335222295
    C           -2.661940715080    -1.889930011919    -0.943907043717
    C            0.019454158109     0.834089203514     0.010173772334
    H           -1.872719019251     0.788118567077    -1.052346017600
    H           -0.666386898518    -0.210402873559    -1.757263727683
    C            1.415972058158     0.253937339699    -0.212921097329
    H            0.014394177760     1.879963845509    -0.274028616246
    H           -0.233459258093     0.789520287598     1.061712761372
    C            2.507582526114     0.868391526639     0.663982127265
    H            1.688025499550     0.372884539302    -1.259799202911
    H            1.384453937561    -0.814124515767    -0.021331600377
    C            2.788384148444     2.344788840023     0.394144956022
    H            3.424168253275     0.306726363494     0.512430847297
    H            2.240790975396     0.736088506505     1.708575651905
    H            3.045811959673     2.509171793466    -0.647601464301
    H            3.618861039686     2.693929726617     0.996952303237
    H            1.934386311860     2.969633307355     0.626474319203
    H           -3.433801062495    -1.238359939562    -1.337243917207
    H           -3.107167804221    -2.663081676430    -0.336829638810
    H           -2.158325931580    -2.342336256251    -1.791619898144

  Mulliken Charges: (a.u.)
   Center  Symbol    Alpha    Beta     Spin     Total
       1     O     4.17260  4.17260  0.00000 -0.34520
       2     C     2.85906  2.85906  0.00000  0.28189
       3     C     3.12260  3.12260  0.00000 -0.24521
       4     C     3.15048  3.15048  0.00000 -0.30097
       5     C     3.09781  3.09781  0.00000 -0.19563
       6     H     0.43409  0.43409  0.00000  0.13183
       7     H     0.44528  0.44528  0.00000  0.10945
       8     C     3.09189  3.09189  0.00000 -0.18377
       9     H     0.44522  0.44522  0.00000  0.10956
      10     H     0.44202  0.44202  0.00000  0.11596
      11     C     3.09265  3.09265  0.00000 -0.18530
      12     H     0.45715  0.45715  0.00000  0.08570
      13     H     0.44500  0.44500  0.00000  0.11000
      14     C     3.15321  3.15321  0.00000 -0.30643
      15     H     0.44888  0.44888  0.00000  0.10224
      16     H     0.45039  0.45039  0.00000  0.09923
      17     H     0.45612  0.45612  0.00000  0.08777
      18     H     0.44606  0.44606  0.00000  0.10788
      19     H     0.45397  0.45397  0.00000  0.09207
      20     H     0.45084  0.45084  0.00000  0.09832
      21     H     0.43536  0.43536  0.00000  0.12927
      22     H     0.44932  0.44932  0.00000  0.10135

   Total alpha = 32.00000, Total beta = 32.00000, Total charge = -0.00000

*** Psi4 exiting successfully. Buy a developer a beer!
