  ==> Input File <==

--------------------------------------------------------------------------
set {
	reference rhf
	basis cc-pvtz
}

set_num_threads( 4 )
memory 2 gb

molecule MOL {
0 1

H	 -3.162190	 0.493205	 -0.000107
C	 -2.363908	 -0.234727	 0.000005
O	 -1.158738	 0.454634	 -0.000087
H	 -2.464314	 -0.863616	 -0.882153
H	 -2.464327	 -0.863359	 0.882345
C	 -0.028611	 -0.359694	 0.000037
C	 1.212847	 0.509314	 -0.000053
H	 -0.034155	 -1.007047	 -0.877198
H	 -0.034195	 -1.006836	 0.877430
C	 1.324896	 1.364544	 -1.257183
H	 1.192253	 1.141171	 0.881002
H	 2.082774	 -0.131149	 0.094739
H	 0.475046	 2.031254	 -1.358863
H	 2.219421	 1.974588	 -1.230879
H	 1.371819	 0.750437	 -2.150346

	symmetry c1
}
set optking {
	frozen_dihedral = ("
		11 7 6 8
	")
}

ee = optimize('scf')
oeprop('DIPOLE', 'QUADRUPOLE', 'MULLIKEN_CHARGES')
f=open( 'psi4out.xyz', 'w' )
f.write( "15  " )
f.write( str(ee) + "\n" )
f.write( MOL.save_string_xyz() )
f.close()
--------------------------------------------------------------------------

    Molecular point group: c1
  Charge       = 0
  Multiplicity = 1
  Basis Set: CC-PVTZ
  Basis Set:
  @DF-RHF Final Energy:  -232.22808696817600
    Total Energy =                       -232.2280869681760578
    Molecular point group: c1
  Basis Set: CC-PVTZ
  Basis Set:
  Basis Set: CC-PVTZ
  Basis Set:
  @DF-RHF Final Energy:  -232.22818342804683
    Total Energy =                       -232.2281834280467478
  Basis Set: CC-PVTZ
  Basis Set:
  Basis Set: CC-PVTZ
  Basis Set:
  @DF-RHF Final Energy:  -232.22819357334492
    Total Energy =                       -232.2281935733448677
  Basis Set: CC-PVTZ
  Basis Set:
  Charge       = 0
  Multiplicity = 1
  Basis Set: CC-PVTZ
  Basis Set:

    Orbital Energies (a.u.)
    -----------------------

    Doubly Occupied:

       1A    -20.548129     2A    -11.264822     3A    -11.262332
       4A    -11.213633     5A    -11.202174     6A     -1.382422
       7A     -1.055352     8A     -0.951589     9A     -0.886762
      10A     -0.799726    11A     -0.671965    12A     -0.663582
      13A     -0.634781    14A     -0.592469    15A     -0.567451
      16A     -0.546537    17A     -0.500916    18A     -0.484490
      19A     -0.479498    20A     -0.460641    21A     -0.416260

  @DF-RHF Final Energy:  -232.22819389386220

   => Energetics <=

    Nuclear Repulsion Energy =            192.9892305473187264
    One-Electron Energy =                -697.2637844940070408
    Two-Electron Energy =                 272.0463600528262305
    DFT Exchange-Correlation Energy =       0.0000000000000000
    Empirical Dispersion Energy =           0.0000000000000000
    PCM Polarization Energy =               0.0000000000000000
    EFP Energy =                            0.0000000000000000
    Total Energy =                       -232.2281938938621124
    Molecular point group: c1
  Basis Set: CC-PVTZ
  Basis Set:

  -Total Gradient:
     Atom            X                  Y                   Z
    ------   -----------------  -----------------  -----------------
       1       -0.000007602145    -0.000005155067    -0.000001349483
       2       -0.000031879075     0.000000604794     0.000011328724
       3        0.000044162115    -0.000047772460     0.000011052834
       4        0.000005789754     0.000004292592     0.000002474189
       5       -0.000003901687    -0.000001399647    -0.000004210048
       6       -0.000018772604     0.000049257040    -0.000043453968
       7        0.000034314589     0.000027230435     0.000024321905
       8       -0.000010577240    -0.000016584886    -0.000008657515
       9       -0.000001443420     0.000023158632    -0.000001744971
      10       -0.000029119420    -0.000005105900    -0.000003680731
      11        0.000000386687    -0.000000832533     0.000006774227
      12        0.000011887840    -0.000008397723     0.000004882925
      13        0.000006139008     0.000004214548     0.000003473847
      14       -0.000005646557    -0.000017714374     0.000010580214
      15        0.000006262158    -0.000005795452    -0.000011792146

  **** Optimization is complete! (in 4 steps) ****
    Final optimized geometry and variables:
    Molecular point group: c1

    Geometry (in Angstrom), charge = 0, multiplicity = 1:

    H           -2.934832556889     0.137582303023     0.268988500324
    C           -2.131254404743    -0.584598882772     0.258769186829
    O           -0.930698308668     0.112187117249     0.263927315898
    H           -2.229397512909    -1.204110306709    -0.630241831695
    H           -2.225236282534    -1.224195881368     1.134030985949
    C            0.205763259343    -0.695028065121     0.256240768746
    C            1.448276372568     0.174503260977     0.245410120198
    H            0.194448165476    -1.345235823044    -0.619223354337
    H            0.209820468580    -1.336846175618     1.136337747062
    C            1.582205129946     1.031072495157    -1.009036271912
    H            1.432047934199     0.808654775572     1.125523434839
    H            2.312430570989    -0.476438709489     0.341363470560
    H            0.738291512323     1.699859959338    -1.113029693671
    H            2.485257419175     1.629353544045    -0.972531728027
    H            1.631096951986     0.412600205423    -1.899705106218

  Mulliken Charges: (a.u.)
   Center  Symbol    Alpha    Beta     Spin     Total
       1     H     0.44723  0.44723  0.00000  0.10555
       2     C     3.03195  3.03195  0.00000 -0.06390
       3     O     4.17502  4.17502  0.00000 -0.35005
       4     H     0.47205  0.47205  0.00000  0.05590
       5     H     0.47147  0.47147  0.00000  0.05706
       6     C     2.97111  2.97111  0.00000  0.05778
       7     C     3.08012  3.08012  0.00000 -0.16024
       8     H     0.47348  0.47348  0.00000  0.05305
       9     H     0.46551  0.46551  0.00000  0.06897
      10     C     3.14925  3.14925  0.00000 -0.29850
      11     H     0.45260  0.45260  0.00000  0.09480
      12     H     0.45553  0.45553  0.00000  0.08895
      13     H     0.44544  0.44544  0.00000  0.10911
      14     H     0.45056  0.45056  0.00000  0.09888
      15     H     0.45868  0.45868  0.00000  0.08265

   Total alpha = 21.00000, Total beta = 21.00000, Total charge =  0.00000
