  ==> Input File <==

--------------------------------------------------------------------------
set {
	reference rhf
	basis 6-31G*
}

set_num_threads( 4 )
memory 2 gb

molecule MOL {
0 1

H	 -0.834309	 -1.185940	 0.821982
N	 -0.626943	 -0.667432	 -0.000092
C	 -1.512632	 -0.801262	 -1.134270
C	 0.469286	 0.129090	 0.000148
H	 -1.548897	 -1.829082	 -1.479634
H	 -1.138023	 -0.177806	 -1.929694
H	 -2.518685	 -0.483291	 -0.881717
C	 1.788933	 -0.616240	 -0.000037
O	 0.411098	 1.327768	 -0.000049
H	 1.872803	 -1.245775	 -0.880381
H	 2.595421	 0.101576	 0.003713
H	 1.870096	 -1.252171	 0.875943

	symmetry c1
}
set optking {
	frozen_dihedral = ("
		3 2 4 9
	")
}

ee = optimize('scf')
oeprop('DIPOLE', 'QUADRUPOLE', 'MULLIKEN_CHARGES')
f=open( 'psi4out.xyz', 'w' )
f.write( "12  " )
f.write( str(ee) + "\n" )
f.write( MOL.save_string_xyz() )
f.close()
--------------------------------------------------------------------------

    Molecular point group: c1
  Charge       = 0
  Multiplicity = 1
  Basis Set: 6-31G*
  Basis Set:
  @DF-RHF Final Energy:  -246.96859351522195
    Total Energy =                       -246.9685935152218690
    Molecular point group: c1
  Basis Set: 6-31G*
  Basis Set:
  Basis Set: 6-31G*
  Basis Set:
  @DF-RHF Final Energy:  -246.97295502480225
    Total Energy =                       -246.9729550248022178
  Basis Set: 6-31G*
  Basis Set:
  Basis Set: 6-31G*
  Basis Set:
  @DF-RHF Final Energy:  -246.97776348725347
    Total Energy =                       -246.9777634872536396
  Basis Set: 6-31G*
  Basis Set:
  Basis Set: 6-31G*
  Basis Set:
  @DF-RHF Final Energy:  -246.98316543020223
    Total Energy =                       -246.9831654302021775
  Basis Set: 6-31G*
  Basis Set:
  @DF-RHF Final Energy:  -246.98509368520422
    Total Energy =                       -246.9850936852042196
  @DF-RHF Final Energy:  -246.98674284988653
    Total Energy =                       -246.9867428498864115
  Basis Set: 6-31G*
  Basis Set:
  @DF-RHF Final Energy:  -246.98697995278908
    Total Energy =                       -246.9869799527891701
  Basis Set: 6-31G*
  Basis Set:
  Basis Set: 6-31G*
  Basis Set:
  @DF-RHF Final Energy:  -246.98720309595450
    Total Energy =                       -246.9872030959545555
  Basis Set: 6-31G*
  Basis Set:
  Basis Set: 6-31G*
  Basis Set:
  @DF-RHF Final Energy:  -246.98724090716229
    Total Energy =                       -246.9872409071621178
  Basis Set: 6-31G*
  Basis Set:
  Charge       = 0
  Multiplicity = 1
  Basis Set: 6-31G*
  Basis Set:

    Orbital Energies (a.u.)
    -----------------------

    Doubly Occupied:

       1A    -20.539636     2A    -15.571996     3A    -11.349277
       4A    -11.260775     5A    -11.236198     6A     -1.400812
       7A     -1.225022     8A     -1.015349     9A     -0.930938
      10A     -0.771166    11A     -0.691100    12A     -0.650754
      13A     -0.632840    14A     -0.597104    15A     -0.585078
      16A     -0.562082    17A     -0.547738    18A     -0.504129
      19A     -0.426511    20A     -0.393807

  @DF-RHF Final Energy:  -246.98724364983448

   => Energetics <=

    Nuclear Repulsion Energy =            180.6456175622882654
    One-Electron Energy =                -693.4811001369373571
    Two-Electron Energy =                 265.8482389248147228
    DFT Exchange-Correlation Energy =       0.0000000000000000
    Empirical Dispersion Energy =           0.0000000000000000
    PCM Polarization Energy =               0.0000000000000000
    EFP Energy =                            0.0000000000000000
    Total Energy =                       -246.9872436498343404
    Molecular point group: c1
  Basis Set: 6-31G*
  Basis Set:

  -Total Gradient:
     Atom            X                  Y                   Z
    ------   -----------------  -----------------  -----------------
       1       -0.000016762574    -0.000068102850     0.000018618204
       2       -0.006018576365     0.015249538806     0.007800558134
       3        0.004425329333    -0.009297805068    -0.001453053736
       4        0.000699305905    -0.009478929530    -0.019270135250
       5       -0.000014311896     0.000001533278    -0.000024761199
       6        0.000039506956    -0.000015766206     0.000052590794
       7       -0.000018703820    -0.000013267907     0.000020691905
       8        0.000005367628    -0.000002147839     0.000003088317
       9        0.000898796265     0.003602009761     0.012877456888
      10        0.000001661484     0.000017633790     0.000018181533
      11        0.000009004601     0.000005597465    -0.000013499934
      12       -0.000010617519    -0.000000293702    -0.000029735656

  **** Optimization is complete! (in 10 steps) ****
    Final optimized geometry and variables:
    Molecular point group: c1

    Geometry (in Angstrom), charge = 0, multiplicity = 1:

    H           -0.676358018983    -1.250026299857     0.867342305385
    N           -0.820331405133    -0.377815344364     0.398729023281
    C           -1.679354457615    -0.603906675244    -0.761890533838
    C            0.408637888109     0.244617665326     0.146239190476
    H           -1.246834685881    -1.298838287844    -1.479313136972
    H           -1.861447841825     0.339090403648    -1.256759859663
    H           -2.627824109759    -0.999998147180    -0.423596125060
    C            1.641439100253    -0.583555940157     0.440456296605
    O            0.477199653384     1.390123850434    -0.170806433879
    H            1.681916383005    -1.449469041860    -0.214073472985
    H            2.526175463847     0.019489504880     0.299175930722
    H            1.614710231394    -0.946730399025     1.463983111756

  Mulliken Charges: (a.u.)
   Center  Symbol    Alpha    Beta     Spin     Total
       1     H     0.32440  0.32440  0.00000  0.35121
       2     N     3.86327  3.86327  0.00000 -0.72654
       3     C     3.15854  3.15854  0.00000 -0.31709
       4     C     2.65311  2.65311  0.00000  0.69377
       5     H     0.42439  0.42439  0.00000  0.15123
       6     H     0.39529  0.39529  0.00000  0.20942
       7     H     0.40854  0.40854  0.00000  0.18292
       8     C     3.29824  3.29824  0.00000 -0.59648
       9     O     4.26712  4.26712  0.00000 -0.53424
      10     H     0.40878  0.40878  0.00000  0.18244
      11     H     0.39229  0.39229  0.00000  0.21541
      12     H     0.40602  0.40602  0.00000  0.18796

   Total alpha = 20.00000, Total beta = 20.00000, Total charge = -0.00000
