  ==> Input File <==

--------------------------------------------------------------------------
set {
	reference rhf
	basis 6-31G*
}

set_num_threads( 4 )
memory 2 gb

molecule MOL {
0 1

H	 0.254449	 -0.633250	 2.832425
O	 0.221078	 -0.512045	 1.894403
C	 0.103785	 0.856784	 1.598234
C	 0.031547	 1.023609	 0.088541
H	 0.964711	 1.403716	 1.978444
H	 -0.780628	 1.275525	 2.073177
C	 -1.134819	 0.293262	 -0.585751
H	 0.965457	 0.662749	 -0.333220
H	 -0.023442	 2.088438	 -0.131307
C	 -1.917817	 -0.639439	 0.339494
H	 -0.758119	 -0.268455	 -1.433105
H	 -1.813832	 1.041889	 -0.986690
H	 -2.777680	 -1.057197	 -0.174994
H	 -1.310268	 -1.471279	 0.680599
H	 -2.283753	 -0.111424	 1.216626

	symmetry c1
}
set optking {
	frozen_dihedral = ("
		8 4 7 11
	")
}

ee = optimize('scf')
oeprop('DIPOLE', 'QUADRUPOLE', 'MULLIKEN_CHARGES')
f=open( 'psi4out.xyz', 'w' )
f.write( "15  " )
f.write( str(ee) + "\n" )
f.write( MOL.save_string_xyz() )
f.close()
--------------------------------------------------------------------------

    Molecular point group: c1
  Charge       = 0
  Multiplicity = 1
  Basis Set: 6-31G*
  Basis Set:
  @DF-RHF Final Energy:  -232.12900103136127
    Total Energy =                       -232.1290010313610992
    Molecular point group: c1
  Basis Set: 6-31G*
  Basis Set:
  Basis Set: 6-31G*
  Basis Set:
  @DF-RHF Final Energy:  -232.13391200104269
    Total Energy =                       -232.1339120010426882
  Basis Set: 6-31G*
  Basis Set:
  Basis Set: 6-31G*
  Basis Set:
  @DF-RHF Final Energy:  -232.13520878229477
    Total Energy =                       -232.1352087822946828
  Basis Set: 6-31G*
  Basis Set:
  Basis Set: 6-31G*
  Basis Set:
  @DF-RHF Final Energy:  -232.13546186900584
    Total Energy =                       -232.1354618690059510
  Basis Set: 6-31G*
  Basis Set:
  Basis Set: 6-31G*
  Basis Set:
  @DF-RHF Final Energy:  -232.13551117022607
    Total Energy =                       -232.1355111702260388
  Basis Set: 6-31G*
  Basis Set:
  Basis Set: 6-31G*
  Basis Set:
  @DF-RHF Final Energy:  -232.13555727793221
    Total Energy =                       -232.1355572779323211
  Basis Set: 6-31G*
  Basis Set:
  Charge       = 0
  Multiplicity = 1
  Basis Set: 6-31G*
  Basis Set:

    Orbital Energies (a.u.)
    -----------------------

    Doubly Occupied:

       1A    -20.553238     2A    -11.268518     3A    -11.213102
       4A    -11.211924     5A    -11.198242     6A     -1.359893
       7A     -1.058365     8A     -0.970183     9A     -0.868301
      10A     -0.771327    11A     -0.704503    12A     -0.647804
      13A     -0.608595    14A     -0.568263    15A     -0.557265
      16A     -0.532324    17A     -0.510011    18A     -0.475870
      19A     -0.460092    20A     -0.450852    21A     -0.426667

  @DF-RHF Final Energy:  -232.13555901682201

   => Energetics <=

    Nuclear Repulsion Energy =            192.8180738430773999
    One-Electron Energy =                -697.0765887808443040
    Two-Electron Energy =                 272.1229559209450031
    DFT Exchange-Correlation Energy =       0.0000000000000000
    Empirical Dispersion Energy =           0.0000000000000000
    PCM Polarization Energy =               0.0000000000000000
    EFP Energy =                            0.0000000000000000
    Total Energy =                       -232.1355590168219010
    Molecular point group: c1
  Basis Set: 6-31G*
  Basis Set:

  -Total Gradient:
     Atom            X                  Y                   Z
    ------   -----------------  -----------------  -----------------
       1       -0.000013281941     0.000019996124    -0.000004059559
       2       -0.000022952388    -0.000015481885    -0.000066563345
       3       -0.000009195047     0.000019741248     0.000023352133
       4        0.000068291058    -0.002149655473     0.001900312898
       5       -0.000007567545     0.000035366255    -0.000065319781
       6       -0.000024403274    -0.000015787421     0.000016459715
       7       -0.000292330170     0.002185058385    -0.001668441273
       8        0.000043985039     0.001384400297    -0.001317002802
       9       -0.000000118279    -0.000006461523     0.000048039484
      10        0.000068154222     0.000003440926     0.000064271086
      11        0.000224919933    -0.001498168022     0.001104786128
      12       -0.000019425014    -0.000016067593     0.000001016424
      13        0.000000806375     0.000001476908    -0.000010763793
      14       -0.000018291198     0.000042773844    -0.000028770492
      15        0.000001408224     0.000009367930     0.000002683173

  **** Optimization is complete! (in 7 steps) ****
    Final optimized geometry and variables:
    Molecular point group: c1

    Geometry (in Angstrom), charge = 0, multiplicity = 1:

    H            1.007553144950    -0.718390641283     2.188166935350
    O            0.984220673929    -0.634750410503     1.245464562933
    C            0.629806255362     0.680186698149     0.896927964463
    C            0.529461053137     0.787509771491    -0.616498597180
    H            1.392035667954     1.375420137942     1.244093455067
    H           -0.307128923715     0.965745512971     1.370067558860
    C           -0.683640828014     0.116544665995    -1.316406989301
    H            1.454831777885     0.398243132279    -1.028624905818
    H            0.525053216391     1.847552295828    -0.858629649695
    C           -1.544777755959    -0.830693165169    -0.474561784728
    H           -0.315564795359    -0.446441709290    -2.168418494874
    H           -1.328172973613     0.891168324865    -1.722181442399
    H           -2.347337934563    -1.232566413033    -1.086243843001
    H           -0.965598379645    -1.657150267708    -0.085386965626
    H           -2.005766052858    -0.321997320151     0.366464863117

  Mulliken Charges: (a.u.)
   Center  Symbol    Alpha    Beta     Spin     Total
       1     H     0.28104  0.28104  0.00000  0.43791
       2     O     4.36890  4.36890  0.00000 -0.73779
       3     C     3.00092  3.00092  0.00000 -0.00185
       4     C     3.16178  3.16178  0.00000 -0.32356
       5     H     0.42868  0.42868  0.00000  0.14265
       6     H     0.43059  0.43059  0.00000  0.13882
       7     C     3.15508  3.15508  0.00000 -0.31017
       8     H     0.41124  0.41124  0.00000  0.17753
       9     H     0.42207  0.42207  0.00000  0.15587
      10     C     3.24175  3.24175  0.00000 -0.48349
      11     H     0.41893  0.41893  0.00000  0.16214
      12     H     0.42316  0.42316  0.00000  0.15368
      13     H     0.42379  0.42379  0.00000  0.15242
      14     H     0.40502  0.40502  0.00000  0.18996
      15     H     0.42706  0.42706  0.00000  0.14588

   Total alpha = 21.00000, Total beta = 21.00000, Total charge =  0.00000
