  ==> Input File <==

--------------------------------------------------------------------------
set {
	reference rhf
	basis 6-31G*
}

set_num_threads( 1 )
memory 2 gb

molecule MOL {
0 1

H	 -2.985796	 2.148375	 -0.589998
C	 -3.102614	 1.116136	 -0.942785
C	 -2.062544	 0.659927	 -1.934117
O	 -3.999649	 0.446673	 -0.544166
C	 -0.630249	 0.899626	 -1.436795
H	 -2.237449	 -0.386369	 -2.156340
H	 -2.223204	 1.227203	 -2.850110
C	 -0.252658	 0.041456	 -0.226725
H	 0.056052	 0.694259	 -2.252944
H	 -0.503997	 1.953437	 -1.193277
C	 1.180775	 0.282413	 0.250794
H	 -0.378804	 -1.008694	 -0.481910
H	 -0.941204	 0.236434	 0.593291
C	 2.148627	 -0.814315	 -0.201312
H	 1.516199	 1.249228	 -0.115937
H	 1.192670	 0.346017	 1.338083
C	 3.580890	 -0.659131	 0.322722
H	 2.166869	 -0.852443	 -1.289387
H	 1.762857	 -1.776509	 0.128956
C	 4.324889	 0.564933	 -0.213704
H	 4.142010	 -1.551473	 0.056605
H	 3.564836	 -0.624694	 1.410140
H	 4.342616	 0.565491	 -1.300421
H	 3.866655	 1.493402	 0.110242
H	 5.353900	 0.572371	 0.132816

	symmetry c1
}
set optking {
	frozen_dihedral = ("
		6 3 5 8,
		6 3 2 4,
		3 5 8 12,
		8 11 14 18,
		20 17 14 18
	")
}

ee = energy('scf')
oeprop('DIPOLE', 'QUADRUPOLE', 'MULLIKEN_CHARGES')
f=open( 'psi4out.xyz', 'w' )
f.write( "25  " )
f.write( str(ee) + "\n" )
f.write( MOL.save_string_xyz() )
f.close()
--------------------------------------------------------------------------

    Molecular point group: c1

    Geometry (in Angstrom), charge = 0, multiplicity = 1:

       Center              X                  Y                   Z               Mass
    ------------   -----------------  -----------------  -----------------  -----------------
           H         -3.119356920640     1.863044239710    -0.045092581343     1.007825032070
           C         -3.236174920640     0.830805239710    -0.397879581343    12.000000000000
           C         -2.196104920640     0.374596239710    -1.389211581343    12.000000000000
           O         -4.133209920640     0.161342239710     0.000739418657    15.994914619560
           C         -0.763809920640     0.614295239710    -0.891889581343    12.000000000000
           H         -2.371009920640    -0.671699760290    -1.611434581343     1.007825032070
           H         -2.356764920640     0.941872239710    -2.305204581343     1.007825032070
           C         -0.386218920640    -0.243874760290     0.318180418657    12.000000000000
           H         -0.077508920640     0.408928239710    -1.708038581343     1.007825032070
           H         -0.637557920640     1.668106239710    -0.648371581343     1.007825032070
           C          1.047214079360    -0.002917760290     0.795699418657    12.000000000000
           H         -0.512364920640    -1.294024760290     0.062995418657     1.007825032070
           H         -1.074764920640    -0.048896760290     1.138196418657     1.007825032070
           C          2.015066079360    -1.099645760290     0.343593418657    12.000000000000
           H          1.382638079360     0.963897239710     0.428968418657     1.007825032070
           H          1.059109079360     0.060686239710     1.882988418657     1.007825032070
           C          3.447329079360    -0.944461760290     0.867627418657    12.000000000000
           H          2.033308079360    -1.137773760290    -0.744481581343     1.007825032070
           H          1.629296079360    -2.061839760290     0.673861418657     1.007825032070
           C          4.191328079360     0.279602239710     0.331201418657    12.000000000000
           H          4.008449079360    -1.836803760290     0.601510418657     1.007825032070
           H          3.431275079360    -0.910024760290     1.955045418657     1.007825032070
           H          4.209055079360     0.280160239710    -0.755515581343     1.007825032070
           H          3.733094079360     1.208071239710     0.655147418657     1.007825032070
           H          5.220339079360     0.287040239710     0.677721418657     1.007825032070

  Charge       = 0
  Multiplicity = 1
  Basis Set: 6-31G*
  Basis Set:

    Orbital Energies (a.u.)
    -----------------------

    Doubly Occupied:

       1A    -20.561832     2A    -11.326037     3A    -11.235421
       4A    -11.234323     5A    -11.222614     6A    -11.218848
       7A    -11.218441     8A    -11.217952     9A    -11.211454
      10A     -1.401835    11A     -1.104780    12A     -1.069380
      13A     -1.013486    14A     -0.941572    15A     -0.877754
      16A     -0.821857    17A     -0.788224    18A     -0.781429
      19A     -0.665865    20A     -0.651108    21A     -0.635835
      22A     -0.622865    23A     -0.609567    24A     -0.597514
      25A     -0.571388    26A     -0.557052    27A     -0.526794
      28A     -0.522721    29A     -0.521505    30A     -0.500332
      31A     -0.485946    32A     -0.478851    33A     -0.460771
      34A     -0.455195    35A     -0.443459    36A     -0.409321

  @DF-RHF Final Energy:  -387.11731136225069

   => Energetics <=

    Nuclear Repulsion Energy =            441.6028038267112379
    One-Electron Energy =               -1399.5135564018053174
    Two-Electron Energy =                 570.7934412128432768
    DFT Exchange-Correlation Energy =       0.0000000000000000
    Empirical Dispersion Energy =           0.0000000000000000
    PCM Polarization Energy =               0.0000000000000000
    EFP Energy =                            0.0000000000000000
    Total Energy =                       -387.1173113622508026

  Mulliken Charges: (a.u.)
   Center  Symbol    Alpha    Beta     Spin     Total
       1     H     0.43266  0.43266  0.00000  0.13469
       2     C     2.83069  2.83069  0.00000  0.33862
       3     C     3.20853  3.20853  0.00000 -0.41707
       4     O     4.23782  4.23782  0.00000 -0.47564
       5     C     3.16845  3.16845  0.00000 -0.33690
       6     H     0.39964  0.39964  0.00000  0.20073
       7     H     0.40688  0.40688  0.00000  0.18623
       8     C     3.15751  3.15751  0.00000 -0.31501
       9     H     0.41250  0.41250  0.00000  0.17500
      10     H     0.41915  0.41915  0.00000  0.16171
      11     C     3.15799  3.15799  0.00000 -0.31598
      12     H     0.41608  0.41608  0.00000  0.16784
      13     H     0.41576  0.41576  0.00000  0.16847
      14     C     3.15445  3.15445  0.00000 -0.30890
      15     H     0.41961  0.41961  0.00000  0.16078
      16     H     0.41895  0.41895  0.00000  0.16210
      17     C     3.15295  3.15295  0.00000 -0.30590
      18     H     0.42477  0.42477  0.00000  0.15045
      19     H     0.42003  0.42003  0.00000  0.15995
      20     C     3.24135  3.24135  0.00000 -0.48270
      21     H     0.42036  0.42036  0.00000  0.15928
      22     H     0.42244  0.42244  0.00000  0.15512
      23     H     0.42263  0.42263  0.00000  0.15475
      24     H     0.42037  0.42037  0.00000  0.15927
      25     H     0.41845  0.41845  0.00000  0.16311

   Total alpha = 36.00000, Total beta = 36.00000, Total charge =  0.00000
