  ==> Input File <==

--------------------------------------------------------------------------
set {
	reference rhf
	basis 6-31G*
}

set_num_threads( 4 )
memory 2 gb

molecule MOL {
0 1

H	 -3.937822	 -1.259969	 -0.957219
C	 -2.870619	 -1.130132	 -0.988932
C	 -2.243242	 -0.855146	 -2.194722
C	 -2.127070	 -1.238259	 0.175703
H	 -2.821072	 -0.771549	 -3.097213
C	 -0.870996	 -0.688331	 -2.234704
H	 -2.615138	 -1.451471	 1.109478
C	 -0.753315	 -1.071662	 0.138076
H	 -0.368666	 -0.475082	 -3.158750
C	 -0.121546	 -0.795976	 -1.068832
H	 -0.173999	 -1.154471	 1.036885
C	 1.353510	 -0.607630	 -1.165761
O	 1.970282	 -0.730723	 0.000018
O	 1.928873	 -0.370537	 -2.181440
C	 3.377318	 -0.566646	 -0.000065
H	 3.695437	 -0.028981	 -0.881264
H	 3.789299	 -1.563704	 0.000236
H	 3.695516	 -0.028316	 0.880770

	symmetry c1
}
set optking {
	frozen_dihedral = ("
		12 13 15 16
	")
}

ee = optimize('scf')
oeprop('DIPOLE', 'QUADRUPOLE', 'MULLIKEN_CHARGES')
f=open( 'psi4out.xyz', 'w' )
f.write( "18  " )
f.write( str(ee) + "\n" )
f.write( MOL.save_string_xyz() )
f.close()
--------------------------------------------------------------------------

    Molecular point group: c1
  Charge       = 0
  Multiplicity = 1
  Basis Set: 6-31G*
  Basis Set:
  @DF-RHF Final Energy:  -457.34768527034510
    Total Energy =                       -457.3476852703448685
    Molecular point group: c1
  Basis Set: 6-31G*
  Basis Set:
  Basis Set: 6-31G*
  Basis Set:
  @DF-RHF Final Energy:  -457.34845997914897
    Total Energy =                       -457.3484599791482879
  Basis Set: 6-31G*
  Basis Set:
  Basis Set: 6-31G*
  Basis Set:
  @DF-RHF Final Energy:  -457.34866189118401
    Total Energy =                       -457.3486618911836104
  Basis Set: 6-31G*
  Basis Set:
  Basis Set: 6-31G*
  Basis Set:
  @DF-RHF Final Energy:  -457.34884339001712
    Total Energy =                       -457.3488433900175778
  Basis Set: 6-31G*
  Basis Set:
  Basis Set: 6-31G*
  Basis Set:
  @DF-RHF Final Energy:  -457.34895548248107
    Total Energy =                       -457.3489554824811876
  Basis Set: 6-31G*
  Basis Set:
  Basis Set: 6-31G*
  Basis Set:
  @DF-RHF Final Energy:  -457.34895548666231
    Total Energy =                       -457.3489554866621347
  Basis Set: 6-31G*
  Basis Set:
  Charge       = 0
  Multiplicity = 1
  Basis Set: 6-31G*
  Basis Set:

    Orbital Energies (a.u.)
    -----------------------

    Doubly Occupied:

       1A    -20.606913     2A    -20.543797     3A    -11.379119
       4A    -11.281846     5A    -11.245123     6A    -11.244947
       7A    -11.243682     8A    -11.241272     9A    -11.237080
      10A    -11.236316    11A     -1.470665    12A     -1.364361
      13A     -1.164835    14A     -1.047842    15A     -1.024403
      16A     -0.979113    17A     -0.859765    18A     -0.833889
      19A     -0.777176    20A     -0.739920    21A     -0.683749
      22A     -0.675360    23A     -0.671603    24A     -0.631229
      25A     -0.623604    26A     -0.597399    27A     -0.585085
      28A     -0.565920    29A     -0.525084    30A     -0.516324
      31A     -0.503667    32A     -0.498281    33A     -0.456261
      34A     -0.444522    35A     -0.344593    36A     -0.340578

  @DF-RHF Final Energy:  -457.34895642080733

   => Energetics <=

    Nuclear Repulsion Energy =            492.6627664810112037
    One-Electron Energy =               -1599.6528002900963656
    Two-Electron Energy =                 649.6410773882777221
    DFT Exchange-Correlation Energy =       0.0000000000000000
    Empirical Dispersion Energy =           0.0000000000000000
    PCM Polarization Energy =               0.0000000000000000
    EFP Energy =                            0.0000000000000000
    Total Energy =                       -457.3489564208074398
    Molecular point group: c1
  Basis Set: 6-31G*
  Basis Set:

  -Total Gradient:
     Atom            X                  Y                   Z
    ------   -----------------  -----------------  -----------------
       1        0.000000477386    -0.000000676959    -0.000000469778
       2       -0.000000611650     0.000000376850    -0.000004977435
       3        0.000000003323     0.000003394853    -0.000000540311
       4        0.000009449118     0.000002778600     0.000001353396
       5        0.000001891549     0.000001320349    -0.000000694079
       6        0.000008102126    -0.000005052385    -0.000000240048
       7        0.000003637464     0.000000514374     0.000000686766
       8        0.000010742666    -0.000004450738    -0.000011290268
       9        0.000000925767     0.000001047614    -0.000004540635
      10        0.000008894780     0.000005267912     0.000010971206
      11        0.000007441633     0.000001354154     0.000008514344
      12       -0.000108795019     0.001163770302     0.000230493873
      13        0.000247954772    -0.002019554378    -0.000464929735
      14       -0.000029453184     0.000007178773    -0.000039659782
      15       -0.000324190746     0.002006952770     0.000990077270
      16        0.000165847698    -0.001165360155    -0.000700632859
      17       -0.000006602294    -0.000007399352    -0.000000968859
      18        0.000004284605     0.000008537416    -0.000013153064

  **** Optimization is complete! (in 7 steps) ****
    Final optimized geometry and variables:
    Molecular point group: c1

    Geometry (in Angstrom), charge = 0, multiplicity = 1:

    H           -4.030002722563    -0.451687247755     0.016629302841
    C           -2.962651595504    -0.326401515483    -0.025619394887
    C           -2.345789433900    -0.055213794082    -1.237683826458
    C           -2.208226022336    -0.436727402744     1.131740752685
    H           -2.931889101102     0.029981539004    -2.134726213897
    C           -0.973339674766     0.105519389206    -1.291162705358
    H           -2.688044280290    -0.647111650052     2.070413959904
    C           -0.834194269965    -0.276001912184     1.080564897193
    H           -0.479400927915     0.315650597513    -2.220342419459
    C           -0.212792038675    -0.003943048807    -0.132574585775
    H           -0.246840206574    -0.360904116588     1.973802471636
    C            1.262602764926     0.178883253716    -0.245557178704
    O            1.884144376521     0.046765107200     0.917281408639
    O            1.821830091405     0.416200411981    -1.270016190998
    C            3.289927131992     0.224507881841     0.965376559607
    H            3.635922061421     0.781078251039     0.110832952198
    H            3.765963674839    -0.746869136082     0.980190550465
    H            3.506936003872     0.749875745446     1.883176993210

  Mulliken Charges: (a.u.)
   Center  Symbol    Alpha    Beta     Spin     Total
       1     H     0.39547  0.39547  0.00000  0.20905
       2     C     3.09001  3.09001  0.00000 -0.18001
       3     C     3.10704  3.10704  0.00000 -0.21408
       4     C     3.10710  3.10710  0.00000 -0.21420
       5     H     0.39547  0.39547  0.00000  0.20906
       6     C     3.08653  3.08653  0.00000 -0.17306
       7     H     0.39638  0.39638  0.00000  0.20724
       8     C     3.08695  3.08695  0.00000 -0.17390
       9     H     0.37594  0.37594  0.00000  0.24811
      10     C     3.07777  3.07777  0.00000 -0.15553
      11     H     0.38061  0.38061  0.00000  0.23879
      12     C     2.57938  2.57938  0.00000  0.84125
      13     O     4.31628  4.31628  0.00000 -0.63257
      14     O     4.29147  4.29147  0.00000 -0.58294
      15     C     3.09708  3.09708  0.00000 -0.19416
      16     H     0.39461  0.39461  0.00000  0.21077
      17     H     0.41211  0.41211  0.00000  0.17579
      18     H     0.40981  0.40981  0.00000  0.18039

   Total alpha = 36.00000, Total beta = 36.00000, Total charge = -0.00000
