                              Psi4 1.0.54 Driver

  ==> Input File <==

--------------------------------------------------------------------------
set {
	reference rhf
	basis cc-pvtz
}

set_num_threads( 4 )
memory 2 gb

molecule MOL {
0 1

O	 -1.767469	 2.054349	 -1.494018
C	 -1.777397	 1.049893	 -0.859667
C	 -0.729826	 -0.023690	 -1.078895
C	 -2.816396	 0.797092	 0.206795
C	 0.548358	 0.284817	 -0.289015
H	 -0.504963	 -0.050773	 -2.137581
H	 -1.118425	 -0.993716	 -0.787510
C	 1.630207	 -0.772146	 -0.501001
H	 0.907012	 1.260690	 -0.591120
H	 0.317040	 0.350565	 0.771395
C	 2.907848	 -0.545876	 0.309149
H	 1.879569	 -0.820144	 -1.558116
H	 1.223311	 -1.745260	 -0.240061
C	 3.373802	 0.906639	 0.372125
H	 3.699140	 -1.146831	 -0.127906
H	 2.764321	 -0.923458	 1.318191
H	 3.519798	 1.311927	 -0.623875
H	 4.316899	 0.983758	 0.900700
H	 2.661122	 1.540651	 0.885346
H	 -3.464172	 -0.013590	 -0.111293
H	 -3.405825	 1.686173	 0.370130
H	 -2.346478	 0.486663	 1.133293

	symmetry c1
}
set optking {
	frozen_dihedral = ("
		12 8 11 15
	")
}

ee,wfn = optimize('scf', return_wfn=True)
oeprop( wfn, 'DIPOLE', 'QUADRUPOLE', 'MULLIKEN_CHARGES')
f=open( 'psi4out.xyz', 'w' )
f.write( "22  " )
f.write( str(ee) + "\n" )
f.write( MOL.save_string_xyz() )
f.close()
--------------------------------------------------------------------------

    Molecular point group: c1
  Charge       = 0
  Multiplicity = 1
  Basis Set: CC-PVTZ
  Basis Set:
  @DF-RHF Final Energy:  -348.22093710136477
    Total Energy =                       -348.2209371013645409
    Molecular point group: c1
  Basis Set: CC-PVTZ
  Basis Set:
  Basis Set: CC-PVTZ
  Basis Set:
  @DF-RHF Final Energy:  -348.21248546752088
    Total Energy =                       -348.2124854675210486
  Basis Set: CC-PVTZ
  Basis Set:
  Basis Set: CC-PVTZ
  Basis Set:
  @DF-RHF Final Energy:  -348.22123893228922
    Total Energy =                       -348.2212389322891113
  Basis Set: CC-PVTZ
  Basis Set:
  Basis Set: CC-PVTZ
  Basis Set:
  @DF-RHF Final Energy:  -348.22142736288788
    Total Energy =                       -348.2214273628879369
  Basis Set: CC-PVTZ
  Basis Set:
  @DF-RHF Final Energy:  -348.22049513587211
    Total Energy =                       -348.2204951358717722
  @DF-RHF Final Energy:  -348.22142522236919
    Total Energy =                       -348.2214252223692483
  Basis Set: CC-PVTZ
  Basis Set:
  @DF-RHF Final Energy:  -348.22143453373673
    Total Energy =                       -348.2214345337370673
  Basis Set: CC-PVTZ
  Basis Set:
  Basis Set: CC-PVTZ
  Basis Set:
  @DF-RHF Final Energy:  -348.22145286215704
    Total Energy =                       -348.2214528621573209
  Basis Set: CC-PVTZ
  Basis Set:
  Basis Set: CC-PVTZ
  Basis Set:
  @DF-RHF Final Energy:  -348.22145467847491
    Total Energy =                       -348.2214546784747995
  Basis Set: CC-PVTZ
  Basis Set:
  Charge       = 0
  Multiplicity = 1
  Basis Set: CC-PVTZ
  Basis Set:

    Orbital Energies (a.u.)
    -----------------------

    Doubly Occupied:

       1A    -20.536746     2A    -11.319250     3A    -11.228168
       4A    -11.227505     5A    -11.226909     6A    -11.220608
       7A    -11.219292     8A    -11.209331     9A     -1.396865
      10A     -1.097059    11A     -1.045166    12A     -1.000016
      13A     -0.938574    14A     -0.862318    15A     -0.782697
      16A     -0.734465    17A     -0.665204    18A     -0.646887
      19A     -0.631143    20A     -0.619711    21A     -0.596395
      22A     -0.587036    23A     -0.562921    24A     -0.538694
      25A     -0.535689    26A     -0.525710    27A     -0.498391
      28A     -0.491293    29A     -0.468087    30A     -0.465045
      31A     -0.461857    32A     -0.398579

  @DF-RHF Final Energy:  -348.22145496419330

   => Energetics <=

    Nuclear Repulsion Energy =            374.4754824128416431
    One-Electron Energy =               -1213.9186459968470899
    Two-Electron Energy =                 491.2217086198121478
    DFT Exchange-Correlation Energy =       0.0000000000000000
    Empirical Dispersion Energy =           0.0000000000000000
    PCM Polarization Energy =               0.0000000000000000
    EFP Energy =                            0.0000000000000000
    Total Energy =                       -348.2214549641932990
    Molecular point group: c1
  Basis Set: CC-PVTZ
  Basis Set:

  -Total Gradient:
     Atom            X                  Y                   Z
    ------   -----------------  -----------------  -----------------
       1       -0.000018614750     0.000001601786     0.000018886986
       2        0.000015490959    -0.000011855203     0.000002224498
       3        0.000002631422    -0.000000916070    -0.000004907776
       4       -0.000015991988     0.000018169163    -0.000013654279
       5        0.000003603248    -0.000010108563    -0.000008886089
       6        0.000005516173    -0.000002905865     0.000002610428
       7        0.000009402077     0.000001015219    -0.000001214835
       8       -0.000361091114     0.006334669092    -0.002426644883
       9       -0.000000745917    -0.000001035076     0.000000180953
      10       -0.000004017665    -0.000004059599    -0.000002246406
      11       -0.001348636347    -0.004657414552     0.004693952057
      12        0.000503106808    -0.004613351611     0.001331923377
      13       -0.000001558306    -0.000000617441     0.000004045621
      14        0.000002314035    -0.000000746342    -0.000004966614
      15        0.001200225267     0.002948577745    -0.003592140593
      16        0.000003016926    -0.000003643356     0.000002219599
      17       -0.000001523087     0.000004530071     0.000008841473
      18       -0.000005401917     0.000003389382    -0.000003287862
      19        0.000012223030    -0.000013603877    -0.000005610625
      20        0.000004383477     0.000003641649    -0.000002798270
      21       -0.000008438610     0.000001898979     0.000008040204
      22        0.000004106280     0.000002764474    -0.000006566967

  **** Optimization is complete! (in 10 steps) ****
    Final optimized geometry and variables:
    Molecular point group: c1

    Geometry (in Angstrom), charge = 0, multiplicity = 1:

    O           -2.033253905554     1.290657331380    -1.318051310054
    C           -1.992418800904     0.452387949485    -0.477264144429
    C           -0.933831933800    -0.632237758795    -0.504763004252
    C           -2.976497401680     0.431706640519     0.668097179318
    C            0.370678264659    -0.145225252737     0.138671616212
    H           -0.753610806101    -0.887916492470    -1.541212346770
    H           -1.290328770967    -1.518777107769     0.008714761243
    C            1.462795366669    -1.209465763674     0.098731128288
    H            0.692207311508     0.749070327570    -0.379457728622
    H            0.185168337397     0.140824933898     1.171394578860
    C            2.766908767022    -0.854989866878     0.824906058986
    H            1.684579587641    -1.482460380776    -0.929484144253
    H            1.072233032149    -2.119969521927     0.547325764714
    C            3.303243022339     0.548742831883     0.543577194600
    H            3.528262848660    -1.558489987823     0.504252758193
    H            2.638176505607    -0.981244742314     1.895183065762
    H            3.423504068926     0.716885383778    -0.521854524253
    H            4.273031063554     0.682876707249     1.008645694225
    H            2.648701012808     1.321378736640     0.927753898179
    H           -3.622332625371    -0.434715261165     0.567187653963
    H           -3.575011490949     1.329634982590     0.660509855537
    H           -2.459468139025     0.336922656865     1.616372389175

  Mulliken Charges: (a.u.)
   Center  Symbol    Alpha    Beta     Spin     Total
       1     O     4.17794  4.17794  0.00000 -0.35587
       2     C     2.85849  2.85849  0.00000  0.28301
       3     C     3.09797  3.09797  0.00000 -0.19595
       4     C     3.15535  3.15535  0.00000 -0.31070
       5     C     3.10496  3.10496  0.00000 -0.20992
       6     H     0.43901  0.43901  0.00000  0.12198
       7     H     0.44810  0.44810  0.00000  0.10379
       8     C     3.09785  3.09785  0.00000 -0.19571
       9     H     0.43727  0.43727  0.00000  0.12546
      10     H     0.45120  0.45120  0.00000  0.09760
      11     C     3.08985  3.08985  0.00000 -0.17970
      12     H     0.44897  0.44897  0.00000  0.10206
      13     H     0.45106  0.45106  0.00000  0.09788
      14     C     3.15635  3.15635  0.00000 -0.31271
      15     H     0.44905  0.44905  0.00000  0.10191
      16     H     0.45213  0.45213  0.00000  0.09574
      17     H     0.45200  0.45200  0.00000  0.09600
      18     H     0.44519  0.44519  0.00000  0.10962
      19     H     0.45207  0.45207  0.00000  0.09586
      20     H     0.44833  0.44833  0.00000  0.10333
      21     H     0.43604  0.43604  0.00000  0.12791
      22     H     0.45080  0.45080  0.00000  0.09840

   Total alpha = 32.00000, Total beta = 32.00000, Total charge = -0.00000

*** Psi4 exiting successfully. Buy a developer a beer!
