  ==> Input File <==

--------------------------------------------------------------------------
set {
	reference rhf
	basis cc-pvtz
}

set_num_threads( 4 )
memory 2 gb

molecule MOL {
0 1

H	 -0.849462	 2.598975	 2.533825
O	 -0.645909	 3.011550	 1.714528
C	 -0.380350	 2.043974	 0.738098
C	 0.972269	 1.394307	 0.952918
H	 -1.150971	 1.279997	 0.713398
H	 -0.389175	 2.549079	 -0.217136
O	 1.172093	 0.457955	 -0.054438
H	 1.003381	 0.914692	 1.932661
H	 1.748171	 2.156759	 0.938141
C	 2.395478	 -0.199028	 -0.000366
H	 2.505946	 -0.901710	 -0.823354
H	 3.174616	 0.545641	 -0.071768
H	 2.513730	 -0.742241	 0.934223

	symmetry c1
}
set optking {
	frozen_dihedral = ("
		4 7 10 13
	")
}

ee = optimize('scf')
oeprop('DIPOLE', 'QUADRUPOLE', 'MULLIKEN_CHARGES')
f=open( 'psi4out.xyz', 'w' )
f.write( "13  " )
f.write( str(ee) + "\n" )
f.write( MOL.save_string_xyz() )
f.close()
--------------------------------------------------------------------------

    Molecular point group: c1
  Charge       = 0
  Multiplicity = 1
  Basis Set: CC-PVTZ
  Basis Set:
  @DF-RHF Final Energy:  -268.06131027511174
    Total Energy =                       -268.0613102751116799
    Molecular point group: c1
  Basis Set: CC-PVTZ
  Basis Set:
  Basis Set: CC-PVTZ
  Basis Set:
  @DF-RHF Final Energy:  -268.06210758319935
    Total Energy =                       -268.0621075831994631
  Basis Set: CC-PVTZ
  Basis Set:
  Basis Set: CC-PVTZ
  Basis Set:
  @DF-RHF Final Energy:  -268.06230931184695
    Total Energy =                       -268.0623093118468887
  Basis Set: CC-PVTZ
  Basis Set:
  Charge       = 0
  Multiplicity = 1
  Basis Set: CC-PVTZ
  Basis Set:

    Orbital Energies (a.u.)
    -----------------------

    Doubly Occupied:

       1A    -20.556086     2A    -20.552903     3A    -11.269312
       4A    -11.267819     5A    -11.267516     6A     -1.392171
       7A     -1.369325     8A     -1.019779     9A     -0.914013
      10A     -0.842900    11A     -0.712101    12A     -0.676619
      13A     -0.663241    14A     -0.639359    15A     -0.597863
      16A     -0.571128    17A     -0.546974    18A     -0.491383
      19A     -0.483557    20A     -0.441746    21A     -0.424825

  @DF-RHF Final Energy:  -268.06231036133090

   => Energetics <=

    Nuclear Repulsion Energy =            190.5180704956258637
    One-Electron Energy =                -743.7595184902691017
    Two-Electron Energy =                 285.1791376333122798
    DFT Exchange-Correlation Energy =       0.0000000000000000
    Empirical Dispersion Energy =           0.0000000000000000
    PCM Polarization Energy =               0.0000000000000000
    EFP Energy =                            0.0000000000000000
    Total Energy =                       -268.0623103613310150
    Molecular point group: c1
  Basis Set: CC-PVTZ
  Basis Set:

  -Total Gradient:
     Atom            X                  Y                   Z
    ------   -----------------  -----------------  -----------------
       1        0.000005499308    -0.000015047981    -0.000007619034
       2        0.000092417956    -0.000060686033    -0.000053288401
       3       -0.000048702425    -0.000039459572    -0.000085639130
       4        0.000040229726    -0.000098005146     0.000213466215
       5       -0.000002149834    -0.000002754902     0.000004439900
       6       -0.000023051430     0.000025936150    -0.000006291481
       7        0.000041079038     0.000129152285    -0.000088141405
       8        0.000005186362     0.000009366255     0.000017915854
       9        0.000014341562    -0.000016205307    -0.000034658453
      10       -0.000026498218    -0.000077118570     0.000004986811
      11       -0.000055008924     0.000016456184    -0.000010196062
      12       -0.000026577231     0.000024275012    -0.000002833718
      13       -0.000016765890     0.000104091624     0.000047858901

  **** Optimization is complete! (in 4 steps) ****
    Final optimized geometry and variables:
    Molecular point group: c1

    Geometry (in Angstrom), charge = 0, multiplicity = 1:

    H           -1.555254511476     1.237584437361     1.835978361780
    O           -1.350990840109     1.652585753012     1.018068865367
    C           -1.078284038165     0.687844479921     0.040934223967
    C            0.275877860482     0.043006435987     0.260227140070
    H           -1.845882331008    -0.079034512802     0.011937221652
    H           -1.085284067332     1.194684801456    -0.913413192288
    O            0.482959800225    -0.890244896647    -0.748377124592
    H            0.304915674458    -0.438557821833     1.239064639438
    H            1.049058844953     0.808320484772     0.249890486824
    C            1.709199517193    -1.541446400665    -0.691477922411
    H            1.749533506024    -2.243325195610    -1.511448478536
    H            2.535440812611    -0.840996145580    -0.787601282753
    H            1.826721644282    -2.085957086642     0.242821000282

  Mulliken Charges: (a.u.)
   Center  Symbol    Alpha    Beta     Spin     Total
       1     H     0.39407  0.39407  0.00000  0.21186
       2     O     4.20211  4.20211  0.00000 -0.40422
       3     C     2.97336  2.97336  0.00000  0.05329
       4     C     2.96512  2.96512  0.00000  0.06977
       5     H     0.46685  0.46685  0.00000  0.06630
       6     H     0.45267  0.45267  0.00000  0.09467
       7     O     4.17536  4.17536  0.00000 -0.35073
       8     H     0.48202  0.48202  0.00000  0.03596
       9     H     0.46965  0.46965  0.00000  0.06070
      10     C     3.03180  3.03180  0.00000 -0.06360
      11     H     0.44591  0.44591  0.00000  0.10817
      12     H     0.46970  0.46970  0.00000  0.06059
      13     H     0.47138  0.47138  0.00000  0.05724

   Total alpha = 21.00000, Total beta = 21.00000, Total charge = -0.00000
