  ==> Input File <==

--------------------------------------------------------------------------
set {
	reference rhf
	basis 6-31G*
}

set_num_threads( 4 )
memory 2 gb

molecule MOL {
0 1

H	 1.676577	 -1.651741	 -0.957382
C	 0.774825	 -2.250599	 -0.781269
C	 -0.525172	 -1.493510	 -0.869370
O	 0.866420	 -3.410888	 -0.541547
C	 -0.558097	 -0.297372	 0.091132
H	 -1.335254	 -2.184659	 -0.667970
H	 -0.633023	 -1.136986	 -1.893133
C	 -1.850991	 0.512573	 -0.019058
H	 -0.441288	 -0.654001	 1.111889
H	 0.291724	 0.353106	 -0.107719
C	 -3.096943	 -0.368295	 -0.099594
H	 -1.800724	 1.150330	 -0.898172
H	 -1.931651	 1.177355	 0.838044
H	 -3.060452	 -1.020287	 -0.967456
H	 -3.996858	 0.233488	 -0.175704
H	 -3.191959	 -0.995686	 0.782074

	symmetry c1
}
set optking {
	frozen_dihedral = ("
		9 5 8 12
	")
}

ee = optimize('scf')
oeprop('DIPOLE', 'QUADRUPOLE', 'MULLIKEN_CHARGES')
f=open( 'psi4out.xyz', 'w' )
f.write( "16  " )
f.write( str(ee) + "\n" )
f.write( MOL.save_string_xyz() )
f.close()
--------------------------------------------------------------------------

    Molecular point group: c1
  Charge       = 0
  Multiplicity = 1
  Basis Set: 6-31G*
  Basis Set:
  @DF-RHF Final Energy:  -270.01522823682865
    Total Energy =                       -270.0152282368287615
    Molecular point group: c1
  Basis Set: 6-31G*
  Basis Set:
  Basis Set: 6-31G*
  Basis Set:
  @DF-RHF Final Energy:  -270.01623745073982
    Total Energy =                       -270.0162374507398226
  Basis Set: 6-31G*
  Basis Set:
  Basis Set: 6-31G*
  Basis Set:
  @DF-RHF Final Energy:  -270.01707227289143
    Total Energy =                       -270.0170722728915962
  Basis Set: 6-31G*
  Basis Set:
  Basis Set: 6-31G*
  Basis Set:
  @DF-RHF Final Energy:  -270.01700359558879
    Total Energy =                       -270.0170035955887897
  Basis Set: 6-31G*
  Basis Set:
  @DF-RHF Final Energy:  -270.01718675851032
    Total Energy =                       -270.0171867585102063
  @DF-RHF Final Energy:  -270.01722405907270
    Total Energy =                       -270.0172240590727597
  Basis Set: 6-31G*
  Basis Set:
  @DF-RHF Final Energy:  -270.01722014651534
    Total Energy =                       -270.0172201465153421
  Basis Set: 6-31G*
  Basis Set:
  Basis Set: 6-31G*
  Basis Set:
  @DF-RHF Final Energy:  -270.01722606404383
    Total Energy =                       -270.0172260640438253
  Basis Set: 6-31G*
  Basis Set:
  Basis Set: 6-31G*
  Basis Set:
  @DF-RHF Final Energy:  -270.01722734070438
    Total Energy =                       -270.0172273407045509
  Basis Set: 6-31G*
  Basis Set:
  Charge       = 0
  Multiplicity = 1
  Basis Set: 6-31G*
  Basis Set:

    Orbital Energies (a.u.)
    -----------------------

    Doubly Occupied:

       1A    -20.562554     2A    -11.326554     3A    -11.236819
       4A    -11.234957     5A    -11.229569     6A    -11.218182
       7A     -1.402394     8A     -1.095773     9A     -1.015073
      10A     -0.914678    11A     -0.810723    12A     -0.787919
      13A     -0.678792    14A     -0.643890    15A     -0.631396
      16A     -0.601162    17A     -0.579278    18A     -0.556072
      19A     -0.538551    20A     -0.506519    21A     -0.486872
      22A     -0.478667    23A     -0.471430    24A     -0.409873

  @DF-RHF Final Energy:  -270.01722743542234

   => Energetics <=

    Nuclear Repulsion Energy =            232.1205558572967220
    One-Electron Energy =                -825.4401719227498688
    Two-Electron Energy =                 323.3023886300306913
    DFT Exchange-Correlation Energy =       0.0000000000000000
    Empirical Dispersion Energy =           0.0000000000000000
    PCM Polarization Energy =               0.0000000000000000
    EFP Energy =                            0.0000000000000000
    Total Energy =                       -270.0172274354224555
    Molecular point group: c1
  Basis Set: 6-31G*
  Basis Set:

  -Total Gradient:
     Atom            X                  Y                   Z
    ------   -----------------  -----------------  -----------------
       1        0.000002144489     0.000003686282     0.000006604439
       2        0.000003120904    -0.000011464435    -0.000015924369
       3       -0.000003630619     0.000001580493     0.000042602254
       4       -0.000008596298     0.000008968704    -0.000007802324
       5       -0.002155071824    -0.003298030682    -0.000678549168
       6       -0.000000014935    -0.000006603771    -0.000007201766
       7        0.000004323334    -0.000009703667    -0.000002228125
       8       -0.001532628479    -0.002714758321    -0.002416297401
       9        0.002041283266     0.003218738876     0.000927693644
      10        0.000006128016     0.000004325079    -0.000000188594
      11       -0.000007328081    -0.000006495331    -0.000018702221
      12        0.001650144548     0.002819088574     0.002164266544
      13        0.000006949424     0.000002508229     0.000004599963
      14       -0.000007700328    -0.000006762812     0.000002920857
      15        0.000003153986    -0.000005546332    -0.000003378160
      16       -0.000002277403     0.000000469119     0.000001584428

  **** Optimization is complete! (in 10 steps) ****
    Final optimized geometry and variables:
    Molecular point group: c1

    Geometry (in Angstrom), charge = 0, multiplicity = 1:

    H            2.428237010127    -0.327591331945    -0.602424039795
    C            1.570576161232    -0.986082065460    -0.419764606620
    C            0.220868155700    -0.320038190795    -0.499551922443
    O            1.742406715274    -2.136519941181    -0.177045576261
    C            0.120410031139     0.863350455068     0.471582042442
    H           -0.534246267895    -1.070738114297    -0.306160909338
    H            0.088728073319     0.039018193198    -1.520095635950
    C           -1.147315902836     1.715652789405     0.321599065371
    H            0.205334874758     0.513014598921     1.497467915058
    H            0.979127905633     1.515085004721     0.319643846581
    C           -2.459928914868     0.933860386076     0.291217349491
    H           -1.057270136821     2.342112192648    -0.562947549487
    H           -1.174489892552     2.409180779706     1.158532148385
    H           -2.541258820058     0.308148801684    -0.591222669997
    H           -3.306882008792     1.612287052876     0.288381493275
    H           -2.553815868628     0.292289416752     1.163064936993

  Mulliken Charges: (a.u.)
   Center  Symbol    Alpha    Beta     Spin     Total
       1     H     0.43207  0.43207  0.00000  0.13586
       2     C     2.82985  2.82985  0.00000  0.34030
       3     C     3.21010  3.21010  0.00000 -0.42020
       4     O     4.23683  4.23683  0.00000 -0.47365
       5     C     3.16650  3.16650  0.00000 -0.33300
       6     H     0.39689  0.39689  0.00000  0.20622
       7     H     0.41037  0.41037  0.00000  0.17926
       8     C     3.15228  3.15228  0.00000 -0.30456
       9     H     0.41229  0.41229  0.00000  0.17542
      10     H     0.41822  0.41822  0.00000  0.16356
      11     C     3.24367  3.24367  0.00000 -0.48734
      12     H     0.42049  0.42049  0.00000  0.15903
      13     H     0.41724  0.41724  0.00000  0.16553
      14     H     0.41838  0.41838  0.00000  0.16324
      15     H     0.41611  0.41611  0.00000  0.16778
      16     H     0.41872  0.41872  0.00000  0.16255

   Total alpha = 24.00000, Total beta = 24.00000, Total charge = -0.00000
