  ==> Input File <==

--------------------------------------------------------------------------
set {
	reference rhf
	basis cc-pvtz
}

set_num_threads( 4 )
memory 2 gb

molecule MOL {
0 1

H	 -3.034039	 -0.667848	 0.004703
O	 -2.240597	 -1.171748	 0.000934
C	 -1.159675	 -0.364500	 0.000370
C	 -1.220594	 0.954376	 0.401953
C	 0.040745	 -0.911365	 -0.426228
H	 -2.150529	 1.380896	 0.731135
C	 -0.067775	 1.720049	 0.370682
H	 0.053552	 -1.939036	 -0.733905
C	 1.189841	 -0.147065	 -0.454523
H	 -0.111833	 2.747403	 0.679510
C	 1.127247	 1.183390	 -0.052079
C	 2.500306	 -0.748327	 -0.895894
H	 2.011462	 1.791830	 -0.072714
H	 3.038053	 -0.071942	 -1.548698
H	 2.348526	 -1.679593	 -1.424526
H	 3.135128	 -0.950922	 -0.039974

	symmetry c1
}
set optking {
	frozen_dihedral = ("
		5 3 2 1
	")
}

ee = optimize('scf')
oeprop('DIPOLE', 'QUADRUPOLE', 'MULLIKEN_CHARGES')
f=open( 'psi4out.xyz', 'w' )
f.write( "16  " )
f.write( str(ee) + "\n" )
f.write( MOL.save_string_xyz() )
f.close()
--------------------------------------------------------------------------

    Molecular point group: c1
  Charge       = 0
  Multiplicity = 1
  Basis Set: CC-PVTZ
  Basis Set:
  @DF-RHF Final Energy:  -344.72021305542614
    Total Energy =                       -344.7202130554262567
    Molecular point group: c1
  Basis Set: CC-PVTZ
  Basis Set:
  Basis Set: CC-PVTZ
  Basis Set:
  @DF-RHF Final Energy:  -344.72022824710245
    Total Energy =                       -344.7202282471022272
  Basis Set: CC-PVTZ
  Basis Set:
  Basis Set: CC-PVTZ
  Basis Set:
  @DF-RHF Final Energy:  -344.72023131181567
    Total Energy =                       -344.7202313118156098
  Basis Set: CC-PVTZ
  Basis Set:
  Charge       = 0
  Multiplicity = 1
  Basis Set: CC-PVTZ
  Basis Set:

    Orbital Energies (a.u.)
    -----------------------

    Doubly Occupied:

       1A    -20.581340     2A    -11.294222     3A    -11.240537
       4A    -11.232681     5A    -11.219776     6A    -11.219033
       7A    -11.214238     8A    -11.213448     9A     -1.411627
      10A     -1.154179    11A     -1.046288    12A     -1.008507
      13A     -0.938663    14A     -0.827536    15A     -0.826182
      16A     -0.717670    17A     -0.684143    18A     -0.657578
      19A     -0.613428    20A     -0.595788    21A     -0.575239
      22A     -0.571232    23A     -0.565030    24A     -0.532741
      25A     -0.507113    26A     -0.484723    27A     -0.472290
      28A     -0.333390    29A     -0.311627

  @DF-RHF Final Energy:  -344.72023158324339

   => Energetics <=

    Nuclear Repulsion Energy =            346.3505063745277539
    One-Electron Energy =               -1154.0409785163915330
    Two-Electron Energy =                 462.9702405586207874
    DFT Exchange-Correlation Energy =       0.0000000000000000
    Empirical Dispersion Energy =           0.0000000000000000
    PCM Polarization Energy =               0.0000000000000000
    EFP Energy =                            0.0000000000000000
    Total Energy =                       -344.7202315832429917
    Molecular point group: c1
  Basis Set: CC-PVTZ
  Basis Set:

  -Total Gradient:
     Atom            X                  Y                   Z
    ------   -----------------  -----------------  -----------------
       1       -0.000000265178     0.000011744175    -0.001969427458
       2       -0.000121128288     0.000154799965     0.001827978266
       3        0.000385831810    -0.000499365997     0.001470053400
       4       -0.000023119015    -0.000065912186    -0.000011960029
       5       -0.000219338011     0.000412101025    -0.001321377966
       6        0.000004227119     0.000000709238     0.000004957412
       7        0.000088407715     0.000010885684    -0.000002025224
       8       -0.000008201140    -0.000006784419    -0.000013089870
       9       -0.000033312167    -0.000105144646     0.000017678539
      10       -0.000009526835     0.000003650934    -0.000009930613
      11       -0.000057780262     0.000073065637     0.000014537568
      12       -0.000003835520     0.000008580988    -0.000006051080
      13        0.000003629536    -0.000003008179     0.000003638679
      14        0.000001937188     0.000000910718    -0.000006665677
      15       -0.000000286597    -0.000003539427     0.000002544327
      16       -0.000007240349     0.000007306489    -0.000000860275

  **** Optimization is complete! (in 4 steps) ****
    Final optimized geometry and variables:
    Molecular point group: c1

    Geometry (in Angstrom), charge = 0, multiplicity = 1:

    H           -3.020313712497    -0.686483158583     0.151927346769
    O           -2.227761527353    -1.191858826067     0.145635364453
    C           -1.144128429800    -0.384317593555     0.139106080614
    C           -1.206094474689     0.934894962425     0.539287090491
    C            0.054985054959    -0.929689920020    -0.290899680803
    H           -2.135171310530     1.357622024678     0.874989196371
    C           -0.054251010633     1.701504715754     0.506245860127
    H            0.066409542880    -1.955610904877    -0.604455843311
    C            1.205959076616    -0.167017441526    -0.313384074264
    H           -0.098557922557     2.729347267792     0.813376975891
    C            1.141994920232     1.163307601255     0.087606607283
    C            2.516624212765    -0.768160315652    -0.754286309145
    H            2.026323555252     1.771729249637     0.068403911549
    H            3.056538897888    -0.090680346425    -1.404178414224
    H            2.364708452270    -1.697811322674    -1.285790892540
    H            3.149516574994    -0.974248256890     0.102238948658

  Mulliken Charges: (a.u.)
   Center  Symbol    Alpha    Beta     Spin     Total
       1     H     0.38654  0.38654  0.00000  0.22692
       2     O     4.17773  4.17773  0.00000 -0.35547
       3     C     2.84026  2.84026  0.00000  0.31948
       4     C     3.14635  3.14635  0.00000 -0.29270
       5     C     3.14052  3.14052  0.00000 -0.28104
       6     H     0.43307  0.43307  0.00000  0.13385
       7     C     3.05746  3.05746  0.00000 -0.11491
       8     H     0.42172  0.42172  0.00000  0.15656
       9     C     2.93592  2.93592  0.00000  0.12816
      10     H     0.42292  0.42292  0.00000  0.15415
      11     C     3.11779  3.11779  0.00000 -0.23557
      12     C     3.14632  3.14632  0.00000 -0.29263
      13     H     0.42781  0.42781  0.00000  0.14438
      14     H     0.44855  0.44855  0.00000  0.10291
      15     H     0.45028  0.45028  0.00000  0.09945
      16     H     0.44677  0.44677  0.00000  0.10646

   Total alpha = 29.00000, Total beta = 29.00000, Total charge = -0.00000
