                              Psi4 1.0.54 Driver

  ==> Input File <==

--------------------------------------------------------------------------
set {
	reference rhf
	basis cc-pvtz
}

set_num_threads( 4 )
memory 2 gb

molecule MOL {
0 1

H	 -2.644180	 -0.653737	 1.272255
C	 -2.092774	 -0.380414	 0.391915
O	 -0.808934	 -0.154049	 0.752536
F	 -2.163230	 -1.351640	 -0.507133
F	 -2.627232	 0.691260	 -0.169301
C	 -0.408917	 -0.511671	 2.021943
C	 0.434979	 0.634176	 2.575252
Cl	 0.539913	 -2.009888	 1.997314
H	 -1.239000	 -0.668069	 2.688388
F	 0.836432	 0.362004	 3.790892
F	 -0.299824	 1.719910	 2.625858
F	 1.480164	 0.881546	 1.834545

	symmetry c1
}
set optking {
	frozen_dihedral = ("
		6 3 2 4
	")
}

ee,wfn = optimize('scf', return_wfn=True)
oeprop( wfn, 'DIPOLE', 'QUADRUPOLE', 'MULLIKEN_CHARGES')
f=open( 'psi4out.xyz', 'w' )
f.write( "12  " )
f.write( str(ee) + "\n" )
f.write( MOL.save_string_xyz() )
f.close()
--------------------------------------------------------------------------

    Molecular point group: c1
  Charge       = 0
  Multiplicity = 1
  Basis Set: CC-PVTZ
  Basis Set:
  @DF-RHF Final Energy: -1146.61365057991861
    Total Energy =                      -1146.6136505799190672
    Molecular point group: c1
  Basis Set: CC-PVTZ
  Basis Set:
  Basis Set: CC-PVTZ
  Basis Set:
  @DF-RHF Final Energy: -1146.61500142698605
    Total Energy =                      -1146.6150014269865096
  Basis Set: CC-PVTZ
  Basis Set:
  Basis Set: CC-PVTZ
  Basis Set:
  @DF-RHF Final Energy: -1146.61580989022991
    Total Energy =                      -1146.6158098902296842
  Basis Set: CC-PVTZ
  Basis Set:
  Basis Set: CC-PVTZ
  Basis Set:
  @DF-RHF Final Energy: -1146.61616880661973
    Total Energy =                      -1146.6161688066176794
  Basis Set: CC-PVTZ
  Basis Set:
  @DF-RHF Final Energy: -1146.57793695201508
    Total Energy =                      -1146.5779369520146247
  @DF-RHF Final Energy: -1146.61543747153337
    Total Energy =                      -1146.6154374715329141
  @DF-RHF Final Energy: -1146.61649731447346
    Total Energy =                      -1146.6164973144736905
  Basis Set: CC-PVTZ
  Basis Set:
  @DF-RHF Final Energy: -1146.61652564333917
    Total Energy =                      -1146.6165256433394006
  Basis Set: CC-PVTZ
  Basis Set:
  Basis Set: CC-PVTZ
  Basis Set:
  @DF-RHF Final Energy: -1146.61654336705396
    Total Energy =                      -1146.6165433670548737
  Basis Set: CC-PVTZ
  Basis Set:
  Basis Set: CC-PVTZ
  Basis Set:
  @DF-RHF Final Energy: -1146.61654582028723
    Total Energy =                      -1146.6165458202876835
  Basis Set: CC-PVTZ
  Basis Set:
  Charge       = 0
  Multiplicity = 1
  Basis Set: CC-PVTZ
  Basis Set:

    Orbital Energies (a.u.)
    -----------------------

    Doubly Occupied:

       1A   -104.863733     2A    -26.359689     3A    -26.358188
       4A    -26.357330     5A    -26.339335     6A    -26.336764
       7A    -20.642863     8A    -11.526019     9A    -11.485214
      10A    -11.410141    11A    -10.589291    12A     -8.056053
      13A     -8.054108    14A     -8.054034    15A     -1.772735
      16A     -1.721644    17A     -1.667603    18A     -1.665940
      19A     -1.641867    20A     -1.492415    21A     -1.180589
      22A     -1.060220    23A     -0.988073    24A     -0.935974
      25A     -0.867335    26A     -0.864502    27A     -0.856400
      28A     -0.825915    29A     -0.815679    30A     -0.797791
      31A     -0.738574    32A     -0.735027    33A     -0.707093
      34A     -0.697733    35A     -0.689470    36A     -0.684149
      37A     -0.668445    38A     -0.666567    39A     -0.657429
      40A     -0.649903    41A     -0.610147    42A     -0.565365
      43A     -0.526210    44A     -0.486128    45A     -0.477947

  @DF-RHF Final Energy: -1146.61654840423148

   => Energetics <=

    Nuclear Repulsion Energy =            727.4335675672898560
    One-Electron Energy =               -3037.8049755561050915
    Two-Electron Energy =                1163.7548595845848922
    DFT Exchange-Correlation Energy =       0.0000000000000000
    Empirical Dispersion Energy =           0.0000000000000000
    PCM Polarization Energy =               0.0000000000000000
    EFP Energy =                            0.0000000000000000
    Total Energy =                      -1146.6165484042301159
    Molecular point group: c1
  Basis Set: CC-PVTZ
  Basis Set:

  -Total Gradient:
     Atom            X                  Y                   Z
    ------   -----------------  -----------------  -----------------
       1       -0.000004912590     0.000014455698    -0.000005539118
       2       -0.000042696554    -0.000119195676     0.000110115172
       3        0.000163857183    -0.000059080074    -0.000190934126
       4       -0.000082803404     0.000137344415    -0.000031459334
       5        0.000030726614    -0.000068691812    -0.000009157425
       6       -0.000133492297     0.000181022320     0.000139006151
       7        0.000139635560    -0.000035264921    -0.000011098394
       8        0.000025172229    -0.000049620794    -0.000011735476
       9        0.000010268837    -0.000015801429    -0.000019334849
      10       -0.000036410441     0.000007110112     0.000003474899
      11       -0.000000248343     0.000005623498    -0.000020100114
      12       -0.000069096799     0.000002098596     0.000046762607

  **** Optimization is complete! (in 11 steps) ****
    Final optimized geometry and variables:
    Molecular point group: c1

    Geometry (in Angstrom), charge = 0, multiplicity = 1:

    H           -1.987567438011    -1.398501634122    -0.113149097733
    C           -1.838531844516    -0.578217789732    -0.799405368445
    O           -0.746712453699     0.171614797317    -0.491628700473
    F           -1.718480680180    -1.051117049563    -2.021819428853
    F           -2.891456252787     0.210035168201    -0.779158976596
    C            0.137816871992    -0.306308375124     0.432283635339
    C            0.970012493909     0.880082752472     0.915072547323
    CL           1.197760957509    -1.574122128295    -0.232228940056
    H           -0.354431639159    -0.736072353883     1.290750858580
    F            1.821404021927     0.491065438327     1.830289648095
    F            0.171777821075     1.767564642132     1.457536072659
    F            1.626568216422     1.451370740100    -0.054068187398

  Mulliken Charges: (a.u.)
   Center  Symbol    Alpha    Beta     Spin     Total
       1     H     0.48445  0.48445  0.00000  0.03111
       2     C     2.73431  2.73431  0.00000  0.53139
       3     O     4.13833  4.13833  0.00000 -0.27665
       4     F     4.60630  4.60630  0.00000 -0.21260
       5     F     4.60495  4.60495  0.00000 -0.20990
       6     C     2.95173  2.95173  0.00000  0.09655
       7     C     2.66638  2.66638  0.00000  0.66724
       8    CL     8.57527  8.57527  0.00000 -0.15054
       9     H     0.43502  0.43502  0.00000  0.12996
      10     F     4.60235  4.60235  0.00000 -0.20471
      11     F     4.60318  4.60318  0.00000 -0.20635
      12     F     4.59774  4.59774  0.00000 -0.19548

   Total alpha = 45.00000, Total beta = 45.00000, Total charge =  0.00000

*** Psi4 exiting successfully. Buy a developer a beer!
