  ==> Input File <==

--------------------------------------------------------------------------
set {
	reference rhf
	basis 6-31G*
}

set_num_threads( 4 )
memory 2 gb

molecule MOL {
0 1

H	 -2.172150	 0.880146	 0.502514
C	 -2.018062	 -0.000025	 -0.114509
O	 -0.774054	 0.001095	 -0.743181
H	 -2.760490	 0.003458	 -0.901350
H	 -2.173624	 -0.884374	 0.496163
C	 -0.562849	 0.821299	 -1.878605
C	 0.890732	 0.546260	 -2.257374
C	 -1.488249	 0.418343	 -3.031190
C	 -0.740976	 2.302769	 -1.531282
H	 1.026171	 -0.506556	 -2.477980
H	 1.546431	 0.804534	 -1.433524
H	 1.183807	 1.123719	 -3.128183
H	 -1.407965	 -0.646569	 -3.222360
H	 -1.213841	 0.949325	 -3.936927
H	 -2.527068	 0.650055	 -2.822099
H	 -0.135484	 2.561781	 -0.669108
H	 -0.430926	 2.924234	 -2.365058
H	 -1.773674	 2.549836	 -1.309641

	symmetry c1
}
set optking {
	frozen_dihedral = ("
		6 3 2 5
	")
}

ee = optimize('scf')
oeprop('DIPOLE', 'QUADRUPOLE', 'MULLIKEN_CHARGES')
f=open( 'psi4out.xyz', 'w' )
f.write( "18  " )
f.write( str(ee) + "\n" )
f.write( MOL.save_string_xyz() )
f.close()
--------------------------------------------------------------------------

    Molecular point group: c1
  Charge       = 0
  Multiplicity = 1
  Basis Set: 6-31G*
  Basis Set:
  @DF-RHF Final Energy:  -271.17210870678247
    Total Energy =                       -271.1721087067824669
    Molecular point group: c1
  Basis Set: 6-31G*
  Basis Set:
  Basis Set: 6-31G*
  Basis Set:
  @DF-RHF Final Energy:  -271.17420763432182
    Total Energy =                       -271.1742076343219878
  Basis Set: 6-31G*
  Basis Set:
  Basis Set: 6-31G*
  Basis Set:
  @DF-RHF Final Energy:  -271.17507013815140
    Total Energy =                       -271.1750701381512840
  Basis Set: 6-31G*
  Basis Set:
  Basis Set: 6-31G*
  Basis Set:
  @DF-RHF Final Energy:  -271.17503499936754
    Total Energy =                       -271.1750349993675400
  Basis Set: 6-31G*
  Basis Set:
  @DF-RHF Final Energy:  -271.17509704916421
    Total Energy =                       -271.1750970491642647
  Basis Set: 6-31G*
  Basis Set:
  @DF-RHF Final Energy:  -271.17511437627797
    Total Energy =                       -271.1751143762780316
  Basis Set: 6-31G*
  Basis Set:
  Basis Set: 6-31G*
  Basis Set:
  @DF-RHF Final Energy:  -271.17509927657738
    Total Energy =                       -271.1750992765772708
  Basis Set: 6-31G*
  Basis Set:
  Basis Set: 6-31G*
  Basis Set:
  @DF-RHF Final Energy:  -271.17511836302435
    Total Energy =                       -271.1751183630241826
  Basis Set: 6-31G*
  Basis Set:
  Charge       = 0
  Multiplicity = 1
  Basis Set: 6-31G*
  Basis Set:

    Orbital Energies (a.u.)
    -----------------------

    Doubly Occupied:

       1A    -20.546272     2A    -11.281402     3A    -11.260859
       4A    -11.209729     5A    -11.207696     6A    -11.203282
       7A     -1.369653     8A     -1.072845     9A     -0.946222
      10A     -0.939469    11A     -0.912514    12A     -0.752456
      13A     -0.655158    14A     -0.644519    15A     -0.637812
      16A     -0.591790    17A     -0.573042    18A     -0.552600
      19A     -0.535478    20A     -0.524036    21A     -0.514827
      22A     -0.488763    23A     -0.486584    24A     -0.438801
      25A     -0.403383

  @DF-RHF Final Energy:  -271.17511767232457

   => Energetics <=

    Nuclear Repulsion Energy =            272.3390071329887974
    One-Electron Energy =                -907.5298634752746239
    Two-Electron Energy =                 364.0157386699611948
    DFT Exchange-Correlation Energy =       0.0000000000000000
    Empirical Dispersion Energy =           0.0000000000000000
    PCM Polarization Energy =               0.0000000000000000
    EFP Energy =                            0.0000000000000000
    Total Energy =                       -271.1751176723245749
    Molecular point group: c1
  Basis Set: 6-31G*
  Basis Set:

  -Total Gradient:
     Atom            X                  Y                   Z
    ------   -----------------  -----------------  -----------------
       1       -0.000002172314    -0.000016430862     0.000004494756
       2        0.000542631183     0.000262463574     0.000892644395
       3        0.000562292457     0.000923321732     0.000848296569
       4       -0.000060569491    -0.000004610024     0.000010906794
       5       -0.000621720461    -0.000548207229    -0.001100994272
       6       -0.000455569403    -0.000669766070    -0.000586655889
       7       -0.000034988058     0.000013988830    -0.000037959417
       8        0.000022113856    -0.000037960853     0.000046205481
       9        0.000046359160     0.000055915105    -0.000076333795
      10        0.000017894658    -0.000012552985     0.000002231037
      11       -0.000038397845     0.000014301921    -0.000004599792
      12       -0.000001865184    -0.000015785899    -0.000024739111
      13       -0.000009956403     0.000002172678     0.000007080453
      14        0.000013206503    -0.000000777395    -0.000004806010
      15       -0.000018705225    -0.000003996254     0.000044797387
      16       -0.000016478966     0.000012834871     0.000014860682
      17        0.000014570574     0.000024112064     0.000007669262
      18        0.000041354957     0.000000976797    -0.000043098531

  **** Optimization is complete! (in 9 steps) ****
    Final optimized geometry and variables:
    Molecular point group: c1

    Geometry (in Angstrom), charge = 0, multiplicity = 1:

    H           -1.206947066355     0.208769269694     2.201818349609
    C           -1.213431673772    -0.614289449400     1.492915213150
    O           -0.005928817887    -0.713244937563     0.801913878865
    H           -2.067059819201    -0.494019290345     0.833644492739
    H           -1.342707485119    -1.541409172482     2.035904665057
    C            0.235014357801     0.134242689482    -0.307377554199
    C            1.699875494519    -0.122384243478    -0.653272497238
    C           -0.655475049331    -0.260688031059    -1.489940828955
    C            0.033261528757     1.606975063785     0.061601881993
    H            1.852141000849    -1.172702606000    -0.874678169065
    H            2.334009128474     0.140078393797     0.185983226307
    H            2.005804731104     0.461218196917    -1.515621967036
    H           -0.537756405538    -1.316577834459    -1.707925025293
    H           -0.382160452924     0.304595451708    -2.375226745383
    H           -1.705007973142    -0.069260270933    -1.294856244360
    H            0.624713713544     1.862122864889     0.934778977718
    H            0.343379112999     2.247027611136    -0.757887348702
    H           -1.006002982645     1.832905827746     0.276507645174

  Mulliken Charges: (a.u.)
   Center  Symbol    Alpha    Beta     Spin     Total
       1     H     0.42724  0.42724  0.00000  0.14551
       2     C     3.07881  3.07881  0.00000 -0.15763
       3     O     4.31927  4.31927  0.00000 -0.63854
       4     H     0.43103  0.43103  0.00000  0.13793
       5     H     0.41359  0.41359  0.00000  0.17282
       6     C     2.84351  2.84351  0.00000  0.31298
       7     C     3.23306  3.23306  0.00000 -0.46611
       8     C     3.24367  3.24367  0.00000 -0.48734
       9     C     3.24903  3.24903  0.00000 -0.49806
      10     H     0.41363  0.41363  0.00000  0.17274
      11     H     0.41473  0.41473  0.00000  0.17054
      12     H     0.42510  0.42510  0.00000  0.14981
      13     H     0.41327  0.41327  0.00000  0.17347
      14     H     0.42106  0.42106  0.00000  0.15788
      15     H     0.42074  0.42074  0.00000  0.15852
      16     H     0.41361  0.41361  0.00000  0.17278
      17     H     0.41868  0.41868  0.00000  0.16264
      18     H     0.41997  0.41997  0.00000  0.16006

   Total alpha = 25.00000, Total beta = 25.00000, Total charge = -0.00000
