                              Psi4 1.0.54 Driver

  ==> Input File <==

--------------------------------------------------------------------------
set {
	reference rhf
	basis cc-pvtz
}

set_num_threads( 4 )
memory 2 gb

molecule MOL {
0 1

H	 3.287094	 -0.467332	 0.034615
C	 2.230769	 -0.277401	 0.026401
C	 1.667068	 0.435430	 -1.021190
C	 1.441463	 -0.743936	 1.058320
H	 2.287027	 0.794731	 -1.819530
C	 0.312387	 0.681263	 -1.035571
H	 1.880250	 -1.294964	 1.867214
C	 0.081105	 -0.496252	 1.042478
H	 -0.141749	 1.230175	 -1.836266
C	 -0.486398	 0.214248	 0.000000
H	 -0.539109	 -0.856407	 1.842352
C	 -1.946525	 0.470130	 0.000000
O	 -2.779618	 -0.371226	 0.000000
H	 -2.227127	 1.528393	 0.000000

	symmetry c1
}
set optking {
	frozen_dihedral = ("
		8 10 12 14
	")
}

ee,wfn = optimize('scf', return_wfn=True)
oeprop( wfn, 'DIPOLE', 'QUADRUPOLE', 'MULLIKEN_CHARGES')
f=open( 'psi4out.xyz', 'w' )
f.write( "14  " )
f.write( str(ee) + "\n" )
f.write( MOL.save_string_xyz() )
f.close()
--------------------------------------------------------------------------

    Molecular point group: c1
  Charge       = 0
  Multiplicity = 1
  Basis Set: CC-PVTZ
  Basis Set:
  @DF-RHF Final Energy:  -343.54015604857187
    Total Energy =                       -343.5401560485718733
    Molecular point group: c1
  Basis Set: CC-PVTZ
  Basis Set:
  Basis Set: CC-PVTZ
  Basis Set:
  @DF-RHF Final Energy:  -343.53832446606179
    Total Energy =                       -343.5383244660619084
  Basis Set: CC-PVTZ
  Basis Set:
  Basis Set: CC-PVTZ
  Basis Set:
  @DF-RHF Final Energy:  -343.54058039847683
    Total Energy =                       -343.5405803984767203
  Basis Set: CC-PVTZ
  Basis Set:
  Basis Set: CC-PVTZ
  Basis Set:
  @DF-RHF Final Energy:  -343.54109669204956
    Total Energy =                       -343.5410966920499050
  Basis Set: CC-PVTZ
  Basis Set:
  Basis Set: CC-PVTZ
  Basis Set:
  @DF-RHF Final Energy:  -343.54110847520519
    Total Energy =                       -343.5411084752050783
  Basis Set: CC-PVTZ
  Basis Set:
  Charge       = 0
  Multiplicity = 1
  Basis Set: CC-PVTZ
  Basis Set:

    Orbital Energies (a.u.)
    -----------------------

    Doubly Occupied:

       1A    -20.560136     2A    -11.330831     3A    -11.249895
       4A    -11.247956     5A    -11.245748     6A    -11.244588
       7A    -11.242975     8A    -11.241818     9A     -1.414766
      10A     -1.175686    11A     -1.050145    12A     -1.034380
      13A     -0.891068    14A     -0.846162    15A     -0.796975
      16A     -0.725721    17A     -0.681544    18A     -0.657491
      19A     -0.639138    20A     -0.621343    21A     -0.605074
      22A     -0.545929    23A     -0.531595    24A     -0.514669
      25A     -0.507193    26A     -0.426384    27A     -0.352955
      28A     -0.352176

  @DF-RHF Final Energy:  -343.54110923082533

   => Energetics <=

    Nuclear Repulsion Energy =            323.3410210962218798
    One-Electron Energy =               -1106.2955799147919151
    Two-Electron Energy =                 439.4134495877443669
    DFT Exchange-Correlation Energy =       0.0000000000000000
    Empirical Dispersion Energy =           0.0000000000000000
    PCM Polarization Energy =               0.0000000000000000
    EFP Energy =                            0.0000000000000000
    Total Energy =                       -343.5411092308256684
    Molecular point group: c1
  Basis Set: CC-PVTZ
  Basis Set:

  -Total Gradient:
     Atom            X                  Y                   Z
    ------   -----------------  -----------------  -----------------
       1        0.000003398753     0.000004589013    -0.000015789899
       2       -0.000018663768    -0.000096286602     0.000177302867
       3       -0.000178251906     0.000069387197    -0.000089062313
       4        0.000199289974     0.000056265925    -0.000083343742
       5        0.000012400074    -0.000007489801     0.000008936244
       6        0.000176721963    -0.000070514160    -0.000099396549
       7       -0.000008164433    -0.000003678027     0.000002031728
       8        0.000933020989     0.004784861277     0.002371635980
       9       -0.000012063321    -0.000000340706    -0.000016225818
      10       -0.001495049522    -0.006822201414    -0.001226863064
      11        0.000004365872    -0.000010874936    -0.000008455857
      12        0.000366075727     0.001834586270    -0.007773887595
      13       -0.000126114790    -0.000122975461     0.000025190377
      14        0.000143034385     0.000384671426     0.006727927640

  **** Optimization is complete! (in 6 steps) ****
    Final optimized geometry and variables:
    Molecular point group: c1

    Geometry (in Angstrom), charge = 0, multiplicity = 1:

    H            3.297106997971    -0.464176385781     0.004121695283
    C            2.240436015214    -0.277454686213    -0.008397828519
    C            1.674494878560     0.415880438623    -1.062727310282
    C            1.447963089299    -0.722137792902     1.032946359490
    H            2.289685364711     0.766043958429    -1.868954238636
    C            0.317527091535     0.670020277089    -1.069569527791
    H            1.888676504675    -1.248875867507     1.857247103617
    C            0.085983841638    -0.490308952812     1.014514325170
    H           -0.118167890054     1.229622656540    -1.876816787772
    C           -0.484563653206     0.191205519335    -0.046664635603
    H           -0.536428658164    -0.844092447053     1.813298827214
    C           -1.942519006296     0.512982105019    -0.021984865949
    O           -2.797182972163    -0.289336168122     0.130276828841
    H           -2.188286715945     1.579178951234    -0.068965508430

  Mulliken Charges: (a.u.)
   Center  Symbol    Alpha    Beta     Spin     Total
       1     H     0.42044  0.42044  0.00000  0.15912
       2     C     3.07993  3.07993  0.00000 -0.15986
       3     C     3.06586  3.06586  0.00000 -0.13172
       4     C     3.06511  3.06511  0.00000 -0.13022
       5     H     0.42070  0.42070  0.00000  0.15861
       6     C     3.09709  3.09709  0.00000 -0.19419
       7     H     0.42061  0.42061  0.00000  0.15877
       8     C     3.09576  3.09576  0.00000 -0.19152
       9     H     0.42387  0.42387  0.00000  0.15225
      10     C     2.94908  2.94908  0.00000  0.10184
      11     H     0.41511  0.41511  0.00000  0.16977
      12     C     2.92542  2.92542  0.00000  0.14916
      13     O     4.16234  4.16234  0.00000 -0.32468
      14     H     0.45867  0.45867  0.00000  0.08266

   Total alpha = 28.00000, Total beta = 28.00000, Total charge =  0.00000

*** Psi4 exiting successfully. Buy a developer a beer!
