  ==> Input File <==

--------------------------------------------------------------------------
set {
	reference rhf
	basis 6-31G*
}

set_num_threads( 4 )
memory 2 gb

molecule MOL {
0 1

H	 1.127817	 -0.467168	 -0.545973
C	 0.850167	 0.441173	 0.000644
C	 -0.623425	 0.760064	 0.000248
O	 1.684619	 1.092354	 0.540458
C	 -1.518387	 -0.473136	 -0.000101
H	 -0.818289	 1.390622	 -0.866171
H	 -0.818694	 1.390413	 0.866696
H	 -1.333417	 -1.085530	 -0.874338
H	 -2.563510	 -0.183466	 -0.000351
H	 -1.333864	 -1.085676	 0.874123

	symmetry c1
}
set optking {
	frozen_dihedral = ("
		4 2 3 6
	")
}

ee = optimize('scf')
oeprop('DIPOLE', 'QUADRUPOLE', 'MULLIKEN_CHARGES')
f=open( 'psi4out.xyz', 'w' )
f.write( "10  " )
f.write( str(ee) + "\n" )
f.write( MOL.save_string_xyz() )
f.close()
--------------------------------------------------------------------------

    Molecular point group: c1
  Charge       = 0
  Multiplicity = 1
  Basis Set: 6-31G*
  Basis Set:
  @DF-RHF Final Energy:  -191.94959553981312
    Total Energy =                       -191.9495955398130889
    Molecular point group: c1
  Basis Set: 6-31G*
  Basis Set:
  Basis Set: 6-31G*
  Basis Set:
  @DF-RHF Final Energy:  -191.94874150933464
    Total Energy =                       -191.9487415093346954
  Basis Set: 6-31G*
  Basis Set:
  Basis Set: 6-31G*
  Basis Set:
  @DF-RHF Final Energy:  -191.94977546840363
    Total Energy =                       -191.9497754684035726
  Basis Set: 6-31G*
  Basis Set:
  Basis Set: 6-31G*
  Basis Set:
  @DF-RHF Final Energy:  -191.94985548463046
    Total Energy =                       -191.9498554846304330
  Basis Set: 6-31G*
  Basis Set:
  Charge       = 0
  Multiplicity = 1
  Basis Set: 6-31G*
  Basis Set:

    Orbital Energies (a.u.)
    -----------------------

    Doubly Occupied:

       1A    -20.563477     2A    -11.328515     3A    -11.239366
       4A    -11.233046     5A     -1.403946     6A     -1.066968
       7A     -0.903181     8A     -0.796783     9A     -0.665915
      10A     -0.640505    11A     -0.627229    12A     -0.558607
      13A     -0.544190    14A     -0.521407    15A     -0.491958
      16A     -0.412686

  @DF-RHF Final Energy:  -191.94985575930963

   => Energetics <=

    Nuclear Repulsion Energy =            116.9748562376789067
    One-Electron Energy =                -491.8538705431300855
    Two-Electron Energy =                 182.9291585461414797
    DFT Exchange-Correlation Energy =       0.0000000000000000
    Empirical Dispersion Energy =           0.0000000000000000
    PCM Polarization Energy =               0.0000000000000000
    EFP Energy =                            0.0000000000000000
    Total Energy =                       -191.9498557593096848
    Molecular point group: c1
  Basis Set: 6-31G*
  Basis Set:

  -Total Gradient:
     Atom            X                  Y                   Z
    ------   -----------------  -----------------  -----------------
       1       -0.000020497029    -0.000001318078     0.000004269680
       2       -0.000116286048    -0.000509565243     0.001077417825
       3       -0.000140316136    -0.000658378024    -0.000825666728
       4        0.000069652292     0.000455741595    -0.000694510492
       5        0.000040369668     0.000000747803    -0.000005419403
       6        0.000159178795     0.000651803075     0.000428473891
       7       -0.000003925622     0.000027164114     0.000022489076
       8        0.000002149370    -0.000006334856     0.000007321995
       9       -0.000000067759     0.000026827735     0.000001141003
      10        0.000009742459     0.000013311879    -0.000015516848

  **** Optimization is complete! (in 5 steps) ****
    Final optimized geometry and variables:
    Molecular point group: c1

    Geometry (in Angstrom), charge = 0, multiplicity = 1:

    H            1.029154293999    -0.922297425810    -0.688861028066
    C            0.751669537297    -0.016979952447    -0.135475761964
    C           -0.721818825391     0.313801443390    -0.120929794708
    O            1.589559273595     0.647192967518     0.382090604797
    C           -1.615859427252    -0.925915363387    -0.137722551895
    H           -0.916383112683     0.926942308621    -0.999600699402
    H           -0.914757805524     0.937772841381     0.744058319727
    H           -1.423438841751    -1.540612341549    -1.011983487644
    H           -2.661912150027    -0.642910190555    -0.158001473652
    H           -1.455787506239    -1.539804277819     0.743149062730

  Mulliken Charges: (a.u.)
   Center  Symbol    Alpha    Beta     Spin     Total
       1     H     0.43113  0.43113  0.00000  0.13774
       2     C     2.83211  2.83211  0.00000  0.33577
       3     C     3.20741  3.20741  0.00000 -0.41483
       4     O     4.23800  4.23800  0.00000 -0.47600
       5     C     3.25231  3.25231  0.00000 -0.50461
       6     H     0.40278  0.40278  0.00000  0.19444
       7     H     0.39756  0.39756  0.00000  0.20487
       8     H     0.41662  0.41662  0.00000  0.16676
       9     H     0.40924  0.40924  0.00000  0.18153
      10     H     0.41283  0.41283  0.00000  0.17433

   Total alpha = 16.00000, Total beta = 16.00000, Total charge = -0.00000
