  ==> Input File <==

--------------------------------------------------------------------------
set {
	reference rhf
	basis cc-pvtz
}

set_num_threads( 4 )
memory 2 gb

molecule MOL {
0 1

H	 -2.580715	 -1.041876	 0.034447
O	 -2.313989	 -0.142475	 -0.025864
C	 -0.943808	 -0.065018	 -0.330000
H	 -0.812293	 -0.225641	 -1.398673
C	 -0.231030	 -1.182113	 0.407592
C	 -0.353797	 1.300461	 0.050970
H	 -0.312800	 -0.992012	 1.473041
H	 -0.738841	 -2.119564	 0.220514
C	 1.246176	 -1.268044	 -0.015480
H	 -0.539537	 2.008579	 -0.751815
H	 -0.889989	 1.662858	 0.920677
C	 1.153605	 1.231851	 0.356834
H	 1.823096	 -1.684665	 0.802361
H	 1.352335	 -1.958223	 -0.845114
C	 1.826409	 0.100723	 -0.416008
H	 1.622968	 2.181508	 0.128734
H	 1.301983	 1.066493	 1.419367
H	 2.897299	 0.112407	 -0.249665
H	 1.683458	 0.265621	 -1.480024

	symmetry c1
}
set optking {
	frozen_dihedral = ("
		1 2 3 4
	")
}

ee = optimize('scf')
oeprop('DIPOLE', 'QUADRUPOLE', 'MULLIKEN_CHARGES')
f=open( 'psi4out.xyz', 'w' )
f.write( "19  " )
f.write( str(ee) + "\n" )
f.write( MOL.save_string_xyz() )
f.close()
--------------------------------------------------------------------------

    Molecular point group: c1
  Charge       = 0
  Multiplicity = 1
  Basis Set: CC-PVTZ
  Basis Set:
  @DF-RHF Final Energy:  -309.16118243106951
    Total Energy =                       -309.1611824310696193
    Molecular point group: c1
  Basis Set: CC-PVTZ
  Basis Set:
  Basis Set: CC-PVTZ
  Basis Set:
  @DF-RHF Final Energy:  -309.16286651766990
    Total Energy =                       -309.1628665176700679
  Basis Set: CC-PVTZ
  Basis Set:
  Basis Set: CC-PVTZ
  Basis Set:
  @DF-RHF Final Energy:  -309.16314773035555
    Total Energy =                       -309.1631477303556039
  Basis Set: CC-PVTZ
  Basis Set:
  Basis Set: CC-PVTZ
  Basis Set:
  @DF-RHF Final Energy:  -309.16315375754391
    Total Energy =                       -309.1631537575437960
  Basis Set: CC-PVTZ
  Basis Set:
  Charge       = 0
  Multiplicity = 1
  Basis Set: CC-PVTZ
  Basis Set:

    Orbital Energies (a.u.)
    -----------------------

    Doubly Occupied:

       1A    -20.542587     2A    -11.267236     3A    -11.217655
       4A    -11.215343     5A    -11.214310     6A    -11.212864
       7A    -11.206742     8A     -1.362890     9A     -1.111003
      10A     -1.004499    11A     -0.989789    12A     -0.851288
      13A     -0.832122    14A     -0.737309    15A     -0.700094
      16A     -0.660415    17A     -0.619321    18A     -0.612611
      19A     -0.573167    20A     -0.547984    21A     -0.530312
      22A     -0.521638    23A     -0.499530    24A     -0.488191
      25A     -0.468082    26A     -0.449410    27A     -0.427694
      28A     -0.415397

  @DF-RHF Final Energy:  -309.16315444957627

   => Energetics <=

    Nuclear Repulsion Energy =            332.0636542120190597
    One-Electron Energy =               -1077.8946583517656563
    Two-Electron Energy =                 436.6678496901702147
    DFT Exchange-Correlation Energy =       0.0000000000000000
    Empirical Dispersion Energy =           0.0000000000000000
    PCM Polarization Energy =               0.0000000000000000
    EFP Energy =                            0.0000000000000000
    Total Energy =                       -309.1631544495763819
    Molecular point group: c1
  Basis Set: CC-PVTZ
  Basis Set:

  -Total Gradient:
     Atom            X                  Y                   Z
    ------   -----------------  -----------------  -----------------
       1        0.000407646399    -0.000068815685     0.001909277844
       2       -0.000492854721     0.000473740509    -0.002413939738
       3        0.000126660300    -0.002057928584     0.000779599624
       4       -0.000019488783     0.001654607905    -0.000217280431
       5       -0.000039976012     0.000020542304    -0.000046093367
       6        0.000005956663     0.000009761741    -0.000010787859
       7        0.000002822607     0.000001836826    -0.000011964734
       8        0.000003692828     0.000004159941    -0.000001496722
       9        0.000028435767     0.000010030549     0.000005968468
      10        0.000001122546     0.000006537763    -0.000003040124
      11       -0.000007761308    -0.000022245044    -0.000002583608
      12        0.000015611520     0.000012185049    -0.000008244860
      13        0.000021541871    -0.000007046776     0.000015218970
      14       -0.000001327675     0.000001388864     0.000012126782
      15       -0.000033444351    -0.000022714125    -0.000004375731
      16       -0.000009234663     0.000003152642     0.000001581330
      17       -0.000006334824    -0.000002444369     0.000002231516
      18       -0.000002986976    -0.000026613047    -0.000003109604
      19       -0.000000081185     0.000009863537    -0.000003087758

  **** Optimization is complete! (in 5 steps) ****
    Final optimized geometry and variables:
    Molecular point group: c1

    Geometry (in Angstrom), charge = 0, multiplicity = 1:

    H           -2.659871020752    -0.926645353111     0.004053261655
    O           -2.321396281076    -0.050971860368    -0.036835305762
    C           -0.945832106142    -0.077683808856    -0.326264458919
    H           -0.819434342743    -0.229143397216    -1.396799475361
    C           -0.212851193778    -1.187122764986     0.410801075223
    C           -0.368676053565     1.292530226184     0.043131913167
    H           -0.287519388384    -0.997591499149     1.477102760871
    H           -0.699784050249    -2.141529638639     0.230815274068
    C            1.261694887493    -1.261250885293    -0.024267619334
    H           -0.562275994273     1.986297090458    -0.767022055004
    H           -0.913528215589     1.659025077069     0.904169719137
    C            1.137552991910     1.236083939218     0.352655175171
    H            1.847637244777    -1.677019608715     0.787531328317
    H            1.365821271027    -1.947155989595    -0.857577312086
    C            1.824976581032     0.115351250446    -0.422392296565
    H            1.597282076805     2.191103151578     0.127796012336
    H            1.287655420300     1.069727870508     1.415163292992
    H            2.895582602880     0.137741464051    -0.255663183590
    H            1.679567161135     0.280241405129    -1.485795555577

  Mulliken Charges: (a.u.)
   Center  Symbol    Alpha    Beta     Spin     Total
       1     H     0.39493  0.39493  0.00000  0.21013
       2     O     4.20337  4.20337  0.00000 -0.40674
       3     C     2.92626  2.92626  0.00000  0.14747
       4     H     0.46160  0.46160  0.00000  0.07681
       5     C     3.10636  3.10636  0.00000 -0.21271
       6     C     3.11131  3.11131  0.00000 -0.22263
       7     H     0.45150  0.45150  0.00000  0.09701
       8     H     0.45113  0.45113  0.00000  0.09775
       9     C     3.11406  3.11406  0.00000 -0.22812
      10     H     0.44647  0.44647  0.00000  0.10707
      11     H     0.44391  0.44391  0.00000  0.11219
      12     C     3.10114  3.10114  0.00000 -0.20228
      13     H     0.44687  0.44687  0.00000  0.10626
      14     H     0.44736  0.44736  0.00000  0.10528
      15     C     3.10184  3.10184  0.00000 -0.20367
      16     H     0.44178  0.44178  0.00000  0.11644
      17     H     0.45400  0.45400  0.00000  0.09200
      18     H     0.44282  0.44282  0.00000  0.11435
      19     H     0.45330  0.45330  0.00000  0.09339

   Total alpha = 28.00000, Total beta = 28.00000, Total charge = -0.00000
