  ==> Input File <==

--------------------------------------------------------------------------
set {
	reference rhf
	basis 6-31G*
}

set_num_threads( 1 )
memory 2 gb

molecule MOL {
0 1

H	 1.562278	 2.039807	 -2.368075
O	 2.388329	 1.652078	 -2.617832
C	 2.954396	 0.991773	 -1.514375
C	 2.238453	 -0.306524	 -1.158599
H	 3.978957	 0.779939	 -1.791999
H	 2.984198	 1.652761	 -0.648936
C	 0.789547	 -0.113910	 -0.704242
H	 2.265262	 -0.963453	 -2.024100
H	 2.802712	 -0.799366	 -0.368609
C	 0.115918	 -1.429151	 -0.302766
H	 0.223483	 0.354053	 -1.504834
H	 0.763624	 0.573350	 0.141537
C	 -1.309753	 -1.282496	 0.241564
H	 0.107073	 -2.102466	 -1.157994
H	 0.726363	 -1.912829	 0.456914
C	 -2.037799	 -0.007733	 -0.193645
H	 -1.890610	 -2.142323	 -0.085726
H	 -1.285946	 -1.330893	 1.329189
C	 -3.489788	 0.042957	 0.286558
H	 -2.017067	 0.064384	 -1.280144
H	 -1.513726	 0.868678	 0.179924
C	 -4.216917	 1.317354	 -0.141063
H	 -4.025645	 -0.823308	 -0.095450
H	 -3.513059	 -0.038752	 1.371301
H	 -4.239342	 1.411634	 -1.223113
H	 -5.243387	 1.322503	 0.212445
H	 -3.726170	 2.201406	 0.256408

	symmetry c1
}
set optking {
	frozen_dihedral = ("
		14 10 7 4,
		10 7 4 8,
		8 4 3 2,
		10 13 16 20,
		20 16 19 22,
		4 3 2 1
	")
}

ee = energy('scf')
oeprop('DIPOLE', 'QUADRUPOLE', 'MULLIKEN_CHARGES')
f=open( 'psi4out.xyz', 'w' )
f.write( "27  " )
f.write( str(ee) + "\n" )
f.write( MOL.save_string_xyz() )
f.close()
--------------------------------------------------------------------------

    Molecular point group: c1

    Geometry (in Angstrom), charge = 0, multiplicity = 1:

       Center              X                  Y                   Z               Mass
    ------------   -----------------  -----------------  -----------------  -----------------
           H          1.818974694701     1.900442925738    -1.658205715875     1.007825032070
           O          2.645025694701     1.512713925738    -1.907962715875    15.994914619560
           C          3.211092694701     0.852408925738    -0.804505715875    12.000000000000
           C          2.495149694701    -0.445888074262    -0.448729715875    12.000000000000
           H          4.235653694701     0.640574925738    -1.082129715875     1.007825032070
           H          3.240894694701     1.513396925738     0.060933284125     1.007825032070
           C          1.046243694701    -0.253274074262     0.005627284125    12.000000000000
           H          2.521958694701    -1.102817074262    -1.314230715875     1.007825032070
           H          3.059408694701    -0.938730074262     0.341260284125     1.007825032070
           C          0.372614694701    -1.568515074262     0.407103284125    12.000000000000
           H          0.480179694701     0.214688925738    -0.794964715875     1.007825032070
           H          1.020320694701     0.433985925738     0.851406284125     1.007825032070
           C         -1.053056305299    -1.421860074262     0.951433284125    12.000000000000
           H          0.363769694701    -2.241830074262    -0.448124715875     1.007825032070
           H          0.983059694701    -2.052193074262     1.166783284125     1.007825032070
           C         -1.781102305299    -0.147097074262     0.516224284125    12.000000000000
           H         -1.633913305299    -2.281687074262     0.624143284125     1.007825032070
           H         -1.029249305299    -1.470257074262     2.039058284125     1.007825032070
           C         -3.233091305299    -0.096407074262     0.996427284125    12.000000000000
           H         -1.760370305299    -0.074980074262    -0.570274715875     1.007825032070
           H         -1.257029305299     0.729313925738     0.889793284125     1.007825032070
           C         -3.960220305299     1.177989925738     0.568806284125    12.000000000000
           H         -3.768948305299    -0.962672074262     0.614419284125     1.007825032070
           H         -3.256362305299    -0.178116074262     2.081170284125     1.007825032070
           H         -3.982645305299     1.272269925738    -0.513243715875     1.007825032070
           H         -4.986690305299     1.183138925738     0.922314284125     1.007825032070
           H         -3.469473305299     2.062041925738     0.966277284125     1.007825032070

  Charge       = 0
  Multiplicity = 1
  Basis Set: 6-31G*
  Basis Set:

    Orbital Energies (a.u.)
    -----------------------

    Doubly Occupied:

       1A    -20.552031     2A    -11.266704     3A    -11.219162
       4A    -11.216360     5A    -11.216075     6A    -11.215097
       7A    -11.214529     8A    -11.214486     9A    -11.209936
      10A     -1.358769    11A     -1.096774    12A     -1.060266
      13A     -1.011447    14A     -0.946569    15A     -0.891709
      16A     -0.819690    17A     -0.808952    18A     -0.767180
      19A     -0.693317    20A     -0.660105    21A     -0.631802
      22A     -0.614831    23A     -0.603037    24A     -0.584917
      25A     -0.576475    26A     -0.553424    27A     -0.540378
      28A     -0.533601    29A     -0.506638    30A     -0.497178
      31A     -0.488399    32A     -0.475724    33A     -0.465357
      34A     -0.454944    35A     -0.447463    36A     -0.442842
      37A     -0.423094

  @DF-RHF Final Energy:  -388.27476750973335

   => Energetics <=

    Nuclear Repulsion Energy =            464.5162879530474811
    One-Electron Energy =               -1447.0237117319479694
    Two-Electron Energy =                 594.2326562691661138
    DFT Exchange-Correlation Energy =       0.0000000000000000
    Empirical Dispersion Energy =           0.0000000000000000
    PCM Polarization Energy =               0.0000000000000000
    EFP Energy =                            0.0000000000000000
    Total Energy =                       -388.2747675097343745

  Mulliken Charges: (a.u.)
   Center  Symbol    Alpha    Beta     Spin     Total
       1     H     0.27989  0.27989  0.00000  0.44022
       2     O     4.37103  4.37103  0.00000 -0.74206
       3     C     2.99729  2.99729  0.00000  0.00542
       4     C     3.15987  3.15987  0.00000 -0.31973
       5     H     0.41449  0.41449  0.00000  0.17101
       6     H     0.43225  0.43225  0.00000  0.13549
       7     C     3.16665  3.16665  0.00000 -0.33330
       8     H     0.41533  0.41533  0.00000  0.16934
       9     H     0.42465  0.42465  0.00000  0.15071
      10     C     3.15290  3.15290  0.00000 -0.30580
      11     H     0.42192  0.42192  0.00000  0.15615
      12     H     0.42445  0.42445  0.00000  0.15110
      13     C     3.15422  3.15422  0.00000 -0.30844
      14     H     0.42009  0.42009  0.00000  0.15982
      15     H     0.42082  0.42082  0.00000  0.15837
      16     C     3.15639  3.15639  0.00000 -0.31277
      17     H     0.42048  0.42048  0.00000  0.15904
      18     H     0.42207  0.42207  0.00000  0.15586
      19     C     3.15014  3.15014  0.00000 -0.30028
      20     H     0.42339  0.42339  0.00000  0.15323
      21     H     0.42293  0.42293  0.00000  0.15413
      22     C     3.23928  3.23928  0.00000 -0.47856
      23     H     0.42284  0.42284  0.00000  0.15433
      24     H     0.42318  0.42318  0.00000  0.15364
      25     H     0.42190  0.42190  0.00000  0.15619
      26     H     0.41891  0.41891  0.00000  0.16217
      27     H     0.42263  0.42263  0.00000  0.15473

   Total alpha = 37.00000, Total beta = 37.00000, Total charge = -0.00000
