  ==> Input File <==

--------------------------------------------------------------------------
set {
	reference rhf
	basis cc-pvtz
}

set_num_threads( 4 )
memory 2 gb

molecule MOL {
0 1

H	 2.391907	 -1.737114	 -0.813346
N	 1.411925	 -1.557188	 -0.826390
C	 1.149093	 -0.179395	 -1.190325
C	 0.812289	 -1.894989	 0.448824
H	 1.590334	 0.021426	 -2.158999
H	 1.574774	 0.526519	 -0.474714
C	 -0.350384	 0.045853	 -1.260382
H	 1.009474	 -2.937327	 0.667915
H	 1.216691	 -1.297467	 1.267998
C	 -0.686747	 -1.667493	 0.376619
H	 -0.760580	 -0.545521	 -2.084159
H	 -0.549615	 1.089218	 -1.474426
N	 -0.976577	 -0.298712	 -0.000000
H	 -1.129189	 -1.862985	 1.346231
H	 -1.120115	 -2.376902	 -0.334382
C	 -2.391156	 -0.021003	 -0.000000
H	 -2.853954	 -0.458728	 -0.875714
H	 -2.853954	 -0.458728	 0.875714
H	 -2.614037	 1.049773	 -0.000000

	symmetry c1
}
set optking {
	frozen_dihedral = ("
		7 13 16 19
	")
}

ee = optimize('scf')
oeprop('DIPOLE', 'QUADRUPOLE', 'MULLIKEN_CHARGES')
f=open( 'psi4out.xyz', 'w' )
f.write( "19  " )
f.write( str(ee) + "\n" )
f.write( MOL.save_string_xyz() )
f.close()
--------------------------------------------------------------------------

    Molecular point group: c1
  Charge       = 0
  Multiplicity = 1
  Basis Set: CC-PVTZ
  Basis Set:
  @DF-RHF Final Energy:  -305.30771496685719
    Total Energy =                       -305.3077149668571337
    Molecular point group: c1
  Basis Set: CC-PVTZ
  Basis Set:
  Basis Set: CC-PVTZ
  Basis Set:
  @DF-RHF Final Energy:  -305.30843138623896
    Total Energy =                       -305.3084313862389081
  Basis Set: CC-PVTZ
  Basis Set:
  Basis Set: CC-PVTZ
  Basis Set:
  @DF-RHF Final Energy:  -305.30850597322689
    Total Energy =                       -305.3085059732269428
  Basis Set: CC-PVTZ
  Basis Set:
  Charge       = 0
  Multiplicity = 1
  Basis Set: CC-PVTZ
  Basis Set:

    Orbital Energies (a.u.)
    -----------------------

    Doubly Occupied:

       1A    -15.536990     2A    -15.531173     3A    -11.237237
       4A    -11.237218     5A    -11.235853     6A    -11.235735
       7A    -11.233103     8A     -1.249320     9A     -1.187780
      10A     -1.023776    11A     -0.965742    12A     -0.861488
      13A     -0.858366    14A     -0.757953    15A     -0.692795
      16A     -0.634928    17A     -0.626966    18A     -0.610151
      19A     -0.604868    20A     -0.581382    21A     -0.543152
      22A     -0.530815    23A     -0.511520    24A     -0.490379
      25A     -0.467049    26A     -0.458094    27A     -0.366016
      28A     -0.349416

  @DF-RHF Final Energy:  -305.30850666704993

   => Energetics <=

    Nuclear Repulsion Energy =            340.3252110487595132
    One-Electron Energy =               -1088.0289075831256014
    Two-Electron Energy =                 442.3951898673165033
    DFT Exchange-Correlation Energy =       0.0000000000000000
    Empirical Dispersion Energy =           0.0000000000000000
    PCM Polarization Energy =               0.0000000000000000
    EFP Energy =                            0.0000000000000000
    Total Energy =                       -305.3085066670496417
    Molecular point group: c1
  Basis Set: CC-PVTZ
  Basis Set:

  -Total Gradient:
     Atom            X                  Y                   Z
    ------   -----------------  -----------------  -----------------
       1       -0.000003840066     0.000002007632    -0.000008350441
       2        0.000018570031    -0.000008532862    -0.000025178391
       3        0.000020389556    -0.000005137088    -0.000001047761
       4        0.000002527222     0.000030518809    -0.000009279979
       5        0.000000754589    -0.000009389553     0.000005333784
       6        0.000002141471     0.000005047921     0.000000825794
       7       -0.000414324582    -0.001874571048    -0.000604234257
       8       -0.000012801141     0.000007328089    -0.000004786183
       9       -0.000003165521    -0.000002018324     0.000008971575
      10       -0.000060379204     0.000053587901     0.000063484811
      11       -0.000004877059    -0.000008838511     0.000004338685
      12        0.000007957993     0.000015069088    -0.000039257429
      13        0.000492244643     0.002568748281     0.001582095561
      14       -0.000010407575    -0.000028766936     0.000011844842
      15        0.000010449681     0.000005952093    -0.000005780366
      16       -0.000047107020    -0.000753112811    -0.003716165501
      17       -0.000012744251    -0.000008930759    -0.000022058351
      18        0.000021149342    -0.000006004394     0.000001738236
      19       -0.000006538109     0.000017042473     0.002757505371

  **** Optimization is complete! (in 4 steps) ****
    Final optimized geometry and variables:
    Molecular point group: c1

    Geometry (in Angstrom), charge = 0, multiplicity = 1:

    H            2.554456860553    -0.931572709795    -0.455974759818
    N            1.573703253932    -0.755859733975    -0.473050201822
    C            1.305465267980     0.621178132743    -0.835047078794
    C            0.969092309843    -1.100107377118     0.797892366341
    H            1.745588787419     0.825347904404    -1.803637607776
    H            1.727911800240     1.328404687663    -0.118747442682
    C           -0.195112246674     0.838612358005    -0.904686162941
    H            1.167906800648    -2.142817612503     1.014171699775
    H            1.368092803496    -0.504699257135     1.621382141335
    C           -0.530611032568    -0.876277028315     0.722137651816
    H           -0.603657603868     0.240225403591    -1.723841234891
    H           -0.400502211557     1.879870320225    -1.125511764689
    N           -0.821827971306     0.496819192276     0.356957201201
    H           -0.974022446227    -1.081514157240     1.689024308335
    H           -0.958883827633    -1.581471236197     0.003864291675
    C           -2.238766032688     0.770424167286     0.341486019254
    H           -2.751542694668     0.323458455502    -0.513533084026
    H           -2.695270792463     0.381666264923     1.243209419225
    H           -2.411997049388     1.839988624172     0.332583963140

  Mulliken Charges: (a.u.)
   Center  Symbol    Alpha    Beta     Spin     Total
       1     H     0.43998  0.43998  0.00000  0.12005
       2     N     3.64290  3.64290  0.00000 -0.28581
       3     C     3.04050  3.04050  0.00000 -0.08100
       4     C     3.04122  3.04122  0.00000 -0.08243
       5     H     0.45243  0.45243  0.00000  0.09513
       6     H     0.46526  0.46526  0.00000  0.06948
       7     C     3.03550  3.03550  0.00000 -0.07099
       8     H     0.45247  0.45247  0.00000  0.09506
       9     H     0.46537  0.46537  0.00000  0.06926
      10     C     3.03361  3.03361  0.00000 -0.06722
      11     H     0.46743  0.46743  0.00000  0.06514
      12     H     0.45413  0.45413  0.00000  0.09173
      13     N     3.61517  3.61517  0.00000 -0.23034
      14     H     0.45388  0.45388  0.00000  0.09224
      15     H     0.46905  0.46905  0.00000  0.06191
      16     C     3.09693  3.09693  0.00000 -0.19386
      17     H     0.46924  0.46924  0.00000  0.06152
      18     H     0.45381  0.45381  0.00000  0.09239
      19     H     0.45113  0.45113  0.00000  0.09774

   Total alpha = 28.00000, Total beta = 28.00000, Total charge = -0.00000
