  ==> Input File <==

--------------------------------------------------------------------------
set {
	reference rhf
	basis 6-31G*
}

set_num_threads( 4 )
memory 2 gb

molecule MOL {
0 1

H	 -0.000158	 1.970498	 0.756846
O	 -0.000074	 1.880206	 -0.189275
C	 -0.000015	 0.544847	 -0.545111
C	 1.432021	 0.023505	 -0.603962
C	 -0.782813	 0.352732	 -1.839838
H	 -0.514181	 -0.003270	 0.230327
F	 1.999361	 0.155202	 0.576007
F	 1.486831	 -1.247128	 -0.942854
F	 2.148698	 0.714511	 -1.476017
F	 -2.024507	 0.753594	 -1.669422
F	 -0.810103	 -0.905784	 -2.224250
F	 -0.257000	 1.071901	 -2.818559

	symmetry c1
}
set optking {
	frozen_dihedral = ("
		6 3 2 1
	")
}

ee = optimize('scf')
oeprop('DIPOLE', 'QUADRUPOLE', 'MULLIKEN_CHARGES')
f=open( 'psi4out.xyz', 'w' )
f.write( "12  " )
f.write( str(ee) + "\n" )
f.write( MOL.save_string_xyz() )
f.close()
--------------------------------------------------------------------------

    Molecular point group: c1
  Charge       = 0
  Multiplicity = 1
  Basis Set: 6-31G*
  Basis Set:
  @DF-RHF Final Energy:  -786.27392398080485
    Total Energy =                       -786.2739239808040566
    Molecular point group: c1
  Basis Set: 6-31G*
  Basis Set:
  Basis Set: 6-31G*
  Basis Set:
  @DF-RHF Final Energy:  -786.27572142634699
    Total Energy =                       -786.2757214263469905
  Basis Set: 6-31G*
  Basis Set:
  Basis Set: 6-31G*
  Basis Set:
  @DF-RHF Final Energy:  -786.27606598704836
    Total Energy =                       -786.2760659870490372
  Basis Set: 6-31G*
  Basis Set:
  Basis Set: 6-31G*
  Basis Set:
  @DF-RHF Final Energy:  -786.27612336040079
    Total Energy =                       -786.2761233604012432
  Basis Set: 6-31G*
  Basis Set:
  Basis Set: 6-31G*
  Basis Set:
  @DF-RHF Final Energy:  -786.27613360374119
    Total Energy =                       -786.2761336037410729
  Basis Set: 6-31G*
  Basis Set:
  Basis Set: 6-31G*
  Basis Set:
  @DF-RHF Final Energy:  -786.27613594081015
    Total Energy =                       -786.2761359408098087
  Basis Set: 6-31G*
  Basis Set:
  Charge       = 0
  Multiplicity = 1
  Basis Set: 6-31G*
  Basis Set:

    Orbital Energies (a.u.)
    -----------------------

    Doubly Occupied:

       1A    -26.357566     2A    -26.356634     3A    -26.355104
       4A    -26.354203     5A    -26.352274     6A    -26.351077
       7A    -20.616950     8A    -11.521060     9A    -11.520823
      10A    -11.349475    11A     -1.758747    12A     -1.752569
      13A     -1.654813    14A     -1.653534    15A     -1.649889
      16A     -1.648930    17A     -1.434905    18A     -1.101838
      19A     -0.991926    20A     -0.931774    21A     -0.861076
      22A     -0.854303    23A     -0.849786    24A     -0.837809
      25A     -0.827176    26A     -0.778932    27A     -0.763782
      28A     -0.725265    29A     -0.719147    30A     -0.715707
      31A     -0.711608    32A     -0.678552    33A     -0.674341
      34A     -0.665684    35A     -0.664513    36A     -0.656185
      37A     -0.650316    38A     -0.624142    39A     -0.616951
      40A     -0.555284    41A     -0.504986

  @DF-RHF Final Energy:  -786.27613625983429

   => Energetics <=

    Nuclear Repulsion Energy =            669.8726798683668449
    One-Electron Energy =               -2426.9983603051259706
    Two-Electron Energy =                 970.8495441769255194
    DFT Exchange-Correlation Energy =       0.0000000000000000
    Empirical Dispersion Energy =           0.0000000000000000
    PCM Polarization Energy =               0.0000000000000000
    EFP Energy =                            0.0000000000000000
    Total Energy =                       -786.2761362598334927
    Molecular point group: c1
  Basis Set: 6-31G*
  Basis Set:

  -Total Gradient:
     Atom            X                  Y                   Z
    ------   -----------------  -----------------  -----------------
       1       -0.001073022889    -0.000001879696    -0.000006613365
       2        0.001559979450    -0.000080599955     0.000136382523
       3       -0.001332523083     0.000150649353    -0.000608125524
       4       -0.000035184020     0.000032034622    -0.000009006883
       5        0.000009989683     0.000087368065     0.000018251453
       6        0.000819198622    -0.000106269197     0.000484667948
       7        0.000046922711    -0.000018869678     0.000014700684
       8        0.000016658834     0.000042175120    -0.000004974651
       9        0.000026503052    -0.000047580465     0.000009589553
      10       -0.000036834302     0.000008407773    -0.000013156401
      11        0.000014559647    -0.000021317676    -0.000026689991
      12       -0.000016247703    -0.000044118272     0.000004974653

  **** Optimization is complete! (in 7 steps) ****
    Final optimized geometry and variables:
    Molecular point group: c1

    Geometry (in Angstrom), charge = 0, multiplicity = 1:

    H           -0.345987169225     1.647757987089     1.932503419939
    O           -0.336884772201     1.538027941133     0.992025811641
    C           -0.336859022471     0.196049203445     0.654423385536
    C            1.100369368735    -0.307424191933     0.580762415276
    C           -1.106687050042     0.065662964306    -0.652592354800
    H           -0.844919744530    -0.422667289577     1.385037127093
    F            1.686315216072    -0.069731510206     1.744245654426
    F            1.146033999664    -1.608314584337     0.368795016652
    F            1.800045204130     0.288606514804    -0.356348576685
    F           -2.361283265992     0.419754866528    -0.458564124212
    F           -1.100258219387    -1.184842847901    -1.076417380094
    F           -0.607290340008     0.823533683149    -1.600878597472

  Mulliken Charges: (a.u.)
   Center  Symbol    Alpha    Beta     Spin     Total
       1     H     0.26421  0.26421  0.00000  0.47158
       2     O     4.36179  4.36179  0.00000 -0.72357
       3     C     3.05659  3.05659  0.00000 -0.11319
       4     C     2.43828  2.43828  0.00000  1.12345
       5     C     2.43312  2.43312  0.00000  1.13377
       6     H     0.38713  0.38713  0.00000  0.22574
       7     F     4.68517  4.68517  0.00000 -0.37033
       8     F     4.67631  4.67631  0.00000 -0.35262
       9     F     4.67028  4.67028  0.00000 -0.34056
      10     F     4.67831  4.67831  0.00000 -0.35663
      11     F     4.67837  4.67837  0.00000 -0.35675
      12     F     4.67044  4.67044  0.00000 -0.34088

   Total alpha = 41.00000, Total beta = 41.00000, Total charge = -0.00000
