  ==> Input File <==

--------------------------------------------------------------------------
set {
	reference rhf
	basis cc-pvtz
}

set_num_threads( 4 )
memory 2 gb

molecule MOL {
0 1

H	 2.239167	 0.033479	 2.201451
O	 1.548164	 0.575503	 1.868615
C	 1.135873	 0.113391	 0.608264
C	 0.027642	 1.012027	 0.090274
H	 0.761552	 -0.904515	 0.682547
H	 1.973397	 0.101271	 -0.083739
C	 -1.138737	 0.285728	 -0.581921
H	 0.464661	 1.708096	 -0.618252
H	 -0.340737	 1.603071	 0.925246
C	 -1.933983	 -0.631436	 0.343653
H	 -0.763151	 -0.285569	 -1.422081
H	 -1.808359	 1.035291	 -0.992333
H	 -2.789188	 -1.049673	 -0.174718
H	 -1.335629	 -1.461368	 0.700418
H	 -2.305435	 -0.092167	 1.209725

	symmetry c1
}
set optking {
	frozen_dihedral = ("
		2 3 4 8
	")
}

ee = optimize('scf')
oeprop('DIPOLE', 'QUADRUPOLE', 'MULLIKEN_CHARGES')
f=open( 'psi4out.xyz', 'w' )
f.write( "15  " )
f.write( str(ee) + "\n" )
f.write( MOL.save_string_xyz() )
f.close()
--------------------------------------------------------------------------

    Molecular point group: c1
  Charge       = 0
  Multiplicity = 1
  Basis Set: CC-PVTZ
  Basis Set:
  @DF-RHF Final Energy:  -232.23214100262589
    Total Energy =                       -232.2321410026260651
    Molecular point group: c1
  Basis Set: CC-PVTZ
  Basis Set:
  Basis Set: CC-PVTZ
  Basis Set:
  @DF-RHF Final Energy:  -232.23268423249547
    Total Energy =                       -232.2326842324952167
  Basis Set: CC-PVTZ
  Basis Set:
  Basis Set: CC-PVTZ
  Basis Set:
  @DF-RHF Final Energy:  -232.23296811306699
    Total Energy =                       -232.2329681130671020
  Basis Set: CC-PVTZ
  Basis Set:
  Basis Set: CC-PVTZ
  Basis Set:
  @DF-RHF Final Energy:  -232.23298261014921
    Total Energy =                       -232.2329826101491221
  Basis Set: CC-PVTZ
  Basis Set:
  Basis Set: CC-PVTZ
  Basis Set:
  @DF-RHF Final Energy:  -232.23298276093541
    Total Energy =                       -232.2329827609354425
  Basis Set: CC-PVTZ
  Basis Set:
  Charge       = 0
  Multiplicity = 1
  Basis Set: CC-PVTZ
  Basis Set:

    Orbital Energies (a.u.)
    -----------------------

    Doubly Occupied:

       1A    -20.545399     2A    -11.265309     3A    -11.215466
       4A    -11.209696     5A    -11.205932     6A     -1.362569
       7A     -1.068724     8A     -0.969951     9A     -0.867973
      10A     -0.786185    11A     -0.699739    12A     -0.651125
      13A     -0.618091    14A     -0.575940    15A     -0.556545
      16A     -0.545077    17A     -0.503582    18A     -0.477162
      19A     -0.472398    20A     -0.457293    21A     -0.431838

  @DF-RHF Final Energy:  -232.23298609491943

   => Energetics <=

    Nuclear Repulsion Energy =            188.9629046953650970
    One-Electron Energy =                -689.4197970869336132
    Two-Electron Energy =                 268.2239062966490906
    DFT Exchange-Correlation Energy =       0.0000000000000000
    Empirical Dispersion Energy =           0.0000000000000000
    PCM Polarization Energy =               0.0000000000000000
    EFP Energy =                            0.0000000000000000
    Total Energy =                       -232.2329860949194540
    Molecular point group: c1
  Basis Set: CC-PVTZ
  Basis Set:

  -Total Gradient:
     Atom            X                  Y                   Z
    ------   -----------------  -----------------  -----------------
       1       -0.000003427341    -0.000002189048    -0.000003473200
       2       -0.001561455105    -0.001524924928     0.000998685093
       3        0.001913924657     0.001546991588    -0.001871117179
       4        0.000183198740     0.001873124064     0.003286790223
       5       -0.000003230236     0.000003487810     0.000001831170
       6       -0.000001160650     0.000000668131     0.000007145816
       7       -0.000001966987     0.000013654777     0.000020663027
       8       -0.000515929787    -0.001886947720    -0.002429957303
       9       -0.000000831928    -0.000006308062    -0.000001955960
      10       -0.000017004984    -0.000006850908    -0.000009748413
      11        0.000004060965     0.000000303207     0.000000562062
      12       -0.000002021769     0.000000713547    -0.000012716595
      13        0.000001881416     0.000002031858     0.000005876095
      14        0.000003983862    -0.000006090418     0.000005895259
      15       -0.000000020856    -0.000007663900     0.000001519905

  **** Optimization is complete! (in 6 steps) ****
    Final optimized geometry and variables:
    Molecular point group: c1

    Geometry (in Angstrom), charge = 0, multiplicity = 1:

    H            2.358849749456    -0.239990882402     1.611579175927
    O            1.607624979650     0.260169197487     1.350592310303
    C            1.188632202511    -0.134646016294     0.068742043497
    C            0.031915702304     0.762512883248    -0.375080182849
    H            0.872391664249    -1.173324449609     0.091718976080
    H            2.010181200556    -0.064711923239    -0.638744319554
    C           -1.094187804954     0.012578813982    -1.092363543584
    H            0.410093264687     1.526131825145    -1.045288153155
    H           -0.359358088691     1.264449938057     0.501294359388
    C           -1.960823178496    -0.841454495339    -0.170398432458
    H           -0.672521643954    -0.609926094402    -1.878106234444
    H           -1.728380641782     0.736504377179    -1.593633609940
    H           -2.731995622993    -1.356940128867    -0.731466530160
    H           -1.381174524319    -1.592186140101     0.353954534649
    H           -2.449622805084    -0.225702969006     0.576817997579

  Mulliken Charges: (a.u.)
   Center  Symbol    Alpha    Beta     Spin     Total
       1     H     0.39541  0.39541  0.00000  0.20918
       2     O     4.19750  4.19750  0.00000 -0.39499
       3     C     2.96577  2.96577  0.00000  0.06846
       4     C     3.09235  3.09235  0.00000 -0.18469
       5     H     0.47545  0.47545  0.00000  0.04910
       6     H     0.47034  0.47034  0.00000  0.05932
       7     C     3.09790  3.09790  0.00000 -0.19579
       8     H     0.45024  0.45024  0.00000  0.09953
       9     H     0.44709  0.44709  0.00000  0.10581
      10     C     3.14655  3.14655  0.00000 -0.29309
      11     H     0.45606  0.45606  0.00000  0.08787
      12     H     0.44843  0.44843  0.00000  0.10313
      13     H     0.44858  0.44858  0.00000  0.10283
      14     H     0.45511  0.45511  0.00000  0.08978
      15     H     0.45323  0.45323  0.00000  0.09354

   Total alpha = 21.00000, Total beta = 21.00000, Total charge = -0.00000
