  ==> Input File <==

--------------------------------------------------------------------------
set {
	reference rhf
	basis cc-pvtz
}

set_num_threads( 4 )
memory 2 gb

molecule MOL {
0 1

H	 -1.835082	 1.385983	 0.000069
C	 -1.300516	 0.441153	 -0.000028
O	 -0.006604	 0.654344	 -0.000106
O	 -1.828920	 -0.612308	 0.000113
C	 0.852093	 -0.482521	 -0.000161
C	 2.264273	 0.006295	 -0.218126
H	 0.537957	 -1.157421	 -0.783606
H	 0.749398	 -0.997831	 0.944229
H	 2.351364	 0.523401	 -1.165220
H	 2.944779	 -0.836757	 -0.223523
H	 2.563862	 0.683819	 0.571290

	symmetry c1
}
set optking {
	frozen_dihedral = ("
		7 5 3 2
	")
}

ee = optimize('scf')
oeprop('DIPOLE', 'QUADRUPOLE', 'MULLIKEN_CHARGES')
f=open( 'psi4out.xyz', 'w' )
f.write( "11  " )
f.write( str(ee) + "\n" )
f.write( MOL.save_string_xyz() )
f.close()
--------------------------------------------------------------------------

    Molecular point group: c1
  Charge       = 0
  Multiplicity = 1
  Basis Set: CC-PVTZ
  Basis Set:
  @DF-RHF Final Energy:  -266.93176559702925
    Total Energy =                       -266.9317655970290843
    Molecular point group: c1
  Basis Set: CC-PVTZ
  Basis Set:
  Basis Set: CC-PVTZ
  Basis Set:
  @DF-RHF Final Energy:  -266.93177400467141
    Total Energy =                       -266.9317740046714107
  Basis Set: CC-PVTZ
  Basis Set:
  Basis Set: CC-PVTZ
  Basis Set:
  @DF-RHF Final Energy:  -266.93167724842044
    Total Energy =                       -266.9316772484203284
  Basis Set: CC-PVTZ
  Basis Set:
  Basis Set: CC-PVTZ
  Basis Set:
  @DF-RHF Final Energy:  -266.93178006825394
    Total Energy =                       -266.9317800682538859
  Basis Set: CC-PVTZ
  Basis Set:
  Charge       = 0
  Multiplicity = 1
  Basis Set: CC-PVTZ
  Basis Set:

    Orbital Energies (a.u.)
    -----------------------

    Doubly Occupied:

       1A    -20.605643     2A    -20.545709     3A    -11.370179
       4A    -11.289935     5A    -11.225217     6A     -1.479452
       7A     -1.377450     8A     -1.053892     9A     -0.904045
      10A     -0.805989    11A     -0.740951    12A     -0.692943
      13A     -0.682393    14A     -0.593910    15A     -0.578340
      16A     -0.558288    17A     -0.520854    18A     -0.514805
      19A     -0.463714    20A     -0.457978

  @DF-RHF Final Energy:  -266.93178162646336

   => Energetics <=

    Nuclear Repulsion Energy =            179.6335915339799101
    One-Electron Energy =                -720.2073697068885849
    Two-Electron Energy =                 273.6419965464455117
    DFT Exchange-Correlation Energy =       0.0000000000000000
    Empirical Dispersion Energy =           0.0000000000000000
    PCM Polarization Energy =               0.0000000000000000
    EFP Energy =                            0.0000000000000000
    Total Energy =                       -266.9317816264631347
    Molecular point group: c1
  Basis Set: CC-PVTZ
  Basis Set:

  -Total Gradient:
     Atom            X                  Y                   Z
    ------   -----------------  -----------------  -----------------
       1        0.000004534448     0.000001791486     0.000003091570
       2       -0.000015106358    -0.000002471910    -0.000674780315
       3       -0.000113313628    -0.000081698391     0.001070429427
       4        0.000011213781     0.000003082528     0.000003776160
       5        0.000571062696     0.000414856788    -0.000891421744
       6        0.000005581817     0.000007856175     0.000003489261
       7       -0.000455720776    -0.000341031358     0.000489614183
       8       -0.000001916188     0.000000986183     0.000000578220
       9       -0.000003721470     0.000001372789    -0.000002667891
      10       -0.000003351216    -0.000002087045     0.000000170833
      11        0.000000736892    -0.000002657244    -0.000002279705

  **** Optimization is complete! (in 5 steps) ****
    Final optimized geometry and variables:
    Molecular point group: c1

    Geometry (in Angstrom), charge = 0, multiplicity = 1:

    H           -1.831152876527     1.389037608430     0.036087891857
    C           -1.298203450457     0.443379341946     0.045140951048
    O           -0.003963949658     0.654923860957     0.040539503454
    O           -1.828580079637    -0.609018890352     0.058087226151
    C            0.855923222359    -0.481041199699     0.034017942744
    C            2.268795206112     0.008924042507    -0.175477366211
    H            0.541790669100    -1.155515273189    -0.748753086954
    H            0.751055698096    -0.999093509630     0.977564952612
    H            2.361117444188     0.524607920258    -1.122882548690
    H            2.950227490549    -0.833413481860    -0.175129684852
    H            2.562764232520     0.688007782966     0.614682255695

  Mulliken Charges: (a.u.)
   Center  Symbol    Alpha    Beta     Spin     Total
       1     H     0.44797  0.44797  0.00000  0.10406
       2     C     2.84605  2.84605  0.00000  0.30789
       3     O     4.14436  4.14436  0.00000 -0.28873
       4     O     4.19503  4.19503  0.00000 -0.39006
       5     C     2.97278  2.97278  0.00000  0.05443
       6     C     3.13308  3.13308  0.00000 -0.26616
       7     H     0.45156  0.45156  0.00000  0.09688
       8     H     0.45425  0.45425  0.00000  0.09150
       9     H     0.45044  0.45044  0.00000  0.09913
      10     H     0.45422  0.45422  0.00000  0.09155
      11     H     0.45025  0.45025  0.00000  0.09951

   Total alpha = 20.00000, Total beta = 20.00000, Total charge =  0.00000
