  ==> Input File <==

--------------------------------------------------------------------------
set {
	reference rhf
	basis cc-pvtz
}

set_num_threads( 4 )
memory 2 gb

molecule MOL {
0 1

O	 -0.408517	 0.197928	 0.776127
C	 0.485107	 0.171416	 -0.000134
C	 1.606966	 -0.836201	 0.000174
O	 0.617633	 1.039365	 -0.987902
C	 2.988788	 -0.202529	 -0.000115
H	 1.465110	 -1.474645	 -0.864821
H	 1.465209	 -1.474077	 0.865596
H	 3.131767	 0.419673	 -0.873407
H	 3.750876	 -0.972315	 0.000098
H	 3.131883	 0.420264	 0.872742
C	 -0.369182	 2.053262	 -1.116348
C	 0.001481	 2.910502	 -2.303881
H	 -0.401665	 2.631852	 -0.203920
H	 -1.336688	 1.589671	 -1.248027
H	 0.972169	 3.368504	 -2.161158
H	 -0.733276	 3.696814	 -2.430678
H	 0.031762	 2.320428	 -3.211222

	symmetry c1
}
set optking {
	frozen_dihedral = ("
		4 2 3 6
	")
}

ee = optimize('scf')
oeprop('DIPOLE', 'QUADRUPOLE', 'MULLIKEN_CHARGES')
f=open( 'psi4out.xyz', 'w' )
f.write( "17  " )
f.write( str(ee) + "\n" )
f.write( MOL.save_string_xyz() )
f.close()
--------------------------------------------------------------------------

    Molecular point group: c1
  Charge       = 0
  Multiplicity = 1
  Basis Set: CC-PVTZ
  Basis Set:
  @DF-RHF Final Energy:  -345.03866168369177
    Total Energy =                       -345.0386616836917142
    Molecular point group: c1
  Basis Set: CC-PVTZ
  Basis Set:
  Basis Set: CC-PVTZ
  Basis Set:
  @DF-RHF Final Energy:  -345.03882750341063
    Total Energy =                       -345.0388275034110848
  Basis Set: CC-PVTZ
  Basis Set:
  Basis Set: CC-PVTZ
  Basis Set:
  @DF-RHF Final Energy:  -345.03829981635835
    Total Energy =                       -345.0382998163586308
  Basis Set: CC-PVTZ
  Basis Set:
  Basis Set: CC-PVTZ
  Basis Set:
  @DF-RHF Final Energy:  -345.03893716862393
    Total Energy =                       -345.0389371686231925
  Basis Set: CC-PVTZ
  Basis Set:
  Charge       = 0
  Multiplicity = 1
  Basis Set: CC-PVTZ
  Basis Set:

    Orbital Energies (a.u.)
    -----------------------

    Doubly Occupied:

       1A    -20.594360     2A    -20.531392     3A    -11.362919
       4A    -11.282912     5A    -11.235374     6A    -11.222272
       7A    -11.220844     8A     -1.470525     9A     -1.363743
      10A     -1.073763    11A     -1.031137    12A     -0.907797
      13A     -0.858762    14A     -0.779718    15A     -0.694656
      16A     -0.681284    17A     -0.674657    18A     -0.624026
      19A     -0.589991    20A     -0.574997    21A     -0.553574
      22A     -0.545830    23A     -0.525689    24A     -0.511306
      25A     -0.505401    26A     -0.495793    27A     -0.455748
      28A     -0.434412

  @DF-RHF Final Energy:  -345.03893960515944

   => Energetics <=

    Nuclear Repulsion Energy =            317.7332390814926271
    One-Electron Energy =               -1099.9385944101670702
    Two-Electron Energy =                 437.1664157235151151
    DFT Exchange-Correlation Energy =       0.0000000000000000
    Empirical Dispersion Energy =           0.0000000000000000
    PCM Polarization Energy =               0.0000000000000000
    EFP Energy =                            0.0000000000000000
    Total Energy =                       -345.0389396051592712
    Molecular point group: c1
  Basis Set: CC-PVTZ
  Basis Set:

  -Total Gradient:
     Atom            X                  Y                   Z
    ------   -----------------  -----------------  -----------------
       1        0.000093281965     0.000076457796    -0.000137437726
       2       -0.000457260063    -0.000542103208    -0.000101298717
       3        0.000435816431     0.000406763523    -0.000219541285
       4        0.000203005197     0.000351157562     0.000207639644
       5       -0.000056727716     0.000005345508    -0.000028900372
       6       -0.000283601193    -0.000300652560     0.000271666702
       7        0.000014443506     0.000004444463    -0.000004049399
       8        0.000008326650     0.000013537202     0.000009508151
       9        0.000019343255    -0.000001690026     0.000002090280
      10        0.000013158003     0.000002015919     0.000004448100
      11        0.000045825096    -0.000070257270    -0.000011107641
      12       -0.000018223274     0.000031617444     0.000002634746
      13       -0.000000146066     0.000010873161     0.000004378046
      14       -0.000016427480     0.000008074899    -0.000000302947
      15        0.000000298942    -0.000001393877    -0.000000194328
      16        0.000000658701     0.000010540826    -0.000010129202
      17       -0.000001771953    -0.000004731361     0.000010595952

  **** Optimization is complete! (in 5 steps) ****
    Final optimized geometry and variables:
    Molecular point group: c1

    Geometry (in Angstrom), charge = 0, multiplicity = 1:

    O           -1.114588346045    -0.590261165632     1.287936623743
    C           -0.210053359940    -0.601935765368     0.523460136940
    C            0.906470929314    -1.616067507045     0.541029064726
    O           -0.078349406141     0.273893443872    -0.457333231695
    C            2.305179463814    -1.002880768247     0.522405480750
    H            0.771090135150    -2.254667234008    -0.325951109080
    H            0.760058593862    -2.224555386179     1.421041768092
    H            2.471088843890    -0.427838784298    -0.377577196660
    H            3.051538015928    -1.785928736750     0.569085025981
    H            2.455810780305    -0.349892807592     1.374299670618
    C           -1.079636043555     1.272723990650    -0.592585176239
    C           -0.708172230764     2.143773943290    -1.769791518437
    H           -1.133184117574     1.844357419120     0.323095066728
    H           -2.037533997250     0.794082203003    -0.739436553832
    H            0.252146476711     2.618286559371    -1.611395107157
    H           -1.454978809938     2.917801977471    -1.901575945646
    H           -0.655622910340     1.560199001164    -2.680332737599

  Mulliken Charges: (a.u.)
   Center  Symbol    Alpha    Beta     Spin     Total
       1     O     4.19899  4.19899  0.00000 -0.39799
       2     C     2.80902  2.80902  0.00000  0.38195
       3     C     3.08503  3.08503  0.00000 -0.17007
       4     O     4.15338  4.15338  0.00000 -0.30676
       5     C     3.14817  3.14817  0.00000 -0.29634
       6     H     0.44813  0.44813  0.00000  0.10373
       7     H     0.43589  0.43589  0.00000  0.12822
       8     H     0.44585  0.44585  0.00000  0.10830
       9     H     0.44815  0.44815  0.00000  0.10370
      10     H     0.45104  0.45104  0.00000  0.09792
      11     C     2.97807  2.97807  0.00000  0.04385
      12     C     3.13395  3.13395  0.00000 -0.26789
      13     H     0.45429  0.45429  0.00000  0.09142
      14     H     0.45332  0.45332  0.00000  0.09336
      15     H     0.45138  0.45138  0.00000  0.09723
      16     H     0.45381  0.45381  0.00000  0.09239
      17     H     0.45151  0.45151  0.00000  0.09697

   Total alpha = 28.00000, Total beta = 28.00000, Total charge =  0.00000
