                              Psi4 1.0.54 Driver

  ==> Input File <==

--------------------------------------------------------------------------
set {
	reference rhf
	basis cc-pvtz
}

set_num_threads( 4 )
memory 2 gb

molecule MOL {
0 1

H	 2.617380	 -1.769470	 -0.555893
O	 2.824271	 -1.154299	 0.131461
C	 2.076458	 -0.067370	 -0.038225
C	 0.626018	 -0.337582	 0.258241
O	 2.538288	 0.965419	 -0.381593
C	 -0.267326	 0.883135	 0.076490
H	 0.325620	 -1.161483	 -0.378003
H	 0.574537	 -0.713685	 1.275261
C	 -1.726822	 0.642622	 0.463839
H	 -0.210803	 1.217591	 -0.953497
H	 0.129920	 1.693110	 0.675679
C	 -2.480891	 -0.340606	 -0.429852
H	 -2.243098	 1.597649	 0.438609
H	 -1.776542	 0.301208	 1.495542
C	 -3.955933	 -0.460128	 -0.060472
H	 -2.393755	 -0.020485	 -1.464726
H	 -2.024244	 -1.323637	 -0.374360
H	 -4.467673	 -1.160944	 -0.709827
H	 -4.458917	 0.497287	 -0.144505
H	 -4.076458	 -0.806900	 0.960497

	symmetry c1
}
set optking {
	frozen_dihedral = ("
		1 2 3 5
	")
}

ee,wfn = optimize('scf', return_wfn=True)
oeprop( wfn, 'DIPOLE', 'QUADRUPOLE', 'MULLIKEN_CHARGES')
f=open( 'psi4out.xyz', 'w' )
f.write( "20  " )
f.write( str(ee) + "\n" )
f.write( MOL.save_string_xyz() )
f.close()
--------------------------------------------------------------------------

    Molecular point group: c1
  Charge       = 0
  Multiplicity = 1
  Basis Set: CC-PVTZ
  Basis Set:
  @DF-RHF Final Energy:  -384.07417343791531
    Total Energy =                       -384.0741734379151922
    Molecular point group: c1
  Basis Set: CC-PVTZ
  Basis Set:
  Basis Set: CC-PVTZ
  Basis Set:
  @DF-RHF Final Energy:  -384.07553791499015
    Total Energy =                       -384.0755379149903774
  Basis Set: CC-PVTZ
  Basis Set:
  Basis Set: CC-PVTZ
  Basis Set:
  @DF-RHF Final Energy:  -384.07473465189173
    Total Energy =                       -384.0747346518913332
  Basis Set: CC-PVTZ
  Basis Set:
  Basis Set: CC-PVTZ
  Basis Set:
  @DF-RHF Final Energy:  -384.07575016388813
    Total Energy =                       -384.0757501638880171
  Basis Set: CC-PVTZ
  Basis Set:
  Basis Set: CC-PVTZ
  Basis Set:
  @DF-RHF Final Energy:  -384.07577470906176
    Total Energy =                       -384.0757747090610792
  Basis Set: CC-PVTZ
  Basis Set:
  Charge       = 0
  Multiplicity = 1
  Basis Set: CC-PVTZ
  Basis Set:

    Orbital Energies (a.u.)
    -----------------------

    Doubly Occupied:

       1A    -20.587758     2A    -20.548833     3A    -11.373707
       4A    -11.243259     5A    -11.223831     6A    -11.222124
       7A    -11.221159     8A    -11.213315     9A     -1.463573
      10A     -1.371282    11A     -1.099852    12A     -1.043118
      13A     -0.960609    14A     -0.866782    15A     -0.821980
      16A     -0.786956    17A     -0.717096    18A     -0.674505
      19A     -0.667524    20A     -0.636482    21A     -0.618058
      22A     -0.589531    23A     -0.564094    24A     -0.562396
      25A     -0.529051    26A     -0.516915    27A     -0.501230
      28A     -0.496311    29A     -0.473553    30A     -0.468825
      31A     -0.461197    32A     -0.445867

  @DF-RHF Final Energy:  -384.07577492784543

   => Energetics <=

    Nuclear Repulsion Energy =            375.9168191042458034
    One-Electron Energy =               -1268.0436379432426293
    Two-Electron Energy =                 508.0510439111511687
    DFT Exchange-Correlation Energy =       0.0000000000000000
    Empirical Dispersion Energy =           0.0000000000000000
    PCM Polarization Energy =               0.0000000000000000
    EFP Energy =                            0.0000000000000000
    Total Energy =                       -384.0757749278456004
    Molecular point group: c1
  Basis Set: CC-PVTZ
  Basis Set:

  -Total Gradient:
     Atom            X                  Y                   Z
    ------   -----------------  -----------------  -----------------
       1        0.002626133829     0.001638731287    -0.001853566182
       2       -0.003528231204    -0.002303363382     0.000996831482
       3        0.001212915745     0.001334980470     0.003898733636
       4        0.000077421676     0.000017063786     0.000017156674
       5       -0.000349901318    -0.000680640157    -0.003051818517
       6        0.000009910323     0.000011106859     0.000026957818
       7       -0.000032347615    -0.000025724106    -0.000017204629
       8       -0.000018209087    -0.000006525172    -0.000016318514
       9       -0.000018515978     0.000034093790    -0.000009181307
      10       -0.000003953274     0.000002274914     0.000020008696
      11        0.000001009251    -0.000017775595     0.000001779897
      12        0.000008885809     0.000013395604    -0.000020868501
      13       -0.000012608963    -0.000001589823    -0.000011515806
      14       -0.000004796949     0.000018600608     0.000002352246
      15        0.000005468597    -0.000016787010     0.000015320221
      16       -0.000007668052     0.000003170120     0.000004287132
      17        0.000030817588    -0.000015481172    -0.000007230949
      18        0.000003026147    -0.000005024296     0.000004061934
      19        0.000006820321    -0.000001828413    -0.000004515092
      20       -0.000006176851     0.000001321690     0.000004729761

  **** Optimization is complete! (in 6 steps) ****
    Final optimized geometry and variables:
    Molecular point group: c1

    Geometry (in Angstrom), charge = 0, multiplicity = 1:

    H            2.747131528392    -1.798227436355    -0.512215334228
    O            2.870320940324    -1.166936240450     0.176570830152
    C            2.084378547008    -0.072864992304     0.007900220084
    C            0.620949142026    -0.331289144208     0.263830591263
    O            2.548843320460     0.965130671252    -0.281374208706
    C           -0.264405334100     0.893612989053     0.072267556075
    H            0.320435407349    -1.149431404407    -0.383676940473
    H            0.544877479939    -0.717112571159     1.275943010621
    C           -1.732891814325     0.659299394727     0.428569015169
    H           -0.185278602680     1.235538800924    -0.954038190461
    H            0.126161537552     1.696314343812     0.685048919617
    C           -2.473756835830    -0.317542429272    -0.483148440002
    H           -2.243673365484     1.616940473446     0.395491259695
    H           -1.805458198813     0.315525688255     1.458051894943
    C           -3.955046290597    -0.436712812586    -0.139231060760
    H           -2.368759204252     0.007752316319    -1.514850966638
    H           -2.020157288636    -1.302121006347    -0.424956178272
    H           -4.456226591206    -1.136019660922    -0.798362032511
    H           -4.455597052414     0.521231595039    -0.230370494630
    H           -4.093265941275    -0.784870009359     0.878979344634

  Mulliken Charges: (a.u.)
   Center  Symbol    Alpha    Beta     Spin     Total
       1     H     0.38991  0.38991  0.00000  0.22019
       2     O     4.16932  4.16932  0.00000 -0.33865
       3     C     2.79835  2.79835  0.00000  0.40331
       4     C     3.12097  3.12097  0.00000 -0.24194
       5     O     4.16071  4.16071  0.00000 -0.32142
       6     C     3.09513  3.09513  0.00000 -0.19027
       7     H     0.45025  0.45025  0.00000  0.09951
       8     H     0.43534  0.43534  0.00000  0.12931
       9     C     3.09926  3.09926  0.00000 -0.19851
      10     H     0.44591  0.44591  0.00000  0.10818
      11     H     0.43697  0.43697  0.00000  0.12605
      12     C     3.08702  3.08702  0.00000 -0.17403
      13     H     0.44498  0.44498  0.00000  0.11003
      14     H     0.45315  0.45315  0.00000  0.09370
      15     C     3.14932  3.14932  0.00000 -0.29864
      16     H     0.45257  0.45257  0.00000  0.09485
      17     H     0.45557  0.45557  0.00000  0.08886
      18     H     0.44776  0.44776  0.00000  0.10447
      19     H     0.45303  0.45303  0.00000  0.09394
      20     H     0.45447  0.45447  0.00000  0.09107

   Total alpha = 32.00000, Total beta = 32.00000, Total charge =  0.00000

*** Psi4 exiting successfully. Buy a developer a beer!
