  ==> Input File <==

--------------------------------------------------------------------------
set {
	reference rhf
	basis 6-31G*
}

set_num_threads( 4 )
memory 2 gb

molecule MOL {
0 1

O	 1.164635	 1.386500	 -0.287543
C	 0.973461	 0.358006	 -0.852072
C	 -0.315929	 -0.426276	 -0.835667
O	 1.895499	 -0.248429	 -1.588997
C	 -1.412532	 0.227344	 -0.000452
H	 -0.630887	 -0.554787	 -1.867675
H	 -0.084824	 -1.423457	 -0.471008
C	 -2.706999	 -0.587347	 -0.000541
H	 -1.605851	 1.225558	 -0.380850
H	 -1.058795	 0.356091	 1.017781
C	 -3.956778	 0.291888	 0.000910
H	 -2.726114	 -1.239230	 -0.871609
H	 -2.725217	 -1.240844	 0.869333
H	 -3.985213	 0.933254	 -0.875158
H	 -4.860123	 -0.309979	 0.000519
H	 -3.984618	 0.931166	 0.878514
C	 3.157831	 0.385426	 -1.688425
H	 3.057213	 1.364994	 -2.133184
H	 3.759003	 -0.251385	 -2.318514
H	 3.611851	 0.483232	 -0.712819

	symmetry c1
}
set optking {
	frozen_dihedral = ("
		9 5 8 12
	")
}

ee = optimize('scf')
oeprop('DIPOLE', 'QUADRUPOLE', 'MULLIKEN_CHARGES')
f=open( 'psi4out.xyz', 'w' )
f.write( "20  " )
f.write( str(ee) + "\n" )
f.write( MOL.save_string_xyz() )
f.close()
--------------------------------------------------------------------------

    Molecular point group: c1
  Charge       = 0
  Multiplicity = 1
  Basis Set: 6-31G*
  Basis Set:
  @DF-RHF Final Energy:  -383.93765270110043
    Total Energy =                       -383.9376527011007738
    Molecular point group: c1
  Basis Set: 6-31G*
  Basis Set:
  Basis Set: 6-31G*
  Basis Set:
  @DF-RHF Final Energy:  -383.93796828179171
    Total Energy =                       -383.9379682817919957
  Basis Set: 6-31G*
  Basis Set:
  Basis Set: 6-31G*
  Basis Set:
  @DF-RHF Final Energy:  -383.93772448766458
    Total Energy =                       -383.9377244876648092
  Basis Set: 6-31G*
  Basis Set:
  Basis Set: 6-31G*
  Basis Set:
  @DF-RHF Final Energy:  -383.93803828448580
    Total Energy =                       -383.9380382844856285
  Basis Set: 6-31G*
  Basis Set:
  Basis Set: 6-31G*
  Basis Set:
  @DF-RHF Final Energy:  -383.93804055168567
    Total Energy =                       -383.9380405516855035
  Basis Set: 6-31G*
  Basis Set:
  Charge       = 0
  Multiplicity = 1
  Basis Set: 6-31G*
  Basis Set:

    Orbital Energies (a.u.)
    -----------------------

    Doubly Occupied:

       1A    -20.603821     2A    -20.545690     3A    -11.372426
       4A    -11.280985     5A    -11.236257     6A    -11.219960
       7A    -11.218910     8A    -11.211308     9A     -1.469526
      10A     -1.362995    11A     -1.087247    12A     -1.024179
      13A     -0.969338    14A     -0.886131    15A     -0.804827
      16A     -0.767858    17A     -0.698385    18A     -0.683040
      19A     -0.672376    20A     -0.639563    21A     -0.597368
      22A     -0.596670    23A     -0.577854    24A     -0.542353
      25A     -0.532827    26A     -0.522887    27A     -0.505411
      28A     -0.479085    29A     -0.473086    30A     -0.464802
      31A     -0.455150    32A     -0.436773

  @DF-RHF Final Energy:  -383.93804118401124

   => Energetics <=

    Nuclear Repulsion Energy =            381.0212804450355861
    One-Electron Energy =               -1278.0404661712834695
    Two-Electron Energy =                 513.0811445422364159
    DFT Exchange-Correlation Energy =       0.0000000000000000
    Empirical Dispersion Energy =           0.0000000000000000
    PCM Polarization Energy =               0.0000000000000000
    EFP Energy =                            0.0000000000000000
    Total Energy =                       -383.9380411840114675
    Molecular point group: c1
  Basis Set: 6-31G*
  Basis Set:

  -Total Gradient:
     Atom            X                  Y                   Z
    ------   -----------------  -----------------  -----------------
       1       -0.000001121715    -0.000006370833    -0.000010026406
       2       -0.000004191435     0.000006263397     0.000010698479
       3       -0.000036608681     0.000005368838     0.000013187191
       4        0.000004254793     0.000005107765     0.000002784578
       5        0.001530845123    -0.002596716274    -0.004633728990
       6        0.000002416408     0.000005246932     0.000002884647
       7       -0.000019247236     0.000006427042     0.000006392524
       8       -0.002821097802     0.004314735155    -0.001808291346
       9       -0.000797566849     0.001434763896     0.004103465638
      10       -0.000029442454     0.000019344211     0.000024252578
      11        0.000030609341    -0.000006973875    -0.000025447683
      12        0.002074264772    -0.003135782920     0.002303560667
      13        0.000024519942    -0.000035255513     0.000010361426
      14        0.000013993819     0.000012589023     0.000012425271
      15        0.000009434896    -0.000007023077    -0.000013892720
      16        0.000015617760    -0.000020848025     0.000004617926
      17        0.000001558094    -0.000001229040    -0.000003652392
      18        0.000000027841    -0.000000207805     0.000000204641
      19        0.000001602339     0.000000600541     0.000000041765
      20        0.000000131038    -0.000000039441     0.000000162207

  **** Optimization is complete! (in 6 steps) ****
    Final optimized geometry and variables:
    Molecular point group: c1

    Geometry (in Angstrom), charge = 0, multiplicity = 1:

    O            1.284597721311     1.203255441790     0.375917737956
    C            1.096356376566     0.175264572734    -0.190510190962
    C           -0.199623471574    -0.598231171997    -0.199291904455
    O            2.027676349063    -0.439712649981    -0.908460752460
    C           -1.308039188257     0.064922347031     0.609740426370
    H           -0.494290695754    -0.727880900324    -1.236948245177
    H            0.014210171100    -1.596293809512     0.174013770330
    C           -2.603514602664    -0.765305778645     0.645246466204
    H           -1.507396504714     1.061014835339     0.227261402937
    H           -0.955653608994     0.227120746240     1.623325187407
    C           -3.866883855885     0.088290300308     0.722346498811
    H           -2.648839029749    -1.428917532498    -0.215673525597
    H           -2.571235039974    -1.430818997363     1.505096269474
    H           -3.966957148726     0.718843547638    -0.156294681058
    H           -4.756331547371    -0.530006782046     0.792222620197
    H           -3.845015863618     0.737582911168     1.592940126564
    C            3.296665427798     0.183996162448    -0.984453942462
    H            3.212345654522     1.163734959494    -1.432235412049
    H            3.904716948010    -0.458404015417    -1.602148559883
    H            3.732702446662     0.279514946466    -0.000453587228

  Mulliken Charges: (a.u.)
   Center  Symbol    Alpha    Beta     Spin     Total
       1     O     4.28585  4.28585  0.00000 -0.57169
       2     C     2.60556  2.60556  0.00000  0.78888
       3     C     3.20912  3.20912  0.00000 -0.41825
       4     O     4.30723  4.30723  0.00000 -0.61446
       5     C     3.15456  3.15456  0.00000 -0.30912
       6     H     0.40029  0.40029  0.00000  0.19942
       7     H     0.40032  0.40032  0.00000  0.19936
       8     C     3.15618  3.15618  0.00000 -0.31236
       9     H     0.41084  0.41084  0.00000  0.17833
      10     H     0.40986  0.40986  0.00000  0.18029
      11     C     3.23977  3.23977  0.00000 -0.47955
      12     H     0.42246  0.42246  0.00000  0.15508
      13     H     0.42006  0.42006  0.00000  0.15988
      14     H     0.42056  0.42056  0.00000  0.15888
      15     H     0.41926  0.41926  0.00000  0.16148
      16     H     0.41914  0.41914  0.00000  0.16173
      17     C     3.09246  3.09246  0.00000 -0.18492
      18     H     0.40903  0.40903  0.00000  0.18194
      19     H     0.40841  0.40841  0.00000  0.18318
      20     H     0.40905  0.40905  0.00000  0.18191

   Total alpha = 32.00000, Total beta = 32.00000, Total charge = -0.00000
