  ==> Input File <==

--------------------------------------------------------------------------
set {
	reference rhf
	basis 6-31G*
}

set_num_threads( 1 )
memory 2 gb

molecule MOL {
0 1

H	 1.047021	 0.311472	 2.322806
C	 1.553116	 0.257133	 1.351355
C	 0.692068	 0.589600	 0.160137
O	 2.700401	 -0.046818	 1.292351
C	 -0.558097	 -0.297372	 0.091132
H	 1.296416	 0.491245	 -0.734050
H	 0.389859	 1.632428	 0.249628
C	 -1.850991	 0.512573	 -0.019058
H	 -0.476753	 -0.965681	 -0.762987
H	 -0.604799	 -0.930658	 0.975228
C	 -3.096943	 -0.368295	 -0.099594
H	 -1.800724	 1.150330	 -0.898172
H	 -1.931651	 1.177355	 0.838044
H	 -3.060452	 -1.020287	 -0.967456
H	 -3.996858	 0.233488	 -0.175704
H	 -3.191959	 -0.995686	 0.782074

	symmetry c1
}
set optking {
	frozen_dihedral = ("
		9 5 8 12,
		4 2 3 6
	")
}

ee = energy('scf')
oeprop('DIPOLE', 'QUADRUPOLE', 'MULLIKEN_CHARGES')
f=open( 'psi4out.xyz', 'w' )
f.write( "16  " )
f.write( str(ee) + "\n" )
f.write( MOL.save_string_xyz() )
f.close()
--------------------------------------------------------------------------

    Molecular point group: c1

    Geometry (in Angstrom), charge = 0, multiplicity = 1:

       Center              X                  Y                   Z               Mass
    ------------   -----------------  -----------------  -----------------  -----------------
           H          1.144192545105     0.210775035097     1.856680824695     1.007825032070
           C          1.650287545105     0.156436035097     0.885229824695    12.000000000000
           C          0.789239545105     0.488903035097    -0.305988175305    12.000000000000
           O          2.797572545105    -0.147514964903     0.826225824695    15.994914619560
           C         -0.460925454895    -0.398068964903    -0.374993175305    12.000000000000
           H          1.393587545105     0.390548035097    -1.200175175305     1.007825032070
           H          0.487030545105     1.531731035097    -0.216497175305     1.007825032070
           C         -1.753819454895     0.411876035097    -0.485183175305    12.000000000000
           H         -0.379581454895    -1.066377964903    -1.229112175305     1.007825032070
           H         -0.507627454895    -1.031354964903     0.509102824695     1.007825032070
           C         -2.999771454895    -0.468991964903    -0.565719175305    12.000000000000
           H         -1.703552454895     1.049633035097    -1.364297175305     1.007825032070
           H         -1.834479454895     1.076658035097     0.371918824695     1.007825032070
           H         -2.963280454895    -1.120983964903    -1.433581175305     1.007825032070
           H         -3.899686454895     0.132791035097    -0.641829175305     1.007825032070
           H         -3.094787454895    -1.096382964903     0.315948824695     1.007825032070

  Charge       = 0
  Multiplicity = 1
  Basis Set: 6-31G*
  Basis Set:

    Orbital Energies (a.u.)
    -----------------------

    Doubly Occupied:

       1A    -20.562164     2A    -11.326824     3A    -11.235655
       4A    -11.233866     5A    -11.230103     6A    -11.218567
       7A     -1.402162     8A     -1.097385     9A     -1.018412
      10A     -0.905532    11A     -0.816259    12A     -0.793696
      13A     -0.671604    14A     -0.655936    15A     -0.620514
      16A     -0.605735    17A     -0.582220    18A     -0.553463
      19A     -0.534537    20A     -0.506246    21A     -0.485224
      22A     -0.481815    23A     -0.475801    24A     -0.409769

  @DF-RHF Final Energy:  -270.01503838804769

   => Energetics <=

    Nuclear Repulsion Energy =            229.5675525581019087
    One-Electron Energy =                -820.3182017452421633
    Two-Electron Energy =                 320.7356107990922851
    DFT Exchange-Correlation Energy =       0.0000000000000000
    Empirical Dispersion Energy =           0.0000000000000000
    PCM Polarization Energy =               0.0000000000000000
    EFP Energy =                            0.0000000000000000
    Total Energy =                       -270.0150383880479126

  Mulliken Charges: (a.u.)
   Center  Symbol    Alpha    Beta     Spin     Total
       1     H     0.43174  0.43174  0.00000  0.13652
       2     C     2.83303  2.83303  0.00000  0.33393
       3     C     3.20871  3.20871  0.00000 -0.41743
       4     O     4.23761  4.23761  0.00000 -0.47522
       5     C     3.16537  3.16537  0.00000 -0.33073
       6     H     0.39707  0.39707  0.00000  0.20586
       7     H     0.40688  0.40688  0.00000  0.18624
       8     C     3.15510  3.15510  0.00000 -0.31021
       9     H     0.41004  0.41004  0.00000  0.17993
      10     H     0.41673  0.41673  0.00000  0.16654
      11     C     3.24098  3.24098  0.00000 -0.48197
      12     H     0.41871  0.41871  0.00000  0.16259
      13     H     0.42181  0.42181  0.00000  0.15638
      14     H     0.41946  0.41946  0.00000  0.16109
      15     H     0.41669  0.41669  0.00000  0.16662
      16     H     0.42006  0.42006  0.00000  0.15987

   Total alpha = 24.00000, Total beta = 24.00000, Total charge = -0.00000
