  ==> Input File <==

--------------------------------------------------------------------------
set {
	reference rhf
	basis cc-pvtz
}

set_num_threads( 4 )
memory 2 gb

molecule MOL {
0 1

H	 0.139566	 -1.651066	 -0.417044
C	 -0.887064	 -1.550643	 -0.072330
O	 -1.401606	 -0.295183	 -0.366624
H	 -1.496935	 -2.284852	 -0.578178
H	 -0.911991	 -1.752586	 0.997008
C	 -0.718530	 0.758693	 0.228682
C	 0.718529	 0.758687	 -0.228709
H	 -1.176498	 1.708665	 -0.046615
H	 -0.748705	 0.673525	 1.312779
O	 1.401606	 -0.295166	 0.366636
H	 0.748705	 0.673477	 -1.312803
H	 1.176496	 1.708671	 0.046552
C	 2.714315	 -0.441627	 -0.061017
H	 2.765292	 -0.641548	 -1.128869
H	 3.305661	 0.447341	 0.150952
H	 3.143725	 -1.278506	 0.470147

	symmetry c1
}
set optking {
	frozen_dihedral = ("
		2 3 6 7
	")
}

ee = optimize('scf')
oeprop('DIPOLE', 'QUADRUPOLE', 'MULLIKEN_CHARGES')
f=open( 'psi4out.xyz', 'w' )
f.write( "16  " )
f.write( str(ee) + "\n" )
f.write( MOL.save_string_xyz() )
f.close()
--------------------------------------------------------------------------

    Molecular point group: c1
  Charge       = 0
  Multiplicity = 1
  Basis Set: CC-PVTZ
  Basis Set:
  @DF-RHF Final Energy:  -307.08527173583218
    Total Energy =                       -307.0852717358324639
    Molecular point group: c1
  Basis Set: CC-PVTZ
  Basis Set:
  Basis Set: CC-PVTZ
  Basis Set:
  @DF-RHF Final Energy:  -307.09284614601711
    Total Energy =                       -307.0928461460171093
  Basis Set: CC-PVTZ
  Basis Set:
  Basis Set: CC-PVTZ
  Basis Set:
  @DF-RHF Final Energy:  -307.09471132555154
    Total Energy =                       -307.0947113255514296
  Basis Set: CC-PVTZ
  Basis Set:
  Basis Set: CC-PVTZ
  Basis Set:
  @DF-RHF Final Energy:  -307.09522654863571
    Total Energy =                       -307.0952265486359352
  Basis Set: CC-PVTZ
  Basis Set:
  Basis Set: CC-PVTZ
  Basis Set:
  @DF-RHF Final Energy:  -307.09548891285823
    Total Energy =                       -307.0954889128578884
  Basis Set: CC-PVTZ
  Basis Set:
  Basis Set: CC-PVTZ
  Basis Set:
  @DF-RHF Final Energy:  -307.09551102176403
    Total Energy =                       -307.0955110217641959
  Basis Set: CC-PVTZ
  Basis Set:
  Basis Set: CC-PVTZ
  Basis Set:
  @DF-RHF Final Energy:  -307.09551279215469
    Total Energy =                       -307.0955127921548637
  Basis Set: CC-PVTZ
  Basis Set:
  Charge       = 0
  Multiplicity = 1
  Basis Set: CC-PVTZ
  Basis Set:

    Orbital Energies (a.u.)
    -----------------------

    Doubly Occupied:

       1A    -20.556058     2A    -20.544120     3A    -11.271004
       4A    -11.268511     5A    -11.266846     6A    -11.253090
       7A     -1.393943     8A     -1.371642     9A     -1.029141
      10A     -0.948832    11A     -0.892401    12A     -0.818830
      13A     -0.693022    14A     -0.681806    15A     -0.659007
      16A     -0.636213    17A     -0.628528    18A     -0.598562
      19A     -0.554050    20A     -0.533240    21A     -0.521366
      22A     -0.488904    23A     -0.458878    24A     -0.427404
      25A     -0.407835

  @DF-RHF Final Energy:  -307.09551297826175

   => Energetics <=

    Nuclear Repulsion Energy =            264.3793479629020453
    One-Electron Energy =                -943.1432588300596080
    Two-Electron Energy =                 371.6683978888955835
    DFT Exchange-Correlation Energy =       0.0000000000000000
    Empirical Dispersion Energy =           0.0000000000000000
    PCM Polarization Energy =               0.0000000000000000
    EFP Energy =                            0.0000000000000000
    Total Energy =                       -307.0955129782620361
    Molecular point group: c1
  Basis Set: CC-PVTZ
  Basis Set:

  -Total Gradient:
     Atom            X                  Y                   Z
    ------   -----------------  -----------------  -----------------
       1        0.000001769531    -0.000007091257     0.000004035905
       2        0.001314900890     0.000046567087    -0.002052543799
       3       -0.001575930795    -0.000717911828     0.003742429694
       4       -0.000009926794     0.000000155728     0.000011440942
       5       -0.000014705167     0.000012932659    -0.000002830512
       6       -0.000258587556     0.002040508079    -0.003286569536
       7        0.000550312307    -0.001399698321     0.001604157132
       8       -0.000000388797     0.000004769307     0.000000076005
       9       -0.000001061736     0.000008047572     0.000007309848
      10       -0.000017887811     0.000017595135    -0.000027459516
      11        0.000003576225     0.000002780840    -0.000011003318
      12       -0.000002415600    -0.000002124400    -0.000000165959
      13        0.000005829599    -0.000003023015     0.000017547298
      14        0.000001467800     0.000001724208     0.000001544203
      15       -0.000004959825    -0.000003240734    -0.000002461556
      16        0.000008007727    -0.000001991057    -0.000005506832

  **** Optimization is complete! (in 8 steps) ****
    Final optimized geometry and variables:
    Molecular point group: c1

    Geometry (in Angstrom), charge = 0, multiplicity = 1:

    H           -0.573471568582    -1.690296169091    -0.695694921646
    C           -1.447932658705    -1.422858020841    -0.115522408055
    O           -1.815382696766    -0.090185662044    -0.302060375696
    H           -2.283235174279    -2.027445612392    -0.439490501055
    H           -1.240973502884    -1.636594333899     0.929174177777
    C           -0.992893082904     0.888504747548     0.249177335793
    C            0.441988819430     0.904194848272    -0.243094835923
    H           -1.451570784232     1.833414731864    -0.010324643293
    H           -0.979355405662     0.806707538053     1.334682768876
    O            1.197580569436    -0.071035174946     0.404470823011
    H            0.462841835334     0.753428648658    -1.321407764353
    H            0.860848337698     1.889254655357    -0.039393454809
    C            2.530526955304    -0.114904212346     0.014291792141
    H            2.628942368253    -0.342565156873    -1.044748791497
    H            3.032840745910     0.829888383964     0.210397436072
    H            3.017359099882    -0.892596509470     0.584389894929

  Mulliken Charges: (a.u.)
   Center  Symbol    Alpha    Beta     Spin     Total
       1     H     0.46900  0.46900  0.00000  0.06200
       2     C     3.02746  3.02746  0.00000 -0.05491
       3     O     4.17926  4.17926  0.00000 -0.35852
       4     H     0.44841  0.44841  0.00000  0.10318
       5     H     0.46937  0.46937  0.00000  0.06127
       6     C     2.97610  2.97610  0.00000  0.04779
       7     C     2.99276  2.99276  0.00000  0.01447
       8     H     0.45106  0.45106  0.00000  0.09787
       9     H     0.46679  0.46679  0.00000  0.06642
      10     O     4.17576  4.17576  0.00000 -0.35153
      11     H     0.46321  0.46321  0.00000  0.07357
      12     H     0.46281  0.46281  0.00000  0.07438
      13     C     3.03429  3.03429  0.00000 -0.06858
      14     H     0.46942  0.46942  0.00000  0.06115
      15     H     0.46834  0.46834  0.00000  0.06333
      16     H     0.44595  0.44595  0.00000  0.10810

   Total alpha = 25.00000, Total beta = 25.00000, Total charge = -0.00000
