                              Psi4 1.0.54 Driver

  ==> Input File <==

--------------------------------------------------------------------------
set {
	reference rhf
	basis cc-pvtz
}

set_num_threads( 4 )
memory 2 gb

molecule MOL {
0 1

H	 1.470291	 -0.189007	 -1.278164
O	 1.675515	 -0.612943	 -0.465627
C	 1.135873	 0.113391	 0.608264
C	 0.027642	 1.012027	 0.090274
H	 1.902972	 0.727968	 1.072615
H	 0.756163	 -0.561896	 1.370018
C	 -1.138737	 0.285728	 -0.581921
H	 0.464661	 1.708096	 -0.618252
H	 -0.340737	 1.603071	 0.925246
C	 -1.933983	 -0.631436	 0.343653
H	 -0.763151	 -0.285569	 -1.422081
H	 -1.808359	 1.035291	 -0.992333
H	 -2.789188	 -1.049673	 -0.174718
H	 -1.335629	 -1.461368	 0.700418
H	 -2.305435	 -0.092167	 1.209725

	symmetry c1
}
set optking {
	frozen_dihedral = ("
		1 2 3 4
	")
}

ee,wfn = optimize('scf', return_wfn=True)
oeprop( wfn, 'DIPOLE', 'QUADRUPOLE', 'MULLIKEN_CHARGES')
f=open( 'psi4out.xyz', 'w' )
f.write( "15  " )
f.write( str(ee) + "\n" )
f.write( MOL.save_string_xyz() )
f.close()
--------------------------------------------------------------------------

    Molecular point group: c1
  Charge       = 0
  Multiplicity = 1
  Basis Set: CC-PVTZ
  Basis Set:
  @DF-RHF Final Energy:  -232.23361670226774
    Total Energy =                       -232.2336167022677387
    Molecular point group: c1
  Basis Set: CC-PVTZ
  Basis Set:
  Basis Set: CC-PVTZ
  Basis Set:
  @DF-RHF Final Energy:  -232.06800339526833
    Total Energy =                       -232.0680033952682209
  Basis Set: CC-PVTZ
  Basis Set:
  Basis Set: CC-PVTZ
  Basis Set:
  @DF-RHF Final Energy:  -232.18205451735312
    Total Energy =                       -232.1820545173531514
  Basis Set: CC-PVTZ
  Basis Set:
  Basis Set: CC-PVTZ
  Basis Set:
  @DF-RHF Final Energy:  -232.23023713007220
    Total Energy =                       -232.2302371300719983
  Basis Set: CC-PVTZ
  Basis Set:
  @DF-RHF Final Energy:  -232.23477652353529
    Total Energy =                       -232.2347765235354018
  Basis Set: CC-PVTZ
  Basis Set:
  @DF-RHF Final Energy:  -232.23536061313607
    Total Energy =                       -232.2353606131362085
  Basis Set: CC-PVTZ
  Basis Set:
  Basis Set: CC-PVTZ
  Basis Set:
  @DF-RHF Final Energy:  -232.23539239062848
    Total Energy =                       -232.2353923906287605
  Basis Set: CC-PVTZ
  Basis Set:
  Basis Set: CC-PVTZ
  Basis Set:
  @DF-RHF Final Energy:  -232.23538995646513
    Total Energy =                       -232.2353899564651556
  Basis Set: CC-PVTZ
  Basis Set:
  Charge       = 0
  Multiplicity = 1
  Basis Set: CC-PVTZ
  Basis Set:

    Orbital Energies (a.u.)
    -----------------------

    Doubly Occupied:

       1A    -20.544131     2A    -11.264577     3A    -11.222073
       4A    -11.220550     5A    -11.209857     6A     -1.362333
       7A     -1.073124     8A     -0.975714     9A     -0.881955
      10A     -0.793980    11A     -0.667007    12A     -0.652197
      13A     -0.637725    14A     -0.586686    15A     -0.574131
      16A     -0.546486    17A     -0.507182    18A     -0.484637
      19A     -0.478525    20A     -0.457892    21A     -0.432091

  @DF-RHF Final Energy:  -232.23539787630727

   => Energetics <=

    Nuclear Repulsion Energy =            191.6762492742122959
    One-Electron Energy =                -694.6775895524290263
    Two-Electron Energy =                 270.7659424019092285
    DFT Exchange-Correlation Energy =       0.0000000000000000
    Empirical Dispersion Energy =           0.0000000000000000
    PCM Polarization Energy =               0.0000000000000000
    EFP Energy =                            0.0000000000000000
    Total Energy =                       -232.2353978763075020
    Molecular point group: c1
  Basis Set: CC-PVTZ
  Basis Set:

  -Total Gradient:
     Atom            X                  Y                   Z
    ------   -----------------  -----------------  -----------------
       1       -0.001724666306    -0.001199493531     0.000367109161
       2        0.002522312155     0.001835424814    -0.000733227345
       3       -0.001673738660    -0.001370703760     0.001025545341
       4        0.000903272889     0.000747142638    -0.000645921069
       5        0.000020066949    -0.000013527618     0.000006799884
       6       -0.000001721277     0.000005134303     0.000006086088
       7        0.000004590973     0.000015274358     0.000007946799
       8        0.000014275049     0.000006853844    -0.000009312672
       9       -0.000004210663     0.000009540125     0.000004215096
      10       -0.000015568856    -0.000005809392     0.000001104874
      11        0.000011597702    -0.000025273530    -0.000012836840
      12       -0.000041902806    -0.000004130521    -0.000032251324
      13       -0.000008563817    -0.000002308380     0.000004494065
      14        0.000005293381    -0.000007568677     0.000004335677
      15       -0.000011036711     0.000009445326     0.000005912265

  **** Optimization is complete! (in 9 steps) ****
    Final optimized geometry and variables:
    Molecular point group: c1

    Geometry (in Angstrom), charge = 0, multiplicity = 1:

    H            1.728489684953    -0.827520527960    -0.720668976143
    O            1.795163821158    -0.647188729205     0.198278911908
    C            1.063337437890     0.505836701125     0.527906528547
    C            0.004288672574     0.873808318559    -0.501208378912
    H            1.746836883300     1.342849914244     0.637943053259
    H            0.615298391995     0.330712454839     1.497351456276
    C           -1.087194948937    -0.174535921711    -0.733664202318
    H            0.502584322029     1.084721956862    -1.445425162595
    H           -0.454049222492     1.807804599957    -0.187917563542
    C           -1.969172267924    -0.446791072278     0.481721271897
    H           -0.639486282838    -1.107178648017    -1.062906826415
    H           -1.711207097452     0.164910278758    -1.554380974286
    H           -2.765619569737    -1.136970303846     0.229136687922
    H           -1.406179770126    -0.884502267181     1.296755495545
    H           -2.427620249615     0.467364508422     0.845233607249

  Mulliken Charges: (a.u.)
   Center  Symbol    Alpha    Beta     Spin     Total
       1     H     0.39217  0.39217  0.00000  0.21566
       2     O     4.20834  4.20834  0.00000 -0.41668
       3     C     2.96052  2.96052  0.00000  0.07896
       4     C     3.12028  3.12028  0.00000 -0.24056
       5     H     0.46332  0.46332  0.00000  0.07337
       6     H     0.46528  0.46528  0.00000  0.06944
       7     C     3.08310  3.08310  0.00000 -0.16620
       8     H     0.44777  0.44777  0.00000  0.10446
       9     H     0.45030  0.45030  0.00000  0.09940
      10     C     3.15355  3.15355  0.00000 -0.30709
      11     H     0.45679  0.45679  0.00000  0.08642
      12     H     0.44794  0.44794  0.00000  0.10413
      13     H     0.44605  0.44605  0.00000  0.10789
      14     H     0.44943  0.44943  0.00000  0.10115
      15     H     0.45518  0.45518  0.00000  0.08964

   Total alpha = 21.00000, Total beta = 21.00000, Total charge =  0.00000

*** Psi4 exiting successfully. Buy a developer a beer!
