  ==> Input File <==

--------------------------------------------------------------------------
set {
	reference rhf
	basis cc-pvtz
}

set_num_threads( 4 )
memory 2 gb

molecule MOL {
0 1

H	 0.984828	 2.693481	 -2.391218
O	 1.658602	 2.387465	 -1.810611
C	 1.183106	 1.480509	 -0.938880
C	 2.075728	 0.945167	 -0.021409
C	 -0.135617	 1.078890	 -0.933414
H	 3.096655	 1.271351	 -0.043055
C	 1.645891	 0.012932	 0.894850
H	 -0.845518	 1.475108	 -1.629367
C	 -0.532034	 0.141680	 0.000000
H	 2.342830	 -0.395319	 1.600083
C	 0.326200	 -0.406263	 0.920041
N	 -1.937041	 -0.281114	 0.000000
H	 -0.021665	 -1.128959	 1.625324
O	 -2.159542	 -1.446261	 0.000000
O	 -2.764978	 0.565773	 0.000000

	symmetry c1
}
set optking {
	frozen_dihedral = ("
		11 9 12 14
	")
}

ee = optimize('scf')
oeprop('DIPOLE', 'QUADRUPOLE', 'MULLIKEN_CHARGES')
f=open( 'psi4out.xyz', 'w' )
f.write( "15  " )
f.write( str(ee) + "\n" )
f.write( MOL.save_string_xyz() )
f.close()
--------------------------------------------------------------------------

    Molecular point group: c1
  Charge       = 0
  Multiplicity = 1
  Basis Set: CC-PVTZ
  Basis Set:
  @DF-RHF Final Energy:  -509.21416621891746
    Total Energy =                       -509.2141662189169438
    Molecular point group: c1
  Basis Set: CC-PVTZ
  Basis Set:
  Basis Set: CC-PVTZ
  Basis Set:
  @DF-RHF Final Energy:  -509.20792599573076
    Total Energy =                       -509.2079259957311024
  Basis Set: CC-PVTZ
  Basis Set:
  Basis Set: CC-PVTZ
  Basis Set:
  @DF-RHF Final Energy:  -509.21436989278180
    Total Energy =                       -509.2143698927818605
  Basis Set: CC-PVTZ
  Basis Set:
  Basis Set: CC-PVTZ
  Basis Set:
  @DF-RHF Final Energy:  -509.21462986597777
    Total Energy =                       -509.2146298659777131
  Basis Set: CC-PVTZ
  Basis Set:
  Basis Set: CC-PVTZ
  Basis Set:
  @DF-RHF Final Energy:  -509.21463149642466
    Total Energy =                       -509.2146314964243174
  Basis Set: CC-PVTZ
  Basis Set:
  Charge       = 0
  Multiplicity = 1
  Basis Set: CC-PVTZ
  Basis Set:

    Orbital Energies (a.u.)
    -----------------------

    Doubly Occupied:

       1A    -20.609798     2A    -20.598245     3A    -20.597595
       4A    -15.850308     5A    -11.329638     6A    -11.311934
       7A    -11.264554     8A    -11.263854     9A    -11.258766
      10A    -11.253387    11A     -1.645915    12A     -1.442618
      13A     -1.428933    14A     -1.204160    15A     -1.096647
      16A     -1.049522    17A     -0.967006    18A     -0.885032
      19A     -0.832975    20A     -0.794099    21A     -0.764591
      22A     -0.740731    23A     -0.724926    24A     -0.712438
      25A     -0.674656    26A     -0.636351    27A     -0.623032
      28A     -0.597424    29A     -0.564221    30A     -0.549182
      31A     -0.531425    32A     -0.494963    33A     -0.490820
      34A     -0.459618    35A     -0.377898    36A     -0.346586

  @DF-RHF Final Energy:  -509.21463173783241

   => Energetics <=

    Nuclear Repulsion Energy =            504.4322497023473488
    One-Electron Energy =               -1695.3460589567121133
    Two-Electron Energy =                 681.6991775165325862
    DFT Exchange-Correlation Energy =       0.0000000000000000
    Empirical Dispersion Energy =           0.0000000000000000
    PCM Polarization Energy =               0.0000000000000000
    EFP Energy =                            0.0000000000000000
    Total Energy =                       -509.2146317378322919
    Molecular point group: c1
  Basis Set: CC-PVTZ
  Basis Set:

  -Total Gradient:
     Atom            X                  Y                   Z
    ------   -----------------  -----------------  -----------------
       1        0.000000093302    -0.000006238047    -0.000005474921
       2       -0.000000007224     0.000020453966     0.000003685295
       3       -0.000014331366    -0.000035621401     0.000004524951
       4        0.000005142259    -0.000015142860    -0.000023371587
       5        0.000049582109    -0.000091257770    -0.000071140714
       6        0.000002312894    -0.000000739989     0.000000981025
       7       -0.000018965223     0.000035752329     0.000037402504
       8        0.000000660982    -0.000003405564    -0.000004309156
       9        0.001188868948    -0.004643287980    -0.005706849708
      10        0.000000536249    -0.000005583455    -0.000006059547
      11       -0.000849861677     0.003269388529     0.002705607575
      12       -0.000292573880     0.001751763471     0.008169202535
      13       -0.000000009566    -0.000000244327    -0.000005875834
      14       -0.000098312664    -0.000188402097    -0.005118853648
      15        0.000026864860    -0.000087434805     0.000020531229

  **** Optimization is complete! (in 6 steps) ****
    Final optimized geometry and variables:
    Molecular point group: c1

    Geometry (in Angstrom), charge = 0, multiplicity = 1:

    H            1.113558024329     2.239648033767    -2.167089456922
    O            1.788758134651     1.927308660943    -1.591597909771
    C            1.315052592926     1.021516243902    -0.719532153912
    C            2.207214360167     0.491762005453     0.202082863341
    C           -0.005949269600     0.622543785182    -0.709448951610
    H            3.225853764812     0.824655742267     0.184443347550
    C            1.778401717744    -0.438479234703     1.120559171759
    H           -0.724565498174     1.039744036956    -1.386516950730
    C           -0.387925938875    -0.333838191585     0.206128203257
    H            2.472918714834    -0.833339018784     1.835872511643
    C            0.463099312286    -0.873992176972     1.133744465167
    N           -1.796153186860    -0.731655076553     0.230850217453
    H            0.117717104055    -1.608810969708     1.830531564093
    O           -2.030860261873    -1.892273685808     0.264571267334
    O           -2.605120792426     0.133541653344     0.180750889972

  Mulliken Charges: (a.u.)
   Center  Symbol    Alpha    Beta     Spin     Total
       1     H     0.38445  0.38445  0.00000  0.23109
       2     O     4.16747  4.16747  0.00000 -0.33494
       3     C     2.84359  2.84359  0.00000  0.31283
       4     C     3.10239  3.10239  0.00000 -0.20478
       5     C     3.14057  3.14057  0.00000 -0.28115
       6     H     0.41377  0.41377  0.00000  0.17247
       7     C     3.05288  3.05288  0.00000 -0.10576
       8     H     0.41699  0.41699  0.00000  0.16602
       9     C     2.93368  2.93368  0.00000  0.13263
      10     H     0.41625  0.41625  0.00000  0.16749
      11     C     3.10721  3.10721  0.00000 -0.21442
      12     N     3.27637  3.27637  0.00000  0.44726
      13     H     0.40841  0.40841  0.00000  0.18318
      14     O     4.16648  4.16648  0.00000 -0.33297
      15     O     4.16948  4.16948  0.00000 -0.33895

   Total alpha = 36.00000, Total beta = 36.00000, Total charge = -0.00000
