  ==> Input File <==

--------------------------------------------------------------------------
set {
	reference rhf
	basis 6-31G*
}

set_num_threads( 4 )
memory 2 gb

molecule MOL {
0 1

H	 2.572941	 1.171310	 1.437629
N	 1.697068	 0.686418	 1.402451
C	 1.267428	 0.496480	 0.024474
H	 1.034677	 1.248693	 1.902451
C	 -0.016086	 -0.325158	 -0.029487
H	 2.056732	 -0.037060	 -0.496456
H	 1.118356	 1.436842	 -0.512066
C	 -1.282277	 0.529072	 0.046735
H	 -0.012495	 -0.908639	 -0.945788
H	 -0.015903	 -1.041248	 0.791956
C	 -2.563920	 -0.301775	 -0.006060
H	 -1.284084	 1.244622	 -0.773004
H	 -1.271387	 1.115393	 0.963286
H	 -2.621848	 -0.873522	 -0.927727
H	 -3.445135	 0.329952	 0.047812
H	 -2.609542	 -1.004582	 0.821105

	symmetry c1
}
set optking {
	frozen_dihedral = ("
		6 3 5 9
	")
}

ee = optimize('scf')
oeprop('DIPOLE', 'QUADRUPOLE', 'MULLIKEN_CHARGES')
f=open( 'psi4out.xyz', 'w' )
f.write( "16  " )
f.write( str(ee) + "\n" )
f.write( MOL.save_string_xyz() )
f.close()
--------------------------------------------------------------------------

    Molecular point group: c1
  Charge       = 0
  Multiplicity = 1
  Basis Set: 6-31G*
  Basis Set:
  @DF-RHF Final Energy:  -212.31373638898964
    Total Energy =                       -212.3137363889896960
    Molecular point group: c1
  Basis Set: 6-31G*
  Basis Set:
  Basis Set: 6-31G*
  Basis Set:
  @DF-RHF Final Energy:  -212.31403644502615
    Total Energy =                       -212.3140364450260904
  Basis Set: 6-31G*
  Basis Set:
  Basis Set: 6-31G*
  Basis Set:
  @DF-RHF Final Energy:  -212.31412816704128
    Total Energy =                       -212.3141281670411900
  Basis Set: 6-31G*
  Basis Set:
  Charge       = 0
  Multiplicity = 1
  Basis Set: 6-31G*
  Basis Set:

    Orbital Energies (a.u.)
    -----------------------

    Doubly Occupied:

       1A    -15.532850     2A    -11.239907     3A    -11.216618
       4A    -11.209244     5A    -11.208512     6A     -1.176627
       7A     -1.058206     8A     -0.959582     9A     -0.849608
      10A     -0.786079    11A     -0.665850    12A     -0.638376
      13A     -0.600712    14A     -0.584011    15A     -0.552954
      16A     -0.524064    17A     -0.513984    18A     -0.472460
      19A     -0.465527    20A     -0.453697    21A     -0.380525

  @DF-RHF Final Energy:  -212.31412770880985

   => Energetics <=

    Nuclear Repulsion Energy =            188.0185106812145364
    One-Electron Energy =                -658.4864907156338631
    Two-Electron Energy =                 258.1538523256095914
    DFT Exchange-Correlation Energy =       0.0000000000000000
    Empirical Dispersion Energy =           0.0000000000000000
    PCM Polarization Energy =               0.0000000000000000
    EFP Energy =                            0.0000000000000000
    Total Energy =                       -212.3141277088097354
    Molecular point group: c1
  Basis Set: 6-31G*
  Basis Set:

  -Total Gradient:
     Atom            X                  Y                   Z
    ------   -----------------  -----------------  -----------------
       1        0.000023362538     0.000002158797    -0.000042866840
       2       -0.000049890436    -0.000072450755     0.000054087553
       3        0.001503047473    -0.002955395866     0.004642962488
       4       -0.000013889482     0.000002182794    -0.000029984440
       5       -0.002348013414     0.004185370145    -0.003000218855
       6       -0.000945738358     0.001841421094    -0.003338702989
       7        0.000024233143     0.000017281999    -0.000047749304
       8       -0.000014222787     0.000065892409    -0.000129067618
       9        0.001753420205    -0.002937279590     0.001855491715
      10       -0.000006414410    -0.000071764831    -0.000014047765
      11        0.000060228646    -0.000041243192     0.000124181779
      12        0.000008148749    -0.000038941072    -0.000057382136
      13        0.000005522497     0.000003283566    -0.000021338900
      14       -0.000008138205     0.000035767168    -0.000015174907
      15        0.000018145780     0.000009301131     0.000045840499
      16       -0.000009801938    -0.000045583798    -0.000026030278

  **** Optimization is complete! (in 4 steps) ****
    Final optimized geometry and variables:
    Molecular point group: c1

    Geometry (in Angstrom), charge = 0, multiplicity = 1:

    H            2.725676238494     0.946477519966     1.151460673884
    N            1.852825588519     0.455998004514     1.111864057547
    C            1.446551474601     0.250035536426    -0.271681177297
    H            1.183998962163     1.024836023120     1.595143525531
    C            0.143919132138    -0.550515021655    -0.362940970678
    H            2.237751266670    -0.287105342801    -0.783443775112
    H            1.326421461745     1.187387501697    -0.822307063815
    C           -1.125239041959     0.299114003906    -0.272969778943
    H            0.139072840217    -1.128193304520    -1.284559358194
    H            0.151286613611    -1.282246568980     0.440846954699
    C           -2.402728293312    -0.538875792903    -0.299302915429
    H           -1.142030230268     1.010388216737    -1.095988793612
    H           -1.107778281157     0.890694390693     0.640645629665
    H           -2.473263947284    -1.114262436673    -1.218139292719
    H           -3.286770573160     0.087749762172    -0.232646865928
    H           -2.428730442195    -1.238961457730     0.530649826335

  Mulliken Charges: (a.u.)
   Center  Symbol    Alpha    Beta     Spin     Total
       1     H     0.33269  0.33269  0.00000  0.33462
       2     N     3.92074  3.92074  0.00000 -0.84148
       3     C     3.06464  3.06464  0.00000 -0.12927
       4     H     0.33407  0.33407  0.00000  0.33185
       5     C     3.15714  3.15714  0.00000 -0.31428
       6     H     0.41836  0.41836  0.00000  0.16329
       7     H     0.43502  0.43502  0.00000  0.12996
       8     C     3.15374  3.15374  0.00000 -0.30749
       9     H     0.42219  0.42219  0.00000  0.15561
      10     H     0.41140  0.41140  0.00000  0.17719
      11     C     3.23919  3.23919  0.00000 -0.47838
      12     H     0.42292  0.42292  0.00000  0.15417
      13     H     0.42679  0.42679  0.00000  0.14643
      14     H     0.42143  0.42143  0.00000  0.15714
      15     H     0.41970  0.41970  0.00000  0.16061
      16     H     0.41997  0.41997  0.00000  0.16006

   Total alpha = 21.00000, Total beta = 21.00000, Total charge = -0.00000
