  ==> Input File <==

--------------------------------------------------------------------------
set {
	reference rhf
	basis 6-31G*
}

set_num_threads( 1 )
memory 2 gb

molecule MOL {
0 1

O	 -0.682937	 1.318834	 -0.186099
C	 -0.860635	 0.152188	 -0.042321
C	 -2.173363	 -0.477127	 0.338347
O	 0.083258	 -0.765189	 -0.202595
H	 -2.477673	 -1.180929	 -0.427595
H	 -2.923125	 0.290956	 0.455536
H	 -2.058825	 -1.029004	 1.264191
C	 1.237710	 -0.424104	 -0.966597
C	 2.269155	 0.301399	 -0.122551
H	 0.937990	 0.170081	 -1.816452
H	 1.620878	 -1.371896	 -1.316414
H	 3.164619	 0.479711	 -0.709984
H	 1.888261	 1.257017	 0.215208
H	 2.541793	 -0.294165	 0.741965

	symmetry c1
}
set optking {
	frozen_dihedral = ("
		10 8 4 2
	")
}

ee = energy('scf')
oeprop('DIPOLE', 'QUADRUPOLE', 'MULLIKEN_CHARGES')
f=open( 'psi4out.xyz', 'w' )
f.write( "14  " )
f.write( str(ee) + "\n" )
f.write( MOL.save_string_xyz() )
f.close()
--------------------------------------------------------------------------

    Molecular point group: c1

    Geometry (in Angstrom), charge = 0, multiplicity = 1:

       Center              X                  Y                   Z               Mass
    ------------   -----------------  -----------------  -----------------  -----------------
           O         -0.669281358511     1.298477772249     0.010836007736    15.994914619560
           C         -0.846979358511     0.131831772249     0.154614007736    12.000000000000
           C         -2.159707358511    -0.497483227751     0.535282007736    12.000000000000
           O          0.096913641489    -0.785545227751    -0.005659992264    15.994914619560
           H         -2.464017358511    -1.201285227751    -0.230659992264     1.007825032070
           H         -2.909469358511     0.270599772249     0.652471007736     1.007825032070
           H         -2.045169358511    -1.049360227751     1.461126007736     1.007825032070
           C          1.251365641489    -0.444460227751    -0.769661992264    12.000000000000
           C          2.282810641489     0.281042772249     0.074384007736    12.000000000000
           H          0.951645641489     0.149724772249    -1.619516992264     1.007825032070
           H          1.634533641489    -1.392252227751    -1.119478992264     1.007825032070
           H          3.178274641489     0.459354772249    -0.513048992264     1.007825032070
           H          1.901916641489     1.236660772249     0.412143007736     1.007825032070
           H          2.555448641489    -0.314521227751     0.938900007736     1.007825032070

  Charge       = 0
  Multiplicity = 1
  Basis Set: 6-31G*
  Basis Set:

    Orbital Energies (a.u.)
    -----------------------

    Doubly Occupied:

       1A    -20.599874     2A    -20.546046     3A    -11.376310
       4A    -11.287506     5A    -11.233441     6A    -11.214350
       7A     -1.467319     8A     -1.363437     9A     -1.054340
      10A     -0.997590    11A     -0.882135    12A     -0.766911
      13A     -0.699100    14A     -0.681682    15A     -0.655656
      16A     -0.609323    17A     -0.586048    18A     -0.570436
      19A     -0.560243    20A     -0.530758    21A     -0.508631
      22A     -0.497653    23A     -0.449774    24A     -0.437838

  @DF-RHF Final Energy:  -305.87293025007216

   => Energetics <=

    Nuclear Repulsion Energy =            248.9447666594491011
    One-Electron Energy =                -910.4825583660428947
    Two-Electron Energy =                 355.6648614565211233
    DFT Exchange-Correlation Energy =       0.0000000000000000
    Empirical Dispersion Energy =           0.0000000000000000
    PCM Polarization Energy =               0.0000000000000000
    EFP Energy =                            0.0000000000000000
    Total Energy =                       -305.8729302500726703

  Mulliken Charges: (a.u.)
   Center  Symbol    Alpha    Beta     Spin     Total
       1     O     4.28177  4.28177  0.00000 -0.56353
       2     C     2.62111  2.62111  0.00000  0.75779
       3     C     3.28144  3.28144  0.00000 -0.56287
       4     O     4.30719  4.30719  0.00000 -0.61438
       5     H     0.40137  0.40137  0.00000  0.19725
       6     H     0.39743  0.39743  0.00000  0.20514
       7     H     0.39969  0.39969  0.00000  0.20062
       8     C     3.00551  3.00551  0.00000 -0.01102
       9     C     3.25442  3.25442  0.00000 -0.50885
      10     H     0.40891  0.40891  0.00000  0.18218
      11     H     0.40944  0.40944  0.00000  0.18113
      12     H     0.42021  0.42021  0.00000  0.15958
      13     H     0.39656  0.39656  0.00000  0.20688
      14     H     0.41495  0.41495  0.00000  0.17009

   Total alpha = 24.00000, Total beta = 24.00000, Total charge = -0.00000
