                              Psi4 1.0.54 Driver

  ==> Input File <==

--------------------------------------------------------------------------
set {
	reference rhf
	basis cc-pvtz
}

set_num_threads( 4 )
memory 2 gb

molecule MOL {
0 1

H	 1.036457	 0.618507	 0.175438
C	 0.788096	 -0.429819	 0.000000
N	 -0.537714	 -0.645117	 0.000000
O	 1.630334	 -1.254062	 -0.167262
C	 -1.522613	 0.412524	 0.000000
H	 -0.845894	 -1.585866	 0.000000
H	 -2.150256	 0.356137	 -0.880771
H	 -1.005621	 1.357208	 0.000000
H	 -2.150256	 0.356137	 0.880771

	symmetry c1
}
set optking {
	frozen_dihedral = ("
		1 2 3 6
	")
}

ee,wfn = optimize('scf', return_wfn=True)
oeprop( wfn, 'DIPOLE', 'QUADRUPOLE', 'MULLIKEN_CHARGES')
f=open( 'psi4out.xyz', 'w' )
f.write( "9  " )
f.write( str(ee) + "\n" )
f.write( MOL.save_string_xyz() )
f.close()
--------------------------------------------------------------------------

    Molecular point group: c1
  Charge       = 0
  Multiplicity = 1
  Basis Set: CC-PVTZ
  Basis Set:
  @DF-RHF Final Energy:  -208.04079959891919
    Total Energy =                       -208.0407995989192500
    Molecular point group: c1
  Basis Set: CC-PVTZ
  Basis Set:
  Basis Set: CC-PVTZ
  Basis Set:
  @DF-RHF Final Energy:  -208.04041348651134
    Total Energy =                       -208.0404134865113406
  Basis Set: CC-PVTZ
  Basis Set:
  Basis Set: CC-PVTZ
  Basis Set:
  @DF-RHF Final Energy:  -208.04151674284554
    Total Energy =                       -208.0415167428456868
  Basis Set: CC-PVTZ
  Basis Set:
  Basis Set: CC-PVTZ
  Basis Set:
  @DF-RHF Final Energy:  -208.04165717014911
    Total Energy =                       -208.0416571701491648
  Basis Set: CC-PVTZ
  Basis Set:
  @DF-RHF Final Energy:  -208.04169991690281
    Total Energy =                       -208.0416999169027576
  Basis Set: CC-PVTZ
  Basis Set:
  @DF-RHF Final Energy:  -208.04171973452742
    Total Energy =                       -208.0417197345275042
  Basis Set: CC-PVTZ
  Basis Set:
  Basis Set: CC-PVTZ
  Basis Set:
  @DF-RHF Final Energy:  -208.04174183144318
    Total Energy =                       -208.0417418314431757
  Basis Set: CC-PVTZ
  Basis Set:
  Basis Set: CC-PVTZ
  Basis Set:
  @DF-RHF Final Energy:  -208.04175254454083
    Total Energy =                       -208.0417525445408273
  Basis Set: CC-PVTZ
  Basis Set:
  Charge       = 0
  Multiplicity = 1
  Basis Set: CC-PVTZ
  Basis Set:

    Orbital Energies (a.u.)
    -----------------------

    Doubly Occupied:

       1A    -20.517230     2A    -15.584226     3A    -11.338561
       4A    -11.274261     5A     -1.394613     6A     -1.243130
       7A     -0.966637     8A     -0.847692     9A     -0.694024
      10A     -0.678429    11A     -0.636370    12A     -0.596700
      13A     -0.570940    14A     -0.548593    15A     -0.429155
      16A     -0.395663

  @DF-RHF Final Energy:  -208.04175452244704

   => Energetics <=

    Nuclear Repulsion Energy =            120.6889946682532582
    One-Electron Energy =                -522.0290489097609452
    Two-Electron Energy =                 193.2982997190607080
    DFT Exchange-Correlation Energy =       0.0000000000000000
    Empirical Dispersion Energy =           0.0000000000000000
    PCM Polarization Energy =               0.0000000000000000
    EFP Energy =                            0.0000000000000000
    Total Energy =                       -208.0417545224469791
    Molecular point group: c1
  Basis Set: CC-PVTZ
  Basis Set:

  -Total Gradient:
     Atom            X                  Y                   Z
    ------   -----------------  -----------------  -----------------
       1       -0.000219454384    -0.000232286198     0.002248862658
       2        0.000237662528     0.000427394260    -0.002159254241
       3        0.000350273033    -0.000420476183    -0.002619147704
       4        0.000009823726    -0.000021053351     0.000002160089
       5       -0.000064326236     0.000093660833     0.000019254248
       6       -0.000332602274     0.000161192401     0.002516799841
       7        0.000003694082    -0.000007102830    -0.000001000217
       8        0.000005637317     0.000013903950    -0.000002326978
       9        0.000009292208    -0.000015232882    -0.000005347696

  **** Optimization is complete! (in 9 steps) ****
    Final optimized geometry and variables:
    Molecular point group: c1

    Geometry (in Angstrom), charge = 0, multiplicity = 1:

    H            0.981366835354     1.103606375727     0.172401353199
    C            0.717207374256     0.052597970746     0.037421253692
    N           -0.605647382855    -0.142099647978    -0.116277111436
    O            1.537852036408    -0.807840727675     0.037886590221
    C           -1.599335718601     0.892784601232     0.026279263878
    H           -0.901799668442    -1.090060647080    -0.086282530529
    H           -2.323808756428     0.837847239244    -0.775512348437
    H           -1.119546302231     1.860038308412    -0.027329581937
    H           -2.124611968133     0.827461264397     0.972559191990

  Mulliken Charges: (a.u.)
   Center  Symbol    Alpha    Beta     Spin     Total
       1     H     0.47105  0.47105  0.00000  0.05789
       2     C     2.88117  2.88117  0.00000  0.23766
       3     N     3.59788  3.59788  0.00000 -0.19576
       4     O     4.20737  4.20737  0.00000 -0.41475
       5     C     3.07258  3.07258  0.00000 -0.14516
       6     H     0.40994  0.40994  0.00000  0.18012
       7     H     0.45024  0.45024  0.00000  0.09952
       8     H     0.45428  0.45428  0.00000  0.09143
       9     H     0.45548  0.45548  0.00000  0.08904

   Total alpha = 16.00000, Total beta = 16.00000, Total charge = -0.00000

*** Psi4 exiting successfully. Buy a developer a beer!
