  ==> Input File <==

--------------------------------------------------------------------------
set {
	reference rhf
	basis 6-31G*
}

set_num_threads( 1 )
memory 2 gb

molecule MOL {
0 1

H	 -4.031818	 -0.453427	 -0.000094
C	 -2.967712	 -0.297022	 -0.000064
C	 -2.458620	 0.992929	 0.000032
C	 -2.109895	 -1.385637	 -0.000122
H	 -3.124998	 1.836319	 0.000077
C	 -1.090278	 1.193236	 0.000070
H	 -2.506361	 -2.384847	 -0.000198
C	 -0.739812	 -1.187531	 -0.000085
H	 -0.678594	 2.184290	 0.000146
C	 -0.226438	 0.104061	 0.000012
H	 -0.072310	 -2.027032	 -0.000131
C	 1.239129	 0.373821	 0.000060
O	 1.825151	 0.057957	 -1.145108
O	 1.832505	 0.826526	 0.928404
C	 3.221050	 0.282557	 -1.232820
H	 3.445361	 1.329687	 -1.091404
H	 3.507429	 -0.031945	 -2.224247
H	 3.745289	 -0.298479	 -0.488179

	symmetry c1
}
set optking {
	frozen_dihedral = ("
		12 13 15 16,
		10 12 13 15
	")
}

ee = energy('scf')
oeprop('DIPOLE', 'QUADRUPOLE', 'MULLIKEN_CHARGES')
f=open( 'psi4out.xyz', 'w' )
f.write( "18  " )
f.write( str(ee) + "\n" )
f.write( MOL.save_string_xyz() )
f.close()
--------------------------------------------------------------------------

    Molecular point group: c1

    Geometry (in Angstrom), charge = 0, multiplicity = 1:

       Center              X                  Y                   Z               Mass
    ------------   -----------------  -----------------  -----------------  -----------------
           H         -4.011231845903    -0.565295443715     0.162306353425     1.007825032070
           C         -2.947125845903    -0.408890443715     0.162336353425    12.000000000000
           C         -2.438033845903     0.881060556285     0.162432353425    12.000000000000
           C         -2.089308845903    -1.497505443715     0.162278353425    12.000000000000
           H         -3.104411845903     1.724450556285     0.162477353425     1.007825032070
           C         -1.069691845903     1.081367556285     0.162470353425    12.000000000000
           H         -2.485774845903    -2.496715443715     0.162202353425     1.007825032070
           C         -0.719225845903    -1.299399443715     0.162315353425    12.000000000000
           H         -0.658007845903     2.072421556285     0.162546353425     1.007825032070
           C         -0.205851845903    -0.007807443715     0.162412353425    12.000000000000
           H         -0.051723845903    -2.138900443715     0.162269353425     1.007825032070
           C          1.259715154097     0.261952556285     0.162460353425    12.000000000000
           O          1.845737154097    -0.053911443715    -0.982707646575    15.994914619560
           O          1.853091154097     0.714657556285     1.090804353425    15.994914619560
           C          3.241636154097     0.170688556285    -1.070419646575    12.000000000000
           H          3.465947154097     1.217818556285    -0.929003646575     1.007825032070
           H          3.528015154097    -0.143813443715    -2.061846646575     1.007825032070
           H          3.765875154097    -0.410347443715    -0.325778646575     1.007825032070

  Charge       = 0
  Multiplicity = 1
  Basis Set: 6-31G*
  Basis Set:

    Orbital Energies (a.u.)
    -----------------------

    Doubly Occupied:

       1A    -20.609592     2A    -20.549609     3A    -11.380350
       4A    -11.283196     5A    -11.251576     6A    -11.245261
       7A    -11.243666     8A    -11.241420     9A    -11.240052
      10A    -11.239376    11A     -1.474569    12A     -1.365767
      13A     -1.166573    14A     -1.049230    15A     -1.026503
      16A     -0.979479    17A     -0.861270    18A     -0.838637
      19A     -0.780000    20A     -0.738091    21A     -0.685714
      22A     -0.679844    23A     -0.675773    24A     -0.631039
      25A     -0.629866    26A     -0.598285    27A     -0.590925
      28A     -0.548083    29A     -0.535663    30A     -0.516804
      31A     -0.508057    32A     -0.501756    33A     -0.458585
      34A     -0.445580    35A     -0.343350    36A     -0.341861

  @DF-RHF Final Energy:  -457.33952536049793

   => Energetics <=

    Nuclear Repulsion Energy =            491.6500234752339225
    One-Electron Energy =               -1597.4683219592714067
    Two-Electron Energy =                 648.4787731235385309
    DFT Exchange-Correlation Energy =       0.0000000000000000
    Empirical Dispersion Energy =           0.0000000000000000
    PCM Polarization Energy =               0.0000000000000000
    EFP Energy =                            0.0000000000000000
    Total Energy =                       -457.3395253604990103

  Mulliken Charges: (a.u.)
   Center  Symbol    Alpha    Beta     Spin     Total
       1     H     0.39648  0.39648  0.00000  0.20704
       2     C     3.09683  3.09683  0.00000 -0.19365
       3     C     3.10022  3.10022  0.00000 -0.20044
       4     C     3.10082  3.10082  0.00000 -0.20165
       5     H     0.39534  0.39534  0.00000  0.20932
       6     C     3.09799  3.09799  0.00000 -0.19597
       7     H     0.39553  0.39553  0.00000  0.20895
       8     C     3.09494  3.09494  0.00000 -0.18988
       9     H     0.38873  0.38873  0.00000  0.22255
      10     C     3.01225  3.01225  0.00000 -0.02450
      11     H     0.39104  0.39104  0.00000  0.21792
      12     C     2.63893  2.63893  0.00000  0.72214
      13     O     4.29660  4.29660  0.00000 -0.59321
      14     O     4.27756  4.27756  0.00000 -0.55511
      15     C     3.09380  3.09380  0.00000 -0.18759
      16     H     0.40799  0.40799  0.00000  0.18402
      17     H     0.40673  0.40673  0.00000  0.18653
      18     H     0.40824  0.40824  0.00000  0.18351

   Total alpha = 36.00000, Total beta = 36.00000, Total charge = -0.00000
