  ==> Input File <==

--------------------------------------------------------------------------
set {
	reference rhf
	basis 6-31G*
}

set_num_threads( 4 )
memory 2 gb

molecule MOL {
0 1

H	 2.312825	 -0.146307	 0.309333
O	 1.586534	 -0.678666	 -0.000226
C	 0.489431	 0.077273	 0.000046
C	 -0.764129	 -0.759190	 0.000191
O	 0.537743	 1.263962	 0.000257
C	 -2.038368	 0.075731	 -0.000248
H	 -0.717284	 -1.412404	 -0.866059
H	 -0.717458	 -1.411724	 0.866967
H	 -2.086483	 0.712501	 -0.875098
H	 -2.908485	 -0.571682	 -0.000042
H	 -2.086576	 0.713280	 0.874068

	symmetry c1
}
set optking {
	frozen_dihedral = ("
		1 2 3 5
	")
}

ee = optimize('scf')
oeprop('DIPOLE', 'QUADRUPOLE', 'MULLIKEN_CHARGES')
f=open( 'psi4out.xyz', 'w' )
f.write( "11  " )
f.write( str(ee) + "\n" )
f.write( MOL.save_string_xyz() )
f.close()
--------------------------------------------------------------------------

    Molecular point group: c1
  Charge       = 0
  Multiplicity = 1
  Basis Set: 6-31G*
  Basis Set:
  @DF-RHF Final Energy:  -266.84363385272559
    Total Energy =                       -266.8436338527253611
    Molecular point group: c1
  Basis Set: 6-31G*
  Basis Set:
  Basis Set: 6-31G*
  Basis Set:
  @DF-RHF Final Energy:  -266.84010379473091
    Total Energy =                       -266.8401037947307941
  Basis Set: 6-31G*
  Basis Set:
  Basis Set: 6-31G*
  Basis Set:
  @DF-RHF Final Energy:  -266.84382227929825
    Total Energy =                       -266.8438222792981378
  Basis Set: 6-31G*
  Basis Set:
  Basis Set: 6-31G*
  Basis Set:
  @DF-RHF Final Energy:  -266.84387399052014
    Total Energy =                       -266.8438739905202510
  Basis Set: 6-31G*
  Basis Set:
  Basis Set: 6-31G*
  Basis Set:
  @DF-RHF Final Energy:  -266.84387835634107
    Total Energy =                       -266.8438783563408379
  Basis Set: 6-31G*
  Basis Set:
  Basis Set: 6-31G*
  Basis Set:
  @DF-RHF Final Energy:  -266.84385938897674
    Total Energy =                       -266.8438593889768526
  Basis Set: 6-31G*
  Basis Set:
  Charge       = 0
  Multiplicity = 1
  Basis Set: 6-31G*
  Basis Set:

    Orbital Energies (a.u.)
    -----------------------

    Doubly Occupied:

       1A    -20.611936     2A    -20.553747     3A    -11.382162
       4A    -11.243985     5A    -11.220321     6A     -1.473828
       7A     -1.367347     8A     -1.064965     9A     -0.916461
      10A     -0.801568    11A     -0.702626    12A     -0.689425
      13A     -0.661145    14A     -0.601518    15A     -0.586373
      16A     -0.530805    17A     -0.525875    18A     -0.505341
      19A     -0.480618    20A     -0.445804

  @DF-RHF Final Energy:  -266.84388156696986

   => Energetics <=

    Nuclear Repulsion Energy =            179.6937538251008277
    One-Electron Energy =                -720.3435684143560138
    Two-Electron Energy =                 273.8059330222854442
    DFT Exchange-Correlation Energy =       0.0000000000000000
    Empirical Dispersion Energy =           0.0000000000000000
    PCM Polarization Energy =               0.0000000000000000
    EFP Energy =                            0.0000000000000000
    Total Energy =                       -266.8438815669696851
    Molecular point group: c1
  Basis Set: 6-31G*
  Basis Set:

  -Total Gradient:
     Atom            X                  Y                   Z
    ------   -----------------  -----------------  -----------------
       1       -0.000981981659    -0.002370273811     0.006953435538
       2        0.001133096492     0.003002994404    -0.011740757458
       3        0.000232546608    -0.000812664010     0.011550015273
       4        0.000036675866    -0.000022336495    -0.000072032031
       5       -0.000362987761     0.000188183798    -0.006710027598
       6       -0.000025416615    -0.000040141713     0.000011852687
       7       -0.000011945282     0.000018407793    -0.000004966286
       8       -0.000008051558     0.000024684708     0.000012564651
       9        0.000006386263    -0.000005496089    -0.000002882098
      10       -0.000018764959     0.000015633937     0.000000262961
      11        0.000000442603     0.000001007479     0.000002534360

  **** Optimization is complete! (in 7 steps) ****
    Final optimized geometry and variables:
    Molecular point group: c1

    Geometry (in Angstrom), charge = 0, multiplicity = 1:

    H            2.336634934736    -0.159306423184     0.211547366747
    O            1.588284915090    -0.674741503433    -0.071590711413
    C            0.489754565565     0.078843802005     0.025785020276
    C           -0.762937013563    -0.758532539882     0.002699104621
    O            0.535036891625     1.263986120707     0.069269105279
    C           -2.038350466019     0.073676672218    -0.034123634576
    H           -0.694511721757    -1.421638307445    -0.854223172606
    H           -0.735339658130    -1.401554130780     0.877896227568
    H           -2.070343991694     0.698147778392    -0.918757385212
    H           -2.907516450777    -0.575010886760    -0.042374094719
    H           -2.104554637700     0.723304135424     0.829905307929

  Mulliken Charges: (a.u.)
   Center  Symbol    Alpha    Beta     Spin     Total
       1     H     0.26736  0.26736  0.00000  0.46528
       2     O     4.35205  4.35205  0.00000 -0.70410
       3     C     2.62627  2.62627  0.00000  0.74746
       4     C     3.20824  3.20824  0.00000 -0.41648
       5     O     4.27502  4.27502  0.00000 -0.55004
       6     C     3.23959  3.23959  0.00000 -0.47918
       7     H     0.39731  0.39731  0.00000  0.20538
       8     H     0.39939  0.39939  0.00000  0.20123
       9     H     0.40935  0.40935  0.00000  0.18130
      10     H     0.41670  0.41670  0.00000  0.16660
      11     H     0.40872  0.40872  0.00000  0.18256

   Total alpha = 20.00000, Total beta = 20.00000, Total charge =  0.00000
