  ==> Input File <==

--------------------------------------------------------------------------
set {
	reference rhf
	basis 6-31G*
}

set_num_threads( 1 )
memory 2 gb

molecule MOL {
0 1

O	 3.225979	 0.970355	 -0.599647
C	 2.701189	 0.057885	 -0.047330
C	 1.245376	 -0.013843	 0.345420
O	 3.347903	 -1.046386	 0.304773
C	 0.455112	 1.231400	 -0.050772
H	 0.838542	 -0.913825	 -0.103701
H	 1.208210	 -0.175333	 1.419774
C	 -0.998893	 1.219485	 0.433193
H	 0.482531	 1.345121	 -1.130325
H	 0.957290	 2.103070	 0.354729
C	 -1.883438	 0.145884	 -0.207175
H	 -1.431207	 2.195402	 0.224832
H	 -1.019646	 1.105716	 1.516076
C	 -1.478418	 -0.177830	 -1.646678
H	 -1.835245	 -0.761747	 0.392577
H	 -2.923742	 0.463151	 -0.198112
C	 -2.358749	 -1.245686	 -2.298471
H	 -0.441526	 -0.509237	 -1.662785
H	 -1.516056	 0.731504	 -2.244502
C	 -1.945273	 -1.565886	 -3.734511
H	 -2.323084	 -2.154729	 -1.701804
H	 -3.395016	 -0.914318	 -2.287233
H	 -2.587569	 -2.325612	 -4.169114
H	 -0.923807	 -1.933462	 -3.775637
H	 -2.003441	 -0.683308	 -4.365339
C	 4.728119	 -1.109107	 -0.004993
H	 4.882018	 -1.033965	 -1.071845
H	 5.068212	 -2.067527	 0.355250
H	 5.265056	 -0.311663	 0.488280

	symmetry c1
}
set optking {
	frozen_dihedral = ("
		21 17 14 11,
		17 14 11 15,
		6 3 5 9,
		11 8 5 9,
		2 4 26 27,
		1 2 4 26,
		6 3 2 1
	")
}

ee = energy('scf')
oeprop('DIPOLE', 'QUADRUPOLE', 'MULLIKEN_CHARGES')
f=open( 'psi4out.xyz', 'w' )
f.write( "29  " )
f.write( str(ee) + "\n" )
f.write( MOL.save_string_xyz() )
f.close()
--------------------------------------------------------------------------

    Molecular point group: c1

    Geometry (in Angstrom), charge = 0, multiplicity = 1:

       Center              X                  Y                   Z               Mass
    ------------   -----------------  -----------------  -----------------  -----------------
           O          2.536566858250     1.125890608472     0.091880389781    15.994914619560
           C          2.011776858250     0.213420608472     0.644197389781    12.000000000000
           C          0.555963858250     0.141692608472     1.036947389781    12.000000000000
           O          2.658490858250    -0.890850391528     0.996300389781    15.994914619560
           C         -0.234300141750     1.386935608472     0.640755389781    12.000000000000
           H          0.149129858250    -0.758289391528     0.587826389781     1.007825032070
           H          0.518797858250    -0.019797391528     2.111301389781     1.007825032070
           C         -1.688305141750     1.375020608472     1.124720389781    12.000000000000
           H         -0.206881141750     1.500656608472    -0.438797610219     1.007825032070
           H          0.267877858250     2.258605608472     1.046256389781     1.007825032070
           C         -2.572850141750     0.301419608472     0.484352389781    12.000000000000
           H         -2.120619141750     2.350937608472     0.916359389781     1.007825032070
           H         -1.709058141750     1.261251608472     2.207603389781     1.007825032070
           C         -2.167830141750    -0.022294391528    -0.955150610219    12.000000000000
           H         -2.524657141750    -0.606211391528     1.084104389781     1.007825032070
           H         -3.613154141750     0.618686608472     0.493415389781     1.007825032070
           C         -3.048161141750    -1.090150391528    -1.606943610219    12.000000000000
           H         -1.130938141750    -0.353701391528    -0.971257610219     1.007825032070
           H         -2.205468141750     0.887039608472    -1.552974610219     1.007825032070
           C         -2.634685141750    -1.410350391528    -3.042983610219    12.000000000000
           H         -3.012496141750    -1.999193391528    -1.010276610219     1.007825032070
           H         -4.084428141750    -0.758782391528    -1.595705610219     1.007825032070
           H         -3.276981141750    -2.170076391528    -3.477586610219     1.007825032070
           H         -1.613219141750    -1.777926391528    -3.084109610219     1.007825032070
           H         -2.692853141750    -0.527772391528    -3.673811610219     1.007825032070
           C          4.038706858250    -0.953571391528     0.686534389781    12.000000000000
           H          4.192605858250    -0.878429391528    -0.380317610219     1.007825032070
           H          4.378799858250    -1.911991391528     1.046777389781     1.007825032070
           H          4.575643858250    -0.156127391528     1.179807389781     1.007825032070

  Charge       = 0
  Multiplicity = 1
  Basis Set: 6-31G*
  Basis Set:

    Orbital Energies (a.u.)
    -----------------------

    Doubly Occupied:

       1A    -20.603642     2A    -20.545488     3A    -11.372248
       4A    -11.280865     5A    -11.234767     6A    -11.217784
       7A    -11.216871     8A    -11.215624     9A    -11.215336
      10A    -11.213883    11A    -11.208812    12A     -1.469330
      13A     -1.362763    14A     -1.102215    15A     -1.063184
      16A     -1.019575    17A     -0.974955    18A     -0.929856
      19A     -0.867891    20A     -0.810164    21A     -0.778175
      22A     -0.757619    23A     -0.702334    24A     -0.683407
      25A     -0.671996    26A     -0.649347    27A     -0.635939
      28A     -0.604041    29A     -0.594801    30A     -0.580150
      31A     -0.564729    32A     -0.552948    33A     -0.539547
      34A     -0.526133    35A     -0.523092    36A     -0.507887
      37A     -0.492460    38A     -0.479673    39A     -0.472544
      40A     -0.458451    41A     -0.456575    42A     -0.450931
      43A     -0.441832    44A     -0.435848

  @DF-RHF Final Energy:  -501.03588083764191

   => Energetics <=

    Nuclear Repulsion Energy =            635.6999425886148174
    One-Electron Energy =               -1942.5002658189746398
    Two-Electron Energy =                 805.7644423927142725
    DFT Exchange-Correlation Energy =       0.0000000000000000
    Empirical Dispersion Energy =           0.0000000000000000
    PCM Polarization Energy =               0.0000000000000000
    EFP Energy =                            0.0000000000000000
    Total Energy =                       -501.0358808376456636

  Mulliken Charges: (a.u.)
   Center  Symbol    Alpha    Beta     Spin     Total
       1     O     4.28554  4.28554  0.00000 -0.57107
       2     C     2.60543  2.60543  0.00000  0.78914
       3     C     3.20964  3.20964  0.00000 -0.41927
       4     O     4.30743  4.30743  0.00000 -0.61487
       5     C     3.16267  3.16267  0.00000 -0.32535
       6     H     0.39910  0.39910  0.00000  0.20180
       7     H     0.40026  0.40026  0.00000  0.19948
       8     C     3.15683  3.15683  0.00000 -0.31366
       9     H     0.40814  0.40814  0.00000  0.18372
      10     H     0.40752  0.40752  0.00000  0.18496
      11     C     3.15586  3.15586  0.00000 -0.31172
      12     H     0.41777  0.41777  0.00000  0.16446
      13     H     0.42166  0.42166  0.00000  0.15667
      14     C     3.15762  3.15762  0.00000 -0.31524
      15     H     0.42367  0.42367  0.00000  0.15266
      16     H     0.41868  0.41868  0.00000  0.16263
      17     C     3.14995  3.14995  0.00000 -0.29991
      18     H     0.42307  0.42307  0.00000  0.15385
      19     H     0.42152  0.42152  0.00000  0.15697
      20     C     3.23920  3.23920  0.00000 -0.47840
      21     H     0.42381  0.42381  0.00000  0.15238
      22     H     0.42299  0.42299  0.00000  0.15402
      23     H     0.41927  0.41927  0.00000  0.16147
      24     H     0.42211  0.42211  0.00000  0.15579
      25     H     0.42121  0.42121  0.00000  0.15759
      26     C     3.09241  3.09241  0.00000 -0.18482
      27     H     0.40911  0.40911  0.00000  0.18179
      28     H     0.40848  0.40848  0.00000  0.18303
      29     H     0.40905  0.40905  0.00000  0.18189

   Total alpha = 44.00000, Total beta = 44.00000, Total charge =  0.00000
