                              Psi4 1.0.54 Driver

  ==> Input File <==

--------------------------------------------------------------------------
set {
	reference rhf
	basis cc-pvtz
}

set_num_threads( 4 )
memory 2 gb

molecule MOL {
0 1

O	 -2.081319	 -0.951530	 -0.502732
N	 -1.613558	 0.006676	 0.014756
C	 -0.329345	 -0.171618	 0.743966
O	 -2.068523	 1.100482	 -0.024385
C	 0.835904	 0.041968	 -0.213982
H	 -0.346048	 -1.174374	 1.137184
H	 -0.333613	 0.555559	 1.538590
C	 2.126584	 -0.557997	 0.337699
H	 0.594593	 -0.411479	 -1.168295
H	 0.963403	 1.105205	 -0.381344
C	 3.311317	 -0.351518	 -0.599454
H	 1.984879	 -1.620428	 0.512618
H	 2.347683	 -0.112833	 1.303282
H	 3.132756	 -0.815433	 -1.563092
H	 3.496784	 0.703376	 -0.768319
H	 4.213163	 -0.784770	 -0.184570

	symmetry c1
}
set optking {
	frozen_dihedral = ("
		9 5 3 2
	")
}

ee,wfn = optimize('scf', return_wfn=True)
oeprop( wfn, 'DIPOLE', 'QUADRUPOLE', 'MULLIKEN_CHARGES')
f=open( 'psi4out.xyz', 'w' )
f.write( "16  " )
f.write( str(ee) + "\n" )
f.write( MOL.save_string_xyz() )
f.close()
--------------------------------------------------------------------------

    Molecular point group: c1
  Charge       = 0
  Multiplicity = 1
  Basis Set: CC-PVTZ
  Basis Set:
  @DF-RHF Final Energy:  -360.90833938899675
    Total Energy =                       -360.9083393889970921
    Molecular point group: c1
  Basis Set: CC-PVTZ
  Basis Set:
  Basis Set: CC-PVTZ
  Basis Set:
  @DF-RHF Final Energy:  -360.90818754925209
    Total Energy =                       -360.9081875492522045
  Basis Set: CC-PVTZ
  Basis Set:
  Basis Set: CC-PVTZ
  Basis Set:
  @DF-RHF Final Energy:  -360.90523143627593
    Total Energy =                       -360.9052314362759262
  Basis Set: CC-PVTZ
  Basis Set:
  Basis Set: CC-PVTZ
  Basis Set:
  @DF-RHF Final Energy:  -360.90812401034714
    Total Energy =                       -360.9081240103474784
  Basis Set: CC-PVTZ
  Basis Set:
  Basis Set: CC-PVTZ
  Basis Set:
  @DF-RHF Final Energy:  -360.90831094355411
    Total Energy =                       -360.9083109435543975
  Basis Set: CC-PVTZ
  Basis Set:
  Basis Set: CC-PVTZ
  Basis Set:
  @DF-RHF Final Energy:  -360.90846636682176
    Total Energy =                       -360.9084663668218695
  Basis Set: CC-PVTZ
  Basis Set:
  Basis Set: CC-PVTZ
  Basis Set:
  @DF-RHF Final Energy:  -360.90846782228903
    Total Energy =                       -360.9084678222891398
  Basis Set: CC-PVTZ
  Basis Set:
  Charge       = 0
  Multiplicity = 1
  Basis Set: CC-PVTZ
  Basis Set:

    Orbital Energies (a.u.)
    -----------------------

    Doubly Occupied:

       1A    -20.589750     2A    -20.589693     3A    -15.836267
       4A    -11.296262     5A    -11.250903     6A    -11.241754
       7A    -11.225788     8A     -1.635263     9A     -1.419558
      10A     -1.136139    11A     -1.060248    12A     -0.948700
      13A     -0.843804    14A     -0.829577    15A     -0.758408
      16A     -0.737740    17A     -0.728070    18A     -0.676343
      19A     -0.617526    20A     -0.607784    21A     -0.567617
      22A     -0.542922    23A     -0.516180    24A     -0.504461
      25A     -0.495854    26A     -0.485695    27A     -0.470363
      28A     -0.452448

  @DF-RHF Final Energy:  -360.90846841725175

   => Energetics <=

    Nuclear Repulsion Energy =            313.0923674754139370
    One-Electron Energy =               -1111.8714358168626859
    Two-Electron Energy =                 437.8705999241965401
    DFT Exchange-Correlation Energy =       0.0000000000000000
    Empirical Dispersion Energy =           0.0000000000000000
    PCM Polarization Energy =               0.0000000000000000
    EFP Energy =                            0.0000000000000000
    Total Energy =                       -360.9084684172521520
    Molecular point group: c1
  Basis Set: CC-PVTZ
  Basis Set:

  -Total Gradient:
     Atom            X                  Y                   Z
    ------   -----------------  -----------------  -----------------
       1        0.000057085362    -0.000068891372     0.000001211254
       2       -0.000219099810    -0.002156508541    -0.000447181770
       3       -0.000063014486     0.003761727155     0.000281230700
       4        0.000003788579    -0.000003860409     0.000003717996
       5        0.001324901785    -0.004250241370     0.001287087642
       6        0.000012257943    -0.000093317662     0.000043805786
       7        0.000000326530    -0.000021120377    -0.000019627179
       8        0.000027078524     0.000000083516     0.000013926976
       9       -0.001123538092     0.002811818377    -0.001104921725
      10        0.000009851561     0.000013811182    -0.000030097844
      11       -0.000025584392     0.000018415927    -0.000030845423
      12       -0.000009131490     0.000012394926     0.000007742190
      13       -0.000025144854    -0.000013012299    -0.000003235517
      14        0.000020289139     0.000008306477     0.000001349172
      15        0.000006299510    -0.000019126056    -0.000005942524
      16        0.000003634186    -0.000000479474     0.000001780267

  **** Optimization is complete! (in 8 steps) ****
    Final optimized geometry and variables:
    Molecular point group: c1

    Geometry (in Angstrom), charge = 0, multiplicity = 1:

    O           -2.130712845329    -0.750378868776    -0.443812359293
    N           -1.595965179721     0.205474024267     0.009163650247
    C           -0.342131552523    -0.015598436689     0.777539760159
    O           -1.960499116004     1.325542870565    -0.124534894633
    C            0.859395560078     0.091938679609    -0.158348293047
    H           -0.431005621302    -1.004235903387     1.196207445670
    H           -0.322377936103     0.730478070087     1.553866759705
    C            2.110969113757    -0.527995500290     0.454713646873
    H            0.618005171465    -0.385161685237    -1.101260054827
    H            1.034569052959     1.138130584927    -0.381222309883
    C            3.336289880858    -0.372495227544    -0.438877750809
    H            1.932441892867    -1.581547016594     0.646007016559
    H            2.306425704986    -0.067965462732     1.419409233083
    H            3.179746686057    -0.846307079063    -1.401565787711
    H            3.561373336941     0.673175256885    -0.616516234805
    H            4.207670114180    -0.826746290271     0.016672302399

  Mulliken Charges: (a.u.)
   Center  Symbol    Alpha    Beta     Spin     Total
       1     O     4.17262  4.17262  0.00000 -0.34523
       2     N     3.27761  3.27761  0.00000  0.44477
       3     C     3.03890  3.03890  0.00000 -0.07781
       4     O     4.17432  4.17432  0.00000 -0.34864
       5     C     3.10013  3.10013  0.00000 -0.20026
       6     H     0.43588  0.43588  0.00000  0.12824
       7     H     0.43274  0.43274  0.00000  0.13452
       8     C     3.09271  3.09271  0.00000 -0.18542
       9     H     0.43770  0.43770  0.00000  0.12460
      10     H     0.44008  0.44008  0.00000  0.11983
      11     C     3.14860  3.14860  0.00000 -0.29720
      12     H     0.44892  0.44892  0.00000  0.10217
      13     H     0.45116  0.45116  0.00000  0.09769
      14     H     0.45137  0.45137  0.00000  0.09727
      15     H     0.45207  0.45207  0.00000  0.09585
      16     H     0.44519  0.44519  0.00000  0.10962

   Total alpha = 28.00000, Total beta = 28.00000, Total charge =  0.00000

*** Psi4 exiting successfully. Buy a developer a beer!
