  ==> Input File <==

--------------------------------------------------------------------------
set {
	reference rhf
	basis 6-31G*
}

set_num_threads( 4 )
memory 2 gb

molecule MOL {
0 1

H	 -3.822588	 -2.247421	 0.494368
C	 -2.751556	 -2.150400	 0.510550
C	 -1.978942	 -3.119953	 1.131986
C	 -2.148273	 -1.056573	 -0.089887
H	 -2.448079	 -3.967766	 1.597272
C	 -0.601869	 -2.994511	 1.152383
H	 -2.748812	 -0.305999	 -0.571132
C	 -0.769973	 -0.928918	 -0.070704
H	 0.011763	 -3.735008	 1.628610
C	 0.007167	 -1.898926	 0.551308
H	 -0.298908	 -0.084115	 -0.534091
C	 1.493911	 -1.810744	 0.601039
O	 1.970282	 -0.730723	 0.000018
O	 2.191610	 -2.621957	 1.124497
C	 3.377318	 -0.566646	 -0.000065
H	 3.695437	 -0.028981	 -0.881264
H	 3.789299	 -1.563704	 0.000236
H	 3.695516	 -0.028316	 0.880770

	symmetry c1
}
set optking {
	frozen_dihedral = ("
		12 13 15 16
	")
}

ee = optimize('scf')
oeprop('DIPOLE', 'QUADRUPOLE', 'MULLIKEN_CHARGES')
f=open( 'psi4out.xyz', 'w' )
f.write( "18  " )
f.write( str(ee) + "\n" )
f.write( MOL.save_string_xyz() )
f.close()
--------------------------------------------------------------------------

    Molecular point group: c1
  Charge       = 0
  Multiplicity = 1
  Basis Set: 6-31G*
  Basis Set:
  @DF-RHF Final Energy:  -457.34765937220556
    Total Energy =                       -457.3476593722052712
    Molecular point group: c1
  Basis Set: 6-31G*
  Basis Set:
  Basis Set: 6-31G*
  Basis Set:
  @DF-RHF Final Energy:  -457.34891149831907
    Total Energy =                       -457.3489114983194668
  Basis Set: 6-31G*
  Basis Set:
  Basis Set: 6-31G*
  Basis Set:
  @DF-RHF Final Energy:  -457.34932769675800
    Total Energy =                       -457.3493276967578822
  Basis Set: 6-31G*
  Basis Set:
  Basis Set: 6-31G*
  Basis Set:
  @DF-RHF Final Energy:  -457.34921726716442
    Total Energy =                       -457.3492172671647040
  Basis Set: 6-31G*
  Basis Set:
  Basis Set: 6-31G*
  Basis Set:
  @DF-RHF Final Energy:  -457.34946053366792
    Total Energy =                       -457.3494605336679797
  Basis Set: 6-31G*
  Basis Set:
  Charge       = 0
  Multiplicity = 1
  Basis Set: 6-31G*
  Basis Set:

    Orbital Energies (a.u.)
    -----------------------

    Doubly Occupied:

       1A    -20.607126     2A    -20.543961     3A    -11.378694
       4A    -11.282207     5A    -11.245283     6A    -11.245044
       7A    -11.243833     8A    -11.241405     9A    -11.237204
      10A    -11.236439    11A     -1.471328    12A     -1.364207
      13A     -1.164969    14A     -1.047906    15A     -1.024523
      16A     -0.978839    17A     -0.859895    18A     -0.834022
      19A     -0.777374    20A     -0.739829    21A     -0.683589
      22A     -0.676421    23A     -0.671629    24A     -0.631081
      25A     -0.623687    26A     -0.597497    27A     -0.584643
      28A     -0.565009    29A     -0.525842    30A     -0.516355
      31A     -0.503648    32A     -0.498453    33A     -0.457634
      34A     -0.444301    35A     -0.344673    36A     -0.340701

  @DF-RHF Final Energy:  -457.34946238808226

   => Energetics <=

    Nuclear Repulsion Energy =            492.7587468250914640
    One-Electron Energy =               -1599.8379172808936346
    Two-Electron Energy =                 649.7297080677199119
    DFT Exchange-Correlation Energy =       0.0000000000000000
    Empirical Dispersion Energy =           0.0000000000000000
    PCM Polarization Energy =               0.0000000000000000
    EFP Energy =                            0.0000000000000000
    Total Energy =                       -457.3494623880822019
    Molecular point group: c1
  Basis Set: 6-31G*
  Basis Set:

  -Total Gradient:
     Atom            X                  Y                   Z
    ------   -----------------  -----------------  -----------------
       1       -0.000000653760     0.000000286059    -0.000000440773
       2       -0.000002539323    -0.000000894953     0.000001517960
       3       -0.000008019185     0.000002267623    -0.000003742130
       4       -0.000004025907    -0.000004081082     0.000001978809
       5       -0.000001497978    -0.000000221061    -0.000001147513
       6        0.000003930051     0.000001719333    -0.000000744688
       7       -0.000002875532     0.000000026605     0.000000784870
       8       -0.000010835639     0.000006028989    -0.000001603099
       9       -0.000001987276     0.000003060869    -0.000000557201
      10       -0.000028029451     0.000018266854     0.000009345695
      11       -0.000005499054    -0.000008926598     0.000003822361
      12        0.000095990052    -0.000785771288    -0.001354827180
      13        0.000022174467     0.000825263243     0.001698625803
      14        0.000047865533     0.000086240754    -0.000026344792
      15       -0.000221794422     0.001347375416     0.000536127656
      16        0.000094149747    -0.001456621220    -0.000840758936
      17        0.000048147728    -0.000050323735    -0.000000236458
      18       -0.000024500061     0.000016304189    -0.000021800381

  **** Optimization is complete! (in 6 steps) ****
    Final optimized geometry and variables:
    Molecular point group: c1

    Geometry (in Angstrom), charge = 0, multiplicity = 1:

    H           -4.029148729439    -0.465753373272    -0.017720590688
    C           -2.957831423972    -0.374151309055     0.006846606025
    C           -2.194804093125    -1.348346525321     0.632866645358
    C           -2.344479828711     0.717476589294    -0.587250375741
    H           -2.671640079047    -2.194471111033     1.093468044373
    C           -0.817385303997    -1.229689092492     0.664222114479
    H           -2.937556880682     1.471758315570    -1.071926432962
    C           -0.965720419066     0.838164871355    -0.557288013368
    H           -0.211394322753    -1.973874613532     1.144318279580
    C           -0.197998930385    -0.136527020963     0.069191571081
    H           -0.487290513374     1.681509238760    -1.015514589544
    C            1.289501189495    -0.057168689201     0.130754932374
    O            1.770750654258     1.026554632291    -0.460326340437
    O            1.974958399518    -0.877245763746     0.656318595778
    C            3.176809238938     1.199859806661    -0.500685795329
    H            3.387252123921     1.756801927219    -1.400950032737
    H            3.678598878272     0.246411116248    -0.527806189614
    H            3.500007283557     1.756182496021     0.368530923152

  Mulliken Charges: (a.u.)
   Center  Symbol    Alpha    Beta     Spin     Total
       1     H     0.39545  0.39545  0.00000  0.20911
       2     C     3.09000  3.09000  0.00000 -0.18001
       3     C     3.10707  3.10707  0.00000 -0.21413
       4     C     3.10712  3.10712  0.00000 -0.21424
       5     H     0.39544  0.39544  0.00000  0.20912
       6     C     3.08650  3.08650  0.00000 -0.17301
       7     H     0.39634  0.39634  0.00000  0.20731
       8     C     3.08704  3.08704  0.00000 -0.17409
       9     H     0.37596  0.37596  0.00000  0.24809
      10     C     3.07747  3.07747  0.00000 -0.15495
      11     H     0.38056  0.38056  0.00000  0.23888
      12     C     2.57956  2.57956  0.00000  0.84087
      13     O     4.31580  4.31580  0.00000 -0.63159
      14     O     4.29152  4.29152  0.00000 -0.58303
      15     C     3.09529  3.09529  0.00000 -0.19057
      16     H     0.40929  0.40929  0.00000  0.18143
      17     H     0.39808  0.39808  0.00000  0.20385
      18     H     0.41152  0.41152  0.00000  0.17696

   Total alpha = 36.00000, Total beta = 36.00000, Total charge =  0.00000
