                              Psi4 1.0.54 Driver

  ==> Input File <==

--------------------------------------------------------------------------
set {
	reference rhf
	basis cc-pvtz
}

set_num_threads( 4 )
memory 2 gb

molecule MOL {
0 1

H	 1.128311	 0.207724	 1.465118
C	 1.134565	 0.093781	 0.372499
C	 0.062554	 0.862911	 -0.350953
O	 1.948932	 -0.587720	 -0.146651
C	 -1.315255	 0.203214	 -0.236686
H	 0.361574	 0.981950	 -1.384350
H	 0.025273	 1.850248	 0.103857
C	 -1.409519	 -1.135334	 -0.963358
H	 -2.055919	 0.885238	 -0.637726
H	 -1.564227	 0.069157	 0.812356
H	 -1.201605	 -1.018274	 -2.021009
H	 -2.401666	 -1.558716	 -0.863185
H	 -0.701930	 -1.856601	 -0.569497

	symmetry c1
}
set optking {
	frozen_dihedral = ("
		6 3 2 4
	")
}

ee,wfn = optimize('scf', return_wfn=True)
oeprop( wfn, 'DIPOLE', 'QUADRUPOLE', 'MULLIKEN_CHARGES')
f=open( 'psi4out.xyz', 'w' )
f.write( "13  " )
f.write( str(ee) + "\n" )
f.write( MOL.save_string_xyz() )
f.close()
--------------------------------------------------------------------------

    Molecular point group: c1
  Charge       = 0
  Multiplicity = 1
  Basis Set: CC-PVTZ
  Basis Set:
  @DF-RHF Final Energy:  -231.06994066120322
    Total Energy =                       -231.0699406612034750
    Molecular point group: c1
  Basis Set: CC-PVTZ
  Basis Set:
  Basis Set: CC-PVTZ
  Basis Set:
  @DF-RHF Final Energy:  -231.06825491004255
    Total Energy =                       -231.0682549100425263
  Basis Set: CC-PVTZ
  Basis Set:
  Basis Set: CC-PVTZ
  Basis Set:
  @DF-RHF Final Energy:  -231.06997732683510
    Total Energy =                       -231.0699773268348167
  Basis Set: CC-PVTZ
  Basis Set:
  Basis Set: CC-PVTZ
  Basis Set:
  @DF-RHF Final Energy:  -231.07008236287209
    Total Energy =                       -231.0700823628723413
  Basis Set: CC-PVTZ
  Basis Set:
  Basis Set: CC-PVTZ
  Basis Set:
  @DF-RHF Final Energy:  -231.07008531017192
    Total Energy =                       -231.0700853101717769
  Basis Set: CC-PVTZ
  Basis Set:
  Charge       = 0
  Multiplicity = 1
  Basis Set: CC-PVTZ
  Basis Set:

    Orbital Energies (a.u.)
    -----------------------

    Doubly Occupied:

       1A    -20.552948     2A    -11.321905     3A    -11.237310
       4A    -11.234563     5A    -11.215470     6A     -1.407706
       7A     -1.085666     8A     -0.973347     9A     -0.846582
      10A     -0.787072    11A     -0.674564    12A     -0.652884
      13A     -0.619225    14A     -0.595404    15A     -0.560844
      16A     -0.534724    17A     -0.505322    18A     -0.493225
      19A     -0.482560    20A     -0.412478

  @DF-RHF Final Energy:  -231.07008629602402

   => Energetics <=

    Nuclear Repulsion Energy =            175.0282174231940360
    One-Electron Energy =                -659.8090105181006493
    Two-Electron Energy =                 253.7107067988826827
    DFT Exchange-Correlation Energy =       0.0000000000000000
    Empirical Dispersion Energy =           0.0000000000000000
    PCM Polarization Energy =               0.0000000000000000
    EFP Energy =                            0.0000000000000000
    Total Energy =                       -231.0700862960239022
    Molecular point group: c1
  Basis Set: CC-PVTZ
  Basis Set:

  -Total Gradient:
     Atom            X                  Y                   Z
    ------   -----------------  -----------------  -----------------
       1        0.000003121457     0.000053353176     0.000016386382
       2        0.001614798580     0.002220348825    -0.000013209559
       3       -0.001380266543    -0.002333432756    -0.000387357025
       4       -0.000955988572    -0.001375812679     0.000061918692
       5        0.000003903483    -0.000027360624     0.000001639385
       6        0.000759625803     0.001411827309     0.000296222216
       7       -0.000033225123     0.000024453126     0.000021795092
       8       -0.000013390023    -0.000024329859    -0.000012689552
       9       -0.000017778327     0.000015334070    -0.000004652636
      10        0.000015052629     0.000008270856     0.000030260389
      11        0.000008011257    -0.000000145210    -0.000020544232
      12       -0.000006975043     0.000034821101     0.000002986806
      13        0.000003110423    -0.000007327336     0.000007244040

  **** Optimization is complete! (in 6 steps) ****
    Final optimized geometry and variables:
    Molecular point group: c1

    Geometry (in Angstrom), charge = 0, multiplicity = 1:

    H            1.018118982701     0.338618694323     1.742043301470
    C            1.045528370959     0.237588512567     0.648960798475
    C           -0.020376710116     1.000880637413    -0.089714303219
    O            1.852656498222    -0.461087779099     0.140289992183
    C           -1.394732053010     0.327369820614     0.038105165408
    H            0.275420774606     1.098149431241    -1.126577783262
    H           -0.073925878119     1.996677668421     0.341123256295
    C           -1.500196300601    -1.002334411576    -0.702205955795
    H           -2.142051839086     1.013673261389    -0.343029335967
    H           -1.626600377113     0.182247530624     1.089858617617
    H           -1.317859309390    -0.870445597489    -1.762753907280
    H           -2.490691877300    -1.425411631140    -0.583983331625
    H           -0.782302785236    -1.725263946613    -0.334702670260

  Mulliken Charges: (a.u.)
   Center  Symbol    Alpha    Beta     Spin     Total
       1     H     0.46271  0.46271  0.00000  0.07458
       2     C     2.90676  2.90676  0.00000  0.18648
       3     C     3.08767  3.08767  0.00000 -0.17534
       4     O     4.16661  4.16661  0.00000 -0.33321
       5     C     3.10040  3.10040  0.00000 -0.20080
       6     H     0.44399  0.44399  0.00000  0.11202
       7     H     0.44423  0.44423  0.00000  0.11153
       8     C     3.14166  3.14166  0.00000 -0.28331
       9     H     0.44412  0.44412  0.00000  0.11176
      10     H     0.45198  0.45198  0.00000  0.09604
      11     H     0.45266  0.45266  0.00000  0.09467
      12     H     0.44844  0.44844  0.00000  0.10311
      13     H     0.44876  0.44876  0.00000  0.10247

   Total alpha = 20.00000, Total beta = 20.00000, Total charge =  0.00000

*** Psi4 exiting successfully. Buy a developer a beer!
