  ==> Input File <==

--------------------------------------------------------------------------
set {
	reference rhf
	basis 6-31G*
}

set_num_threads( 4 )
memory 2 gb

molecule MOL {
0 1

H	 3.477458	 -0.434328	 4.890259
C	 3.052248	 -1.173486	 4.218422
C	 1.770535	 -0.655506	 3.567205
H	 3.801915	 -1.409256	 3.468920
H	 2.864761	 -2.075412	 4.794771
C	 1.140492	 -1.677010	 2.617791
H	 1.988858	 0.257593	 3.022976
H	 1.052635	 -0.395389	 4.343511
C	 -0.154324	 -1.193408	 1.964455
H	 1.850705	 -1.938141	 1.841227
H	 0.924871	 -2.589145	 3.169660
C	 0.039520	 -0.104108	 0.919901
H	 -0.643207	 -2.024478	 1.458405
H	 -0.862711	 -0.848345	 2.714319
C	 -1.181045	 0.701995	 0.511084
O	 1.105199	 0.102806	 0.421986
C	 -2.285934	 -0.139295	 -0.145128
H	 -0.839153	 1.469809	 -0.172499
H	 -1.581193	 1.195888	 1.394620
C	 -3.651768	 0.085446	 0.506485
H	 -2.346596	 0.110469	 -1.202272
H	 -2.034737	 -1.195320	 -0.088721
C	 -4.759797	 -0.746382	 -0.137905
H	 -3.908762	 1.140117	 0.445781
H	 -3.588286	 -0.154158	 1.565709
H	 -4.868882	 -0.505166	 -1.191300
H	 -4.548009	 -1.809175	 -0.062213
H	 -5.715422	 -0.564821	 0.343442

	symmetry c1
}
set optking {
	frozen_dihedral = ("
		12 15 17 21
	")
}

ee = optimize('scf')
oeprop('DIPOLE', 'QUADRUPOLE', 'MULLIKEN_CHARGES')
f=open( 'psi4out.xyz', 'w' )
f.write( "28  " )
f.write( str(ee) + "\n" )
f.write( MOL.save_string_xyz() )
f.close()
--------------------------------------------------------------------------

    Molecular point group: c1
  Charge       = 0
  Multiplicity = 1
  Basis Set: 6-31G*
  Basis Set:
  @DF-RHF Final Energy:  -426.16337751747687
    Total Energy =                       -426.1633775174768743
    Molecular point group: c1
  Basis Set: 6-31G*
  Basis Set:
  Basis Set: 6-31G*
  Basis Set:
  @DF-RHF Final Energy:  -426.16271482759305
    Total Energy =                       -426.1627148275932768
  Basis Set: 6-31G*
  Basis Set:
  Basis Set: 6-31G*
  Basis Set:
  @DF-RHF Final Energy:  -426.16136394639227
    Total Energy =                       -426.1613639463923846
  Basis Set: 6-31G*
  Basis Set:
  Basis Set: 6-31G*
  Basis Set:
  @DF-RHF Final Energy:  -426.16383538341881
    Total Energy =                       -426.1638353834191548
  Basis Set: 6-31G*
  Basis Set:
  @DF-RHF Final Energy:  -426.16391608299796
    Total Energy =                       -426.1639160829984121
  @DF-RHF Final Energy:  -426.16403497895112
    Total Energy =                       -426.1640349789513493
  @DF-RHF Final Energy:  -426.16425705067263
    Total Energy =                       -426.1642570506727452
  @DF-RHF Final Energy:  -426.16436796974858
    Total Energy =                       -426.1643679697481275
  Basis Set: 6-31G*
  Basis Set:
  @DF-RHF Final Energy:  -426.16436857097767
    Total Energy =                       -426.1643685709773308
  Basis Set: 6-31G*
  Basis Set:
  Basis Set: 6-31G*
  Basis Set:
  @DF-RHF Final Energy:  -426.16439599523380
    Total Energy =                       -426.1643959952339173
  Basis Set: 6-31G*
  Basis Set:
  Basis Set: 6-31G*
  Basis Set:
  @DF-RHF Final Energy:  -426.16439839389670
    Total Energy =                       -426.1643983938968177
  Basis Set: 6-31G*
  Basis Set:
  Charge       = 0
  Multiplicity = 1
  Basis Set: 6-31G*
  Basis Set:

    Orbital Energies (a.u.)
    -----------------------

    Doubly Occupied:

       1A    -20.547579     2A    -11.322205     3A    -11.232235
       4A    -11.230916     5A    -11.228394     6A    -11.227057
       7A    -11.216509     8A    -11.216317     9A    -11.209730
      10A    -11.204305    11A     -1.392991    12A     -1.093205
      13A     -1.076499    14A     -1.022578    15A     -0.989978
      16A     -0.908896    17A     -0.871768    18A     -0.810534
      19A     -0.796531    20A     -0.725735    21A     -0.665846
      22A     -0.656028    23A     -0.623017    24A     -0.614273
      25A     -0.609865    26A     -0.590426    27A     -0.576802
      28A     -0.570749    29A     -0.545016    30A     -0.534630
      31A     -0.519674    32A     -0.510958    33A     -0.501780
      34A     -0.482160    35A     -0.477651    36A     -0.476237
      37A     -0.466329    38A     -0.462171    39A     -0.454812
      40A     -0.391669

  @DF-RHF Final Energy:  -426.16439874257935

   => Energetics <=

    Nuclear Repulsion Energy =            533.7722393535884748
    One-Electron Energy =               -1635.7651714290250311
    Two-Electron Energy =                 675.8285333328576598
    DFT Exchange-Correlation Energy =       0.0000000000000000
    Empirical Dispersion Energy =           0.0000000000000000
    PCM Polarization Energy =               0.0000000000000000
    EFP Energy =                            0.0000000000000000
    Total Energy =                       -426.1643987425788964
    Molecular point group: c1
  Basis Set: 6-31G*
  Basis Set:

  -Total Gradient:
     Atom            X                  Y                   Z
    ------   -----------------  -----------------  -----------------
       1        0.000002578586    -0.000000597210     0.000002212417
       2        0.000000045505     0.000000084276     0.000006268254
       3        0.000007357030     0.000002788313    -0.000014879124
       4       -0.000000644027     0.000002068843    -0.000000805244
       5       -0.000000253005    -0.000000614161    -0.000000797151
       6        0.000005747921     0.000003167233     0.000021238582
       7        0.000002035360    -0.000009998606     0.000003296440
       8       -0.000001568454     0.000001959850     0.000000076175
       9       -0.000047714756    -0.000034265274    -0.000028713849
      10       -0.000000637511     0.000003982105    -0.000003121280
      11        0.000009963779    -0.000005431670     0.000002788999
      12       -0.000573557622    -0.000294931255     0.000945497491
      13       -0.000002343990    -0.000000289473     0.000010957574
      14        0.000008734899     0.000008617505    -0.000001369802
      15        0.000482084343     0.000638814676    -0.001239580655
      16        0.000009747606     0.000004675259    -0.000005256855
      17        0.001297480144    -0.001277637150     0.000006324154
      18        0.000000576668    -0.000000248816    -0.000005805066
      19        0.000006706635    -0.000003482798     0.000013738759
      20       -0.000003976443     0.000005281767     0.000003061382
      21       -0.001210785642     0.000958287438     0.000275873067
      22        0.000009154231    -0.000002075379     0.000007587917
      23        0.000000144385     0.000000325018    -0.000000211559
      24       -0.000002054705     0.000002001517     0.000002289659
      25        0.000000489669    -0.000002560836    -0.000001793483
      26        0.000000386130    -0.000000269816     0.000000060312
      27       -0.000000119031     0.000000389059     0.000000536794
      28        0.000000422295    -0.000000040415     0.000000526089

  **** Optimization is complete! (in 12 steps) ****
    Final optimized geometry and variables:
    Molecular point group: c1

    Geometry (in Angstrom), charge = 0, multiplicity = 1:

    H            4.571277429726    -0.364636597279     2.860422003548
    C            3.814537186540    -1.003901356650     2.416302718869
    C            2.582785570264    -0.197903480342     2.006110443838
    H            4.261163905034    -1.496894177593     1.557801970258
    H            3.560786473439    -1.770482006459     3.143674044659
    C            1.489927693158    -1.072696787611     1.387294976888
    H            2.873146323095     0.570689883974     1.299029450261
    H            2.180154353506     0.311865183286     2.880100216082
    C            0.237189512230    -0.299309628562     0.975963160998
    H            1.887309136829    -1.591380808590     0.520976498556
    H            1.199940746276    -1.836338250135     2.105610394958
    C            0.386897830496     0.540587229954    -0.281694016440
    H           -0.594190394564    -0.982737622342     0.808711678023
    H           -0.090340742488     0.358610831840     1.779406621505
    C           -0.850084862113     1.284796349894    -0.752392233247
    O            1.407544739342     0.590608335238    -0.899463149409
    C           -1.764170725016     0.382674470430    -1.624724183996
    H           -0.518262709745     2.146991169246    -1.316105731523
    H           -1.404618169959     1.644982852884     0.109216698344
    C           -3.223019586756     0.373028696169    -1.161646600371
    H           -1.724201130692     0.729975829747    -2.651736154133
    H           -1.390018887598    -0.637964490677    -1.638869778317
    C           -4.120719289776    -0.488773534840    -2.047663913947
    H           -3.599917219834     1.393316975225    -1.146160310422
    H           -3.273573654233     0.013922939417    -0.135678059761
    H           -4.118797151528    -0.131135756937    -3.073245932072
    H           -3.786416856995    -1.522336361871    -2.058180946604
    H           -5.147104748282    -0.476717775489    -1.694954614896

  Mulliken Charges: (a.u.)
   Center  Symbol    Alpha    Beta     Spin     Total
       1     H     0.41941  0.41941  0.00000  0.16118
       2     C     3.24036  3.24036  0.00000 -0.48072
       3     C     3.15601  3.15601  0.00000 -0.31203
       4     H     0.41887  0.41887  0.00000  0.16227
       5     H     0.42429  0.42429  0.00000  0.15143
       6     C     3.14847  3.14847  0.00000 -0.29694
       7     H     0.40592  0.40592  0.00000  0.18817
       8     H     0.42834  0.42834  0.00000  0.14333
       9     C     3.21275  3.21275  0.00000 -0.42549
      10     H     0.40994  0.40994  0.00000  0.18013
      11     H     0.42225  0.42225  0.00000  0.15550
      12     C     2.73967  2.73967  0.00000  0.52067
      13     H     0.40661  0.40661  0.00000  0.18679
      14     H     0.40912  0.40912  0.00000  0.18177
      15     C     3.19989  3.19989  0.00000 -0.39978
      16     O     4.26550  4.26550  0.00000 -0.53099
      17     C     3.15965  3.15965  0.00000 -0.31930
      18     H     0.39851  0.39851  0.00000  0.20298
      19     H     0.41339  0.41339  0.00000  0.17323
      20     C     3.15501  3.15501  0.00000 -0.31002
      21     H     0.41011  0.41011  0.00000  0.17978
      22     H     0.41555  0.41555  0.00000  0.16891
      23     C     3.24098  3.24098  0.00000 -0.48196
      24     H     0.41971  0.41971  0.00000  0.16057
      25     H     0.42279  0.42279  0.00000  0.15442
      26     H     0.41938  0.41938  0.00000  0.16123
      27     H     0.42036  0.42036  0.00000  0.15928
      28     H     0.41718  0.41718  0.00000  0.16563

   Total alpha = 40.00000, Total beta = 40.00000, Total charge = -0.00000
