  ==> Input File <==

--------------------------------------------------------------------------
set {
	reference rhf
	basis 6-31G*
}

set_num_threads( 4 )
memory 2 gb

molecule MOL {
0 1

H	 -2.499100	 -0.730091	 -0.745082
O	 -2.347518	 -0.290803	 0.079804
C	 -1.184022	 0.487508	 -0.006784
C	 0.062599	 -0.378592	 0.031606
H	 -1.176523	 1.099369	 -0.904519
H	 -1.187323	 1.153111	 0.844927
O	 1.171513	 0.459272	 -0.058250
H	 0.050699	 -1.089204	 -0.797170
H	 0.078739	 -0.954914	 0.954740
C	 1.121387	 1.372699	 -1.108146
H	 0.266882	 2.040262	 -1.014281
H	 2.029211	 1.958912	 -1.074801
H	 1.061571	 0.868702	 -2.070539

	symmetry c1
}
set optking {
	frozen_dihedral = ("
		10 7 4 8
	")
}

ee = optimize('scf')
oeprop('DIPOLE', 'QUADRUPOLE', 'MULLIKEN_CHARGES')
f=open( 'psi4out.xyz', 'w' )
f.write( "13  " )
f.write( str(ee) + "\n" )
f.write( MOL.save_string_xyz() )
f.close()
--------------------------------------------------------------------------

    Molecular point group: c1
  Charge       = 0
  Multiplicity = 1
  Basis Set: 6-31G*
  Basis Set:
  @DF-RHF Final Energy:  -267.93512026128457
    Total Energy =                       -267.9351202612846237
    Molecular point group: c1
  Basis Set: 6-31G*
  Basis Set:
  Basis Set: 6-31G*
  Basis Set:
  @DF-RHF Final Energy:  -267.93644964519694
    Total Energy =                       -267.9364496451969444
  Basis Set: 6-31G*
  Basis Set:
  Basis Set: 6-31G*
  Basis Set:
  @DF-RHF Final Energy:  -267.94271010363082
    Total Energy =                       -267.9427101036308727
  Basis Set: 6-31G*
  Basis Set:
  Basis Set: 6-31G*
  Basis Set:
  @DF-RHF Final Energy:  -267.94500398326159
    Total Energy =                       -267.9450039832615857
  Basis Set: 6-31G*
  Basis Set:
  Basis Set: 6-31G*
  Basis Set:
  @DF-RHF Final Energy:  -267.94534427925458
    Total Energy =                       -267.9453442792545275
  Basis Set: 6-31G*
  Basis Set:
  Basis Set: 6-31G*
  Basis Set:
  @DF-RHF Final Energy:  -267.94541487065828
    Total Energy =                       -267.9454148706582828
  Basis Set: 6-31G*
  Basis Set:
  Basis Set: 6-31G*
  Basis Set:
  @DF-RHF Final Energy:  -267.94542338595829
    Total Energy =                       -267.9454233859585202
  Basis Set: 6-31G*
  Basis Set:
  Charge       = 0
  Multiplicity = 1
  Basis Set: 6-31G*
  Basis Set:

    Orbital Energies (a.u.)
    -----------------------

    Doubly Occupied:

       1A    -20.564728     2A    -20.561208     3A    -11.274590
       4A    -11.271442     5A    -11.271309     6A     -1.385810
       7A     -1.368832     8A     -1.013713     9A     -0.934957
      10A     -0.833009    11A     -0.711541    12A     -0.675067
      13A     -0.664061    14A     -0.635088    15A     -0.599645
      16A     -0.574797    17A     -0.534529    18A     -0.499534
      19A     -0.494505    20A     -0.446876    21A     -0.408837

  @DF-RHF Final Energy:  -267.94542427708836

   => Energetics <=

    Nuclear Repulsion Energy =            192.5590855191602486
    One-Electron Energy =                -747.5608616093843466
    Two-Electron Energy =                 287.0563518131357341
    DFT Exchange-Correlation Energy =       0.0000000000000000
    Empirical Dispersion Energy =           0.0000000000000000
    PCM Polarization Energy =               0.0000000000000000
    EFP Energy =                            0.0000000000000000
    Total Energy =                       -267.9454242770883639
    Molecular point group: c1
  Basis Set: 6-31G*
  Basis Set:

  -Total Gradient:
     Atom            X                  Y                   Z
    ------   -----------------  -----------------  -----------------
       1        0.000010343310     0.000018296657    -0.000000866599
       2       -0.000003394344     0.000004067319     0.000034792718
       3        0.000000306166    -0.000017685666    -0.000075690340
       4       -0.002850217854     0.004021563105    -0.001929076317
       5        0.000004288555     0.000011822889    -0.000000247982
       6       -0.000007118405    -0.000025791800     0.000002665605
       7        0.002531905398    -0.003699890220    -0.001916067703
       8        0.001739123470    -0.002405336544     0.002172964806
       9       -0.000005445534    -0.000011051835    -0.000001251619
      10       -0.001415126303     0.002116731325     0.001718340984
      11        0.000009601869    -0.000010440765    -0.000011326704
      12       -0.000005736141     0.000006961838     0.000002616046
      13       -0.000008530188    -0.000009246303     0.000003147103

  **** Optimization is complete! (in 8 steps) ****
    Final optimized geometry and variables:
    Molecular point group: c1

    Geometry (in Angstrom), charge = 0, multiplicity = 1:

    H           -2.243932199435    -1.264084238966    -0.360928552996
    O           -2.097491766368    -0.743199327240     0.416264580926
    C           -1.029011949969     0.139836647633     0.199324951792
    C            0.291059176333    -0.623280312872     0.185504546777
    H           -1.180373293884     0.704589497556    -0.716580715113
    H           -1.030948202994     0.841095483119     1.023174807871
    O            1.437006785415     0.174097810881     0.156133281932
    H            0.311283622524    -1.342389289051    -0.636322995971
    H            0.350551003579    -1.196680755817     1.100921719671
    C            1.537628710844     1.093204981533    -0.888137176368
    H            0.856972337242     1.930504991122    -0.766071602287
    H            2.550366331235     1.471901713364    -0.882168823669
    H            1.346851964790     0.626793119024    -1.853595005213

  Mulliken Charges: (a.u.)
   Center  Symbol    Alpha    Beta     Spin     Total
       1     H     0.28094  0.28094  0.00000  0.43813
       2     O     4.36931  4.36931  0.00000 -0.73861
       3     C     3.01362  3.01362  0.00000 -0.02725
       4     C     2.99973  2.99973  0.00000  0.00053
       5     H     0.42838  0.42838  0.00000  0.14323
       6     H     0.40820  0.40820  0.00000  0.18360
       7     O     4.30571  4.30571  0.00000 -0.61141
       8     H     0.43659  0.43659  0.00000  0.12682
       9     H     0.40587  0.40587  0.00000  0.18826
      10     C     3.08424  3.08424  0.00000 -0.16847
      11     H     0.42672  0.42672  0.00000  0.14656
      12     H     0.40944  0.40944  0.00000  0.18111
      13     H     0.43125  0.43125  0.00000  0.13750

   Total alpha = 21.00000, Total beta = 21.00000, Total charge =  0.00000
