                              Psi4 1.0.54 Driver

  ==> Input File <==

--------------------------------------------------------------------------
set {
	reference rhf
	basis cc-pvtz
}

set_num_threads( 4 )
memory 2 gb

molecule MOL {
0 1

H	 2.867672	 -0.456275	 0.875795
C	 2.403497	 -0.020426	 0.000000
N	 0.989899	 -0.304564	 0.000000
H	 2.867672	 -0.456275	 -0.875795
H	 2.620366	 1.051270	 0.000000
C	 0.695215	 -1.646646	 -0.457763
C	 0.229451	 0.670550	 -0.753948
H	 1.035333	 -1.801843	 -1.486343
H	 1.215423	 -2.360071	 0.170835
C	 -0.797311	 -1.905721	 -0.383684
H	 0.407912	 1.657327	 -0.342671
H	 0.534536	 0.689640	 -1.804806
C	 -1.251108	 0.351936	 -0.672259
H	 -1.036414	 -2.870399	 -0.808953
H	 -1.116389	 -1.898613	 0.656623
O	 -1.512140	 -0.949153	 -1.108350
H	 -1.818233	 1.019180	 -1.306122
H	 -1.593668	 0.475872	 0.353115

	symmetry c1
}
set optking {
	frozen_dihedral = ("
		6 3 2 5
	")
}

ee,wfn = optimize('scf', return_wfn=True)
oeprop( wfn, 'DIPOLE', 'QUADRUPOLE', 'MULLIKEN_CHARGES')
f=open( 'psi4out.xyz', 'w' )
f.write( "18  " )
f.write( str(ee) + "\n" )
f.write( MOL.save_string_xyz() )
f.close()
--------------------------------------------------------------------------

    Molecular point group: c1
  Charge       = 0
  Multiplicity = 1
  Basis Set: CC-PVTZ
  Basis Set:
  @DF-RHF Final Energy:  -325.14314709628962
    Total Energy =                       -325.1431470962901358
    Molecular point group: c1
  Basis Set: CC-PVTZ
  Basis Set:
  Basis Set: CC-PVTZ
  Basis Set:
  @DF-RHF Final Energy:  -325.14382945890821
    Total Energy =                       -325.1438294589083853
  Basis Set: CC-PVTZ
  Basis Set:
  Basis Set: CC-PVTZ
  Basis Set:
  @DF-RHF Final Energy:  -325.14392215400790
    Total Energy =                       -325.1439221540077824
  Basis Set: CC-PVTZ
  Basis Set:
  Charge       = 0
  Multiplicity = 1
  Basis Set: CC-PVTZ
  Basis Set:

    Orbital Energies (a.u.)
    -----------------------

    Doubly Occupied:

       1A    -20.547464     2A    -15.544706     3A    -11.264231
       4A    -11.264200     5A    -11.242685     6A    -11.242446
       7A    -11.239166     8A     -1.386485     9A     -1.233373
      10A     -1.038857    11A     -0.981800    12A     -0.883614
      13A     -0.869869    14A     -0.775342    15A     -0.685052
      16A     -0.646068    17A     -0.644907    18A     -0.634523
      19A     -0.630661    20A     -0.574035    21A     -0.557851
      22A     -0.542199    23A     -0.527031    24A     -0.501179
      25A     -0.484163    26A     -0.453781    27A     -0.410480
      28A     -0.356461

  @DF-RHF Final Energy:  -325.14392423470809

   => Energetics <=

    Nuclear Repulsion Energy =            341.8983786131621514
    One-Electron Energy =               -1119.7593433264585201
    Two-Electron Energy =                 452.7170404785887285
    DFT Exchange-Correlation Energy =       0.0000000000000000
    Empirical Dispersion Energy =           0.0000000000000000
    PCM Polarization Energy =               0.0000000000000000
    EFP Energy =                            0.0000000000000000
    Total Energy =                       -325.1439242347076970
    Molecular point group: c1
  Basis Set: CC-PVTZ
  Basis Set:

  -Total Gradient:
     Atom            X                  Y                   Z
    ------   -----------------  -----------------  -----------------
       1        0.000001084762    -0.000012361460     0.000012550292
       2       -0.000162960704     0.000394054849     0.004428370191
       3        0.000340465295    -0.001572271849     0.003114902588
       4       -0.000002658611    -0.000015346922    -0.000036246260
       5        0.000009176258    -0.000056341235    -0.004415917349
       6       -0.000089043276     0.001142611165    -0.003178585079
       7       -0.000007021746    -0.000100818648     0.000140451264
       8        0.000027834189     0.000001300643    -0.000021359948
       9        0.000022955602    -0.000000315276     0.000004405337
      10       -0.000011785256     0.000156541279     0.000104209280
      11       -0.000019661502    -0.000005447998    -0.000020246104
      12       -0.000037890107     0.000004094397     0.000001361605
      13       -0.000055214632     0.000108473456    -0.000112340735
      14        0.000047640333     0.000036186484    -0.000003703616
      15       -0.000032333947    -0.000033890315     0.000035090517
      16       -0.000005222665    -0.000016813118    -0.000021343401
      17       -0.000062317259    -0.000004111962    -0.000009349837
      18        0.000036953267    -0.000025543492    -0.000022248749

  **** Optimization is complete! (in 4 steps) ****
    Final optimized geometry and variables:
    Molecular point group: c1

    Geometry (in Angstrom), charge = 0, multiplicity = 1:

    H            2.760571825157     0.120417319056     1.391085093562
    C            2.287486699140     0.548453164711     0.515976568921
    N            0.870387249244     0.259349872805     0.506335976003
    H            2.794666286662     0.156753221607    -0.369084144477
    H            2.448498640043     1.618338658254     0.512998640865
    C            0.596097069499    -1.088219456656     0.049798074629
    C            0.110269436898     1.210829058717    -0.281499859609
    H            0.947741714860    -1.237086308073    -0.975336931254
    H            1.122542761231    -1.794832354582     0.682102768090
    C           -0.892563758817    -1.369932294500     0.111761421966
    H            0.267986912075     2.207752164808     0.112436281680
    H            0.428290465829     1.212818455546    -1.328682968733
    C           -1.368132615694     0.877651491028    -0.213372341436
    H           -1.111259099725    -2.342614437802    -0.306391525311
    H           -1.223226635172    -1.357905479637     1.148443502969
    O           -1.613158648102    -0.432286472944    -0.631364791814
    H           -1.934059436732     1.530061597767    -0.863767472953
    H           -1.722793143869     1.014773007680     0.806257426777

  Mulliken Charges: (a.u.)
   Center  Symbol    Alpha    Beta     Spin     Total
       1     H     0.44866  0.44866  0.00000  0.10268
       2     C     3.09421  3.09421  0.00000 -0.18841
       3     N     3.61813  3.61813  0.00000 -0.23626
       4     H     0.46854  0.46854  0.00000  0.06293
       5     H     0.45369  0.45369  0.00000  0.09263
       6     C     3.04220  3.04220  0.00000 -0.08440
       7     C     3.03994  3.03994  0.00000 -0.07988
       8     H     0.46779  0.46779  0.00000  0.06442
       9     H     0.45413  0.45413  0.00000  0.09174
      10     C     2.98362  2.98362  0.00000  0.03277
      11     H     0.45392  0.45392  0.00000  0.09215
      12     H     0.46955  0.46955  0.00000  0.06090
      13     C     2.98427  2.98427  0.00000  0.03145
      14     H     0.44994  0.44994  0.00000  0.10011
      15     H     0.46749  0.46749  0.00000  0.06502
      16     O     4.18648  4.18648  0.00000 -0.37295
      17     H     0.44978  0.44978  0.00000  0.10045
      18     H     0.46767  0.46767  0.00000  0.06465

   Total alpha = 28.00000, Total beta = 28.00000, Total charge =  0.00000

*** Psi4 exiting successfully. Buy a developer a beer!
