  ==> Input File <==

--------------------------------------------------------------------------
set {
	reference rhf
	basis 6-31G*
}

set_num_threads( 4 )
memory 2 gb

molecule MOL {
0 1

H	 -3.420663	 1.227371	 -1.044276
O	 -3.452007	 0.283848	 -0.965577
C	 -3.181085	 -0.079926	 0.364119
C	 -1.765924	 0.277073	 0.805136
H	 -3.327791	 -1.152017	 0.410903
H	 -3.905698	 0.375695	 1.036898
C	 -0.677594	 -0.417312	 -0.014550
H	 -1.637766	 1.358238	 0.744969
H	 -1.659588	 0.017670	 1.857098
C	 0.738335	 -0.034840	 0.421385
H	 -0.814977	 -0.178223	 -1.064632
H	 -0.802730	 -1.495410	 0.071702
C	 1.822265	 -0.738362	 -0.399735
H	 0.853533	 1.043532	 0.342250
H	 0.871597	 -0.279636	 1.474438
C	 2.726636	 -1.679586	 0.404233
H	 2.436742	 0.008961	 -0.899355
H	 1.342486	 -1.312516	 -1.189657
C	 3.610640	 -0.981624	 1.439506
H	 3.364876	 -2.220293	 -0.290444
H	 2.114303	 -2.430432	 0.899694
H	 4.225793	 -0.215927	 0.974281
H	 4.276439	 -1.692228	 1.919706
H	 3.025294	 -0.506790	 2.219933

	symmetry c1
}
set optking {
	frozen_dihedral = ("
		17 13 10 7
	")
}

ee = optimize('scf')
oeprop('DIPOLE', 'QUADRUPOLE', 'MULLIKEN_CHARGES')
f=open( 'psi4out.xyz', 'w' )
f.write( "24  " )
f.write( str(ee) + "\n" )
f.write( MOL.save_string_xyz() )
f.close()
--------------------------------------------------------------------------

    Molecular point group: c1
  Charge       = 0
  Multiplicity = 1
  Basis Set: 6-31G*
  Basis Set:
  @DF-RHF Final Energy:  -349.24214182848738
    Total Energy =                       -349.2421418284872630
    Molecular point group: c1
  Basis Set: 6-31G*
  Basis Set:
  Basis Set: 6-31G*
  Basis Set:
  @DF-RHF Final Energy:  -349.24227820458060
    Total Energy =                       -349.2422782045799750
  Basis Set: 6-31G*
  Basis Set:
  Basis Set: 6-31G*
  Basis Set:
  @DF-RHF Final Energy:  -349.24254022913823
    Total Energy =                       -349.2425402291379442
  Basis Set: 6-31G*
  Basis Set:
  Basis Set: 6-31G*
  Basis Set:
  @DF-RHF Final Energy:  -349.24257712729371
    Total Energy =                       -349.2425771272933162
  Basis Set: 6-31G*
  Basis Set:
  Basis Set: 6-31G*
  Basis Set:
  @DF-RHF Final Energy:  -349.24254494700131
    Total Energy =                       -349.2425449470009653
  Basis Set: 6-31G*
  Basis Set:
  Basis Set: 6-31G*
  Basis Set:
  @DF-RHF Final Energy:  -349.24258823111393
    Total Energy =                       -349.2425882311139276
  Basis Set: 6-31G*
  Basis Set:
  Basis Set: 6-31G*
  Basis Set:
  @DF-RHF Final Energy:  -349.24258986249379
    Total Energy =                       -349.2425898624935030
  Basis Set: 6-31G*
  Basis Set:
  Charge       = 0
  Multiplicity = 1
  Basis Set: 6-31G*
  Basis Set:

    Orbital Energies (a.u.)
    -----------------------

    Doubly Occupied:

       1A    -20.553588     2A    -11.267787     3A    -11.217308
       4A    -11.214170     5A    -11.212471     6A    -11.211503
       7A    -11.211182     8A    -11.207234     9A     -1.360201
      10A     -1.087181    11A     -1.048026    12A     -0.984249
      13A     -0.914295    14A     -0.850729    15A     -0.803495
      16A     -0.774683    17A     -0.679898    18A     -0.650494
      19A     -0.625960    20A     -0.616780    21A     -0.599780
      22A     -0.585080    23A     -0.553184    24A     -0.544178
      25A     -0.517723    26A     -0.504565    27A     -0.498749
      28A     -0.476503    29A     -0.467496    30A     -0.459036
      31A     -0.452304    32A     -0.447940    33A     -0.419287

  @DF-RHF Final Energy:  -349.24259021702915

   => Energetics <=

    Nuclear Repulsion Energy =            385.0233772364894094
    One-Electron Energy =               -1236.4978155069777586
    Two-Electron Energy =                 502.2318480534596006
    DFT Exchange-Correlation Energy =       0.0000000000000000
    Empirical Dispersion Energy =           0.0000000000000000
    PCM Polarization Energy =               0.0000000000000000
    EFP Energy =                            0.0000000000000000
    Total Energy =                       -349.2425902170287486
    Molecular point group: c1
  Basis Set: 6-31G*
  Basis Set:

  -Total Gradient:
     Atom            X                  Y                   Z
    ------   -----------------  -----------------  -----------------
       1        0.000000030085    -0.000001717522     0.000002387573
       2        0.000003234897    -0.000002692224     0.000000168626
       3       -0.000003424768     0.000006648758     0.000003697360
       4       -0.000006316267    -0.000004402250    -0.000004054316
       5        0.000000938432     0.000002370046    -0.000003903281
       6       -0.000002036243    -0.000001380367     0.000002169657
       7        0.000000907088    -0.000071631819     0.000069352145
       8       -0.000000595640    -0.000003904130    -0.000001661851
       9       -0.000002310505     0.000004729070     0.000004324683
      10        0.000032250213     0.000143967355    -0.000056736246
      11        0.000005201017    -0.000008259905    -0.000004044040
      12       -0.000003979386    -0.000000098138     0.000008269370
      13       -0.000114099612    -0.000039811437    -0.000126617917
      14       -0.000010283807     0.000002648453    -0.000003488905
      15       -0.000002484691    -0.000020174557    -0.000006451555
      16        0.000010969410     0.000004158166    -0.000007598012
      17        0.000090905706    -0.000002983964     0.000121720483
      18        0.000007359135     0.000000398459    -0.000004372775
      19       -0.000001115876     0.000002045364     0.000001276777
      20       -0.000000556669    -0.000013316537     0.000009281352
      21       -0.000004509679     0.000003737543    -0.000003152663
      22       -0.000004183851     0.000007267852    -0.000001565561
      23        0.000005425010    -0.000000750213    -0.000007077728
      24       -0.000001324002    -0.000006848004     0.000008076825

  **** Optimization is complete! (in 8 steps) ****
    Final optimized geometry and variables:
    Molecular point group: c1

    Geometry (in Angstrom), charge = 0, multiplicity = 1:

    H           -3.341697739500     1.663147506771    -1.270548485973
    O           -3.375732207467     0.717930788819    -1.218080845407
    C           -3.117863212671     0.317235609119     0.103568223155
    C           -1.706299546709     0.659533587997     0.567501844888
    H           -3.266353793759    -0.755424447662     0.119211417960
    H           -3.848156919388     0.755089303237     0.781889431661
    C           -0.611436373977    -0.011526955117    -0.261851377548
    H           -1.576362985833     1.741864815945     0.539791136260
    H           -1.609791835398     0.369919938592     1.612599476771
    C            0.802088514561     0.358307402446     0.195453228380
    H           -0.739507165143     0.255120756733    -1.306360248782
    H           -0.734598663886    -1.092246026503    -0.205930437776
    C            1.909571763775    -0.338671157295    -0.628669753331
    H            0.918729012475     1.437841666826     0.142079448515
    H            0.906128705751     0.101890662433     1.247128927010
    C            2.803925813414    -1.284809700525     0.181538949922
    H            2.538580301045     0.405035517400    -1.111760937492
    H            1.450015482965    -0.905564848941    -1.434082114443
    C            3.730493714425    -0.569037093423     1.165559869226
    H            3.410078990867    -1.870392380381    -0.505423978560
    H            2.180198141145    -1.996509871907     0.719243010479
    H            4.397815204613     0.111163955188     0.643303084746
    H            4.344013019027    -1.279832394384     1.710805912033
    H            3.175489512247     0.011469999171     1.895944557709

  Mulliken Charges: (a.u.)
   Center  Symbol    Alpha    Beta     Spin     Total
       1     H     0.28337  0.28337  0.00000  0.43326
       2     O     4.36828  4.36828  0.00000 -0.73655
       3     C     2.99605  2.99605  0.00000  0.00790
       4     C     3.16974  3.16974  0.00000 -0.33948
       5     H     0.41636  0.41636  0.00000  0.16727
       6     H     0.42819  0.42819  0.00000  0.14362
       7     C     3.15410  3.15410  0.00000 -0.30819
       8     H     0.42821  0.42821  0.00000  0.14359
       9     H     0.42240  0.42240  0.00000  0.15520
      10     C     3.15516  3.15516  0.00000 -0.31032
      11     H     0.41156  0.41156  0.00000  0.17689
      12     H     0.42355  0.42355  0.00000  0.15290
      13     C     3.15696  3.15696  0.00000 -0.31393
      14     H     0.42215  0.42215  0.00000  0.15571
      15     H     0.42238  0.42238  0.00000  0.15525
      16     C     3.15366  3.15366  0.00000 -0.30733
      17     H     0.42179  0.42179  0.00000  0.15642
      18     H     0.41773  0.41773  0.00000  0.16455
      19     C     3.24022  3.24022  0.00000 -0.48044
      20     H     0.42162  0.42162  0.00000  0.15677
      21     H     0.42394  0.42394  0.00000  0.15211
      22     H     0.42226  0.42226  0.00000  0.15549
      23     H     0.41974  0.41974  0.00000  0.16053
      24     H     0.42061  0.42061  0.00000  0.15879

   Total alpha = 33.00000, Total beta = 33.00000, Total charge =  0.00000
