                              Psi4 1.0.54 Driver

  ==> Input File <==

--------------------------------------------------------------------------
set {
	reference rhf
	basis cc-pvtz
}

set_num_threads( 4 )
memory 2 gb

molecule MOL {
0 1

H	 1.038367	 -3.077683	 -1.279976
O	 1.209673	 -2.444661	 -0.599070
C	 0.413426	 -1.396322	 -0.789880
C	 0.626018	 -0.337582	 0.258241
O	 -0.353608	 -1.345459	 -1.688163
C	 -0.267326	 0.883135	 0.076490
H	 0.474519	 -0.814726	 1.219095
H	 1.676006	 -0.064011	 0.224801
C	 -1.726822	 0.642622	 0.463839
H	 -0.210803	 1.217591	 -0.953497
H	 0.129920	 1.693110	 0.675679
C	 -2.480891	 -0.340606	 -0.429852
H	 -2.243098	 1.597649	 0.438609
H	 -1.776542	 0.301208	 1.495542
C	 -3.955933	 -0.460128	 -0.060472
H	 -2.393755	 -0.020485	 -1.464726
H	 -2.024244	 -1.323637	 -0.374360
H	 -4.467673	 -1.160944	 -0.709827
H	 -4.458917	 0.497287	 -0.144505
H	 -4.076458	 -0.806900	 0.960497

	symmetry c1
}
set optking {
	frozen_dihedral = ("
		7 4 6 10
	")
}

ee,wfn = optimize('scf', return_wfn=True)
oeprop( wfn, 'DIPOLE', 'QUADRUPOLE', 'MULLIKEN_CHARGES')
f=open( 'psi4out.xyz', 'w' )
f.write( "20  " )
f.write( str(ee) + "\n" )
f.write( MOL.save_string_xyz() )
f.close()
--------------------------------------------------------------------------

    Molecular point group: c1
  Charge       = 0
  Multiplicity = 1
  Basis Set: CC-PVTZ
  Basis Set:
  @DF-RHF Final Energy:  -384.08186996326083
    Total Energy =                       -384.0818699632612834
    Molecular point group: c1
  Basis Set: CC-PVTZ
  Basis Set:
  Basis Set: CC-PVTZ
  Basis Set:
  @DF-RHF Final Energy:  -384.08795600538468
    Total Energy =                       -384.0879560053842852
  Basis Set: CC-PVTZ
  Basis Set:
  Basis Set: CC-PVTZ
  Basis Set:
  @DF-RHF Final Energy:  -384.08995001767113
    Total Energy =                       -384.0899500176710717
  Basis Set: CC-PVTZ
  Basis Set:
  Basis Set: CC-PVTZ
  Basis Set:
  @DF-RHF Final Energy:  -384.08826991566150
    Total Energy =                       -384.0882699156616127
  Basis Set: CC-PVTZ
  Basis Set:
  @DF-RHF Final Energy:  -384.09172160013094
    Total Energy =                       -384.0917216001309953
  @DF-RHF Final Energy:  -384.09211637342423
    Total Energy =                       -384.0921163734240054
  @DF-RHF Final Energy:  -384.09232694490811
    Total Energy =                       -384.0923269449084501
  @DF-RHF Final Energy:  -384.09244605535122
    Total Energy =                       -384.0924460553511608
  Basis Set: CC-PVTZ
  Basis Set:
  @DF-RHF Final Energy:  -384.09251634250336
    Total Energy =                       -384.0925163425033588
  Basis Set: CC-PVTZ
  Basis Set:
  Basis Set: CC-PVTZ
  Basis Set:
  @DF-RHF Final Energy:  -384.09253239021609
    Total Energy =                       -384.0925323902160926
  Basis Set: CC-PVTZ
  Basis Set:
  Basis Set: CC-PVTZ
  Basis Set:
  @DF-RHF Final Energy:  -384.09253548507235
    Total Energy =                       -384.0925354850717213
  Basis Set: CC-PVTZ
  Basis Set:
  Charge       = 0
  Multiplicity = 1
  Basis Set: CC-PVTZ
  Basis Set:

    Orbital Energies (a.u.)
    -----------------------

    Doubly Occupied:

       1A    -20.605844     2A    -20.538581     3A    -11.373923
       4A    -11.238959     5A    -11.223430     6A    -11.216667
       7A    -11.212520     8A    -11.206504     9A     -1.478284
      10A     -1.368770    11A     -1.095046    12A     -1.039211
      13A     -0.960172    14A     -0.873353    15A     -0.815314
      16A     -0.775592    17A     -0.705381    18A     -0.693840
      19A     -0.664498    20A     -0.629684    21A     -0.602935
      22A     -0.596618    23A     -0.576159    24A     -0.553299
      25A     -0.540489    26A     -0.515380    27A     -0.496408
      28A     -0.487369    29A     -0.465674    30A     -0.460894
      31A     -0.458687    32A     -0.442611

  @DF-RHF Final Energy:  -384.09253604980034

   => Energetics <=

    Nuclear Repulsion Energy =            391.2192442979397242
    One-Electron Energy =               -1298.7993657176989473
    Two-Electron Energy =                 523.4875853699588788
    DFT Exchange-Correlation Energy =       0.0000000000000000
    Empirical Dispersion Energy =           0.0000000000000000
    PCM Polarization Energy =               0.0000000000000000
    EFP Energy =                            0.0000000000000000
    Total Energy =                       -384.0925360498004011
    Molecular point group: c1
  Basis Set: CC-PVTZ
  Basis Set:

  -Total Gradient:
     Atom            X                  Y                   Z
    ------   -----------------  -----------------  -----------------
       1       -0.000002630203    -0.000004049523    -0.000012701711
       2        0.000027416831    -0.000049206898     0.000054836005
       3       -0.000044761790     0.000059844903     0.000002572833
       4       -0.001108633789    -0.000819121584    -0.000746145236
       5        0.000024928714     0.000037439680    -0.000007428224
       6       -0.001161166414    -0.000778687916    -0.000272261450
       7        0.001115486373     0.000789445483     0.000618410787
       8       -0.000007691596    -0.000009727581     0.000013355400
       9        0.000005609943    -0.000028528870    -0.000069325454
      10        0.001199807497     0.000802068216     0.000355487160
      11        0.000001996107     0.000009339342     0.000003587298
      12       -0.000012289647    -0.000041432694     0.000054483623
      13        0.000002348947     0.000016621510    -0.000003267280
      14        0.000000126064    -0.000026260146     0.000004548345
      15        0.000000769984     0.000014554999    -0.000002925309
      16       -0.000002001835     0.000002285442     0.000000117685
      17       -0.000020366534     0.000016959164     0.000004687901
      18       -0.000008648436    -0.000006225507    -0.000006203744
      19       -0.000012922657     0.000019562972    -0.000000418039
      20        0.000002622441    -0.000004880990     0.000008589410

  **** Optimization is complete! (in 12 steps) ****
    Final optimized geometry and variables:
    Molecular point group: c1

    Geometry (in Angstrom), charge = 0, multiplicity = 1:

    H            1.385531850916    -2.665288434866    -0.814369199496
    O            1.439526290195    -2.083689756712    -0.070627182759
    C            1.258760293899    -0.838682569981    -0.499313900168
    C            1.412570528599     0.175172925818     0.603948743778
    O            1.052275074452    -0.590215890005    -1.637188321573
    C            0.599523712172     1.457253067128     0.422262994041
    H            1.217397555529    -0.293386451946     1.559525592686
    H            2.471806465706     0.418354388564     0.600086989217
    C           -0.872022932325     1.369429017044     0.833442468946
    H            0.691711831729     1.789383593949    -0.604505463999
    H            1.065828272926     2.222912491427     1.033085748761
    C           -1.739492573407     0.395401342466     0.038889425458
    H           -1.298527022820     2.364594825131     0.744126485151
    H           -0.927899456818     1.113359221690     1.889481050339
    C           -3.209431658388     0.468549035213     0.440209852111
    H           -1.639058734265     0.600946693557    -1.021238211495
    H           -1.389292584168    -0.621700607119     0.185735929591
    H           -3.805500440770    -0.236887380633    -0.127003443811
    H           -3.613935555988     1.459766732784     0.264285177258
    H           -3.341242028218     0.241335151666     1.493168728059

  Mulliken Charges: (a.u.)
   Center  Symbol    Alpha    Beta     Spin     Total
       1     H     0.38076  0.38076  0.00000  0.23847
       2     O     4.16330  4.16330  0.00000 -0.32660
       3     C     2.79692  2.79692  0.00000  0.40616
       4     C     3.11202  3.11202  0.00000 -0.22403
       5     O     4.19918  4.19918  0.00000 -0.39835
       6     C     3.10148  3.10148  0.00000 -0.20297
       7     H     0.43510  0.43510  0.00000  0.12981
       8     H     0.43331  0.43331  0.00000  0.13338
       9     C     3.09544  3.09544  0.00000 -0.19088
      10     H     0.44027  0.44027  0.00000  0.11946
      11     H     0.44243  0.44243  0.00000  0.11514
      12     C     3.09144  3.09144  0.00000 -0.18287
      13     H     0.44816  0.44816  0.00000  0.10368
      14     H     0.45402  0.45402  0.00000  0.09196
      15     C     3.15077  3.15077  0.00000 -0.30154
      16     H     0.44160  0.44160  0.00000  0.11681
      17     H     0.45535  0.45535  0.00000  0.08929
      18     H     0.44754  0.44754  0.00000  0.10492
      19     H     0.45450  0.45450  0.00000  0.09100
      20     H     0.45642  0.45642  0.00000  0.08717

   Total alpha = 32.00000, Total beta = 32.00000, Total charge =  0.00000

*** Psi4 exiting successfully. Buy a developer a beer!
