                              Psi4 1.0.54 Driver

  ==> Input File <==

--------------------------------------------------------------------------
set {
	reference rhf
	basis cc-pvtz
}

set_num_threads( 4 )
memory 2 gb

molecule MOL {
0 1

H	 -2.123458	 -0.274223	 -0.765878
O	 -1.432053	 -0.565244	 -0.200812
C	 -0.727158	 0.534527	 0.310686
C	 0.680222	 0.664433	 -0.252229
H	 -1.306802	 1.408001	 0.044211
H	 -0.690821	 0.490158	 1.397609
C	 1.605391	 -0.489360	 0.123098
H	 0.615089	 0.745647	 -1.332226
H	 1.101414	 1.597893	 0.110950
H	 1.247627	 -1.432485	 -0.275204
H	 2.601435	 -0.332816	 -0.273062
H	 1.691776	 -0.589902	 1.200774

	symmetry c1
}
set optking {
	frozen_dihedral = ("
		1 2 3 4
	")
}

ee,wfn = optimize('scf', return_wfn=True)
oeprop( wfn, 'DIPOLE', 'QUADRUPOLE', 'MULLIKEN_CHARGES')
f=open( 'psi4out.xyz', 'w' )
f.write( "12  " )
f.write( str(ee) + "\n" )
f.write( MOL.save_string_xyz() )
f.close()
--------------------------------------------------------------------------

    Molecular point group: c1
  Charge       = 0
  Multiplicity = 1
  Basis Set: CC-PVTZ
  Basis Set:
  @DF-RHF Final Energy:  -193.18818197787209
    Total Energy =                       -193.1881819778722047
    Molecular point group: c1
  Basis Set: CC-PVTZ
  Basis Set:
  Basis Set: CC-PVTZ
  Basis Set:
  @DF-RHF Final Energy:  -192.95825514923035
    Total Energy =                       -192.9582551492302400
  Basis Set: CC-PVTZ
  Basis Set:
  Basis Set: CC-PVTZ
  Basis Set:
  @DF-RHF Final Energy:  -193.07957757655760
    Total Energy =                       -193.0795775765575399
  Basis Set: CC-PVTZ
  Basis Set:
  Basis Set: CC-PVTZ
  Basis Set:
  @DF-RHF Final Energy:  -193.15310361742880
    Total Energy =                       -193.1531036174287692
  Basis Set: CC-PVTZ
  Basis Set:
  @DF-RHF Final Energy:  -193.18430150316755
    Total Energy =                       -193.1843015031675463
  @DF-RHF Final Energy:  -193.18943162571711
    Total Energy =                       -193.1894316257171624
  Basis Set: CC-PVTZ
  Basis Set:
  @DF-RHF Final Energy:  -193.18941293579184
    Total Energy =                       -193.1894129357918928
  Basis Set: CC-PVTZ
  Basis Set:
  Basis Set: CC-PVTZ
  Basis Set:
  @DF-RHF Final Energy:  -193.18963535913883
    Total Energy =                       -193.1896353591388902
  Basis Set: CC-PVTZ
  Basis Set:
  Basis Set: CC-PVTZ
  Basis Set:
  @DF-RHF Final Energy:  -193.18963774099768
    Total Energy =                       -193.1896377409975116
  Basis Set: CC-PVTZ
  Basis Set:
  Charge       = 0
  Multiplicity = 1
  Basis Set: CC-PVTZ
  Basis Set:

    Orbital Energies (a.u.)
    -----------------------

    Doubly Occupied:

       1A    -20.545531     2A    -11.266595     3A    -11.213332
       4A    -11.201875     5A     -1.363193     6A     -1.047874
       7A     -0.919767     8A     -0.805849     9A     -0.700032
      10A     -0.640723    11A     -0.603692    12A     -0.567469
      13A     -0.536565    14A     -0.511952    15A     -0.481121
      16A     -0.466981    17A     -0.431616

  @DF-RHF Final Energy:  -193.18963791914854

   => Energetics <=

    Nuclear Repulsion Energy =            133.1560273175479097
    One-Electron Energy =                -526.0829948822630513
    Two-Electron Energy =                 199.7373296455664615
    DFT Exchange-Correlation Energy =       0.0000000000000000
    Empirical Dispersion Energy =           0.0000000000000000
    PCM Polarization Energy =               0.0000000000000000
    EFP Energy =                            0.0000000000000000
    Total Energy =                       -193.1896379191486801
    Molecular point group: c1
  Basis Set: CC-PVTZ
  Basis Set:

  -Total Gradient:
     Atom            X                  Y                   Z
    ------   -----------------  -----------------  -----------------
       1       -0.000172200138     0.000404498928     0.000655269203
       2        0.000348174670    -0.000540637738    -0.000664887960
       3       -0.000471985596     0.000282703197    -0.000364777900
       4        0.000288048382    -0.000143271168     0.000375066265
       5       -0.000005727402     0.000006283851    -0.000001891899
       6        0.000002233130    -0.000005923399     0.000007905907
       7        0.000006771404    -0.000008423360    -0.000008396091
       8       -0.000003058652    -0.000005060684    -0.000007868664
       9        0.000007859277     0.000005244844     0.000001663406
      10       -0.000001068148     0.000001866275     0.000001040977
      11       -0.000004753574     0.000000212614     0.000000596535
      12        0.000005706645     0.000002506640     0.000006280221

  **** Optimization is complete! (in 10 steps) ****
    Final optimized geometry and variables:
    Molecular point group: c1

    Geometry (in Angstrom), charge = 0, multiplicity = 1:

    H           -2.201712850124     0.031499749979     0.325375691834
    O           -1.349711679840    -0.181792073971     0.653343082606
    C           -0.418612468462     0.806461456113     0.283994021063
    C            0.566243660816     0.292336069508    -0.753073570088
    H           -0.927978468874     1.686788150691    -0.095355015844
    H            0.115136426461     1.106046360165     1.179988707241
    C            1.395427555440    -0.888756325934    -0.261069460858
    H            0.018187567485     0.009404523203    -1.647251794889
    H            1.222318665239     1.112510745745    -1.033242645101
    H            0.758007919763    -1.715218696535     0.024154717135
    H            2.073712392720    -1.234406197874    -1.032549529179
    H            1.990296009179    -0.612377079388     0.603610202693

  Mulliken Charges: (a.u.)
   Center  Symbol    Alpha    Beta     Spin     Total
       1     H     0.39217  0.39217  0.00000  0.21565
       2     O     4.20531  4.20531  0.00000 -0.41061
       3     C     2.97445  2.97445  0.00000  0.05110
       4     C     3.07627  3.07627  0.00000 -0.15254
       5     H     0.46448  0.46448  0.00000  0.07103
       6     H     0.46575  0.46575  0.00000  0.06850
       7     C     3.14926  3.14926  0.00000 -0.29853
       8     H     0.45998  0.45998  0.00000  0.08005
       9     H     0.45807  0.45807  0.00000  0.08385
      10     H     0.44580  0.44580  0.00000  0.10841
      11     H     0.45108  0.45108  0.00000  0.09784
      12     H     0.45738  0.45738  0.00000  0.08523

   Total alpha = 17.00000, Total beta = 17.00000, Total charge = -0.00000

*** Psi4 exiting successfully. Buy a developer a beer!
