  ==> Input File <==

--------------------------------------------------------------------------
set {
	reference rhf
	basis 6-31G*
}

set_num_threads( 4 )
memory 2 gb

molecule MOL {
0 1

H	 1.148083	 -1.049780	 0.784252
O	 1.319262	 -0.618148	 -0.041729
C	 0.709265	 0.639550	 -0.033818
C	 0.684045	 1.321704	 -1.376431
H	 1.269951	 1.243143	 0.670816
H	 -0.307280	 0.574197	 0.352694
C	 1.308442	 0.899023	 -2.457279
H	 0.099746	 2.228100	 -1.415475
H	 1.913758	 0.010782	 -2.450117
H	 1.246039	 1.437337	 -3.385881

	symmetry c1
}
set optking {
	frozen_dihedral = ("
		5 3 2 1
	")
}

ee = optimize('scf')
oeprop('DIPOLE', 'QUADRUPOLE', 'MULLIKEN_CHARGES')
f=open( 'psi4out.xyz', 'w' )
f.write( "10  " )
f.write( str(ee) + "\n" )
f.write( MOL.save_string_xyz() )
f.close()
--------------------------------------------------------------------------

    Molecular point group: c1
  Charge       = 0
  Multiplicity = 1
  Basis Set: 6-31G*
  Basis Set:
  @DF-RHF Final Energy:  -191.91349284648061
    Total Energy =                       -191.9134928464804943
    Molecular point group: c1
  Basis Set: 6-31G*
  Basis Set:
  Basis Set: 6-31G*
  Basis Set:
  @DF-RHF Final Energy:  -191.91497337081347
    Total Energy =                       -191.9149733708134136
  Basis Set: 6-31G*
  Basis Set:
  Basis Set: 6-31G*
  Basis Set:
  @DF-RHF Final Energy:  -191.91540586504200
    Total Energy =                       -191.9154058650419472
  Basis Set: 6-31G*
  Basis Set:
  Basis Set: 6-31G*
  Basis Set:
  @DF-RHF Final Energy:  -191.91543144345775
    Total Energy =                       -191.9154314434578055
  Basis Set: 6-31G*
  Basis Set:
  Basis Set: 6-31G*
  Basis Set:
  @DF-RHF Final Energy:  -191.91547605415687
    Total Energy =                       -191.9154760541568407
  Basis Set: 6-31G*
  Basis Set:
  Basis Set: 6-31G*
  Basis Set:
  @DF-RHF Final Energy:  -191.91549153756682
    Total Energy =                       -191.9154915375668509
  Basis Set: 6-31G*
  Basis Set:
  Charge       = 0
  Multiplicity = 1
  Basis Set: 6-31G*
  Basis Set:

    Orbital Energies (a.u.)
    -----------------------

    Doubly Occupied:

       1A    -20.559363     2A    -11.278341     3A    -11.223814
       4A    -11.209289     5A     -1.368138     6A     -1.053326
       7A     -0.921949     8A     -0.752615     9A     -0.710216
      10A     -0.636079    11A     -0.613081    12A     -0.588969
      13A     -0.513240    14A     -0.485026    15A     -0.453003
      16A     -0.354825

  @DF-RHF Final Energy:  -191.91549166875515

   => Energetics <=

    Nuclear Repulsion Energy =            119.5021944418990927
    One-Electron Energy =                -497.3928243941319352
    Two-Electron Energy =                 185.9751382834777473
    DFT Exchange-Correlation Energy =       0.0000000000000000
    Empirical Dispersion Energy =           0.0000000000000000
    PCM Polarization Energy =               0.0000000000000000
    EFP Energy =                            0.0000000000000000
    Total Energy =                       -191.9154916687551236
    Molecular point group: c1
  Basis Set: 6-31G*
  Basis Set:

  -Total Gradient:
     Atom            X                  Y                   Z
    ------   -----------------  -----------------  -----------------
       1       -0.000499794669    -0.000284824757    -0.000271068482
       2        0.000652530630     0.000463472677     0.000237089562
       3       -0.000529276706    -0.000390031561     0.000400405127
       4        0.000070688394     0.000017735447     0.000008898147
       5        0.000337721971     0.000221280499    -0.000396844753
       6        0.000001224747    -0.000024770373     0.000013238840
       7        0.000050998349     0.000035095687     0.000011042716
       8       -0.000026662909    -0.000004837134    -0.000003191533
       9       -0.000019756754    -0.000019785582    -0.000000278472
      10       -0.000037673055    -0.000013334901     0.000000708848

  **** Optimization is complete! (in 7 steps) ****
    Final optimized geometry and variables:
    Molecular point group: c1

    Geometry (in Angstrom), charge = 0, multiplicity = 1:

    H            0.201388601789    -1.562823128125     1.621935044844
    O            0.361091806877    -1.068917867740     0.831042482145
    C           -0.339550866392     0.140962798197     0.886296974131
    C           -0.314645797966     0.824467745424    -0.449517132828
    H            0.099182856937     0.806391396013     1.629912256826
    H           -1.376200021888    -0.023367845253     1.180090503946
    C            0.249396419602     0.349714219398    -1.540443589473
    H           -0.811251726704     1.781942888169    -0.470238426810
    H            0.751042785396    -0.599283641226    -1.547172872637
    H            0.224935656883     0.902439198525    -2.462638596614

  Mulliken Charges: (a.u.)
   Center  Symbol    Alpha    Beta     Spin     Total
       1     H     0.27869  0.27869  0.00000  0.44263
       2     O     4.36855  4.36855  0.00000 -0.73709
       3     C     2.99841  2.99841  0.00000  0.00318
       4     C     3.08907  3.08907  0.00000 -0.17814
       5     H     0.42535  0.42535  0.00000  0.14930
       6     H     0.42662  0.42662  0.00000  0.14676
       7     C     3.18971  3.18971  0.00000 -0.37942
       8     H     0.41207  0.41207  0.00000  0.17586
       9     H     0.39713  0.39713  0.00000  0.20575
      10     H     0.41440  0.41440  0.00000  0.17119

   Total alpha = 16.00000, Total beta = 16.00000, Total charge =  0.00000
