                              Psi4 1.0.54 Driver

  ==> Input File <==

--------------------------------------------------------------------------
set {
	reference rhf
	basis cc-pvtz
}

set_num_threads( 4 )
memory 2 gb

molecule MOL {
0 1

H	 -3.230071	 0.617454	 -0.566582
C	 -2.479425	 0.091230	 -1.151819
O	 -1.401606	 -0.295183	 -0.366624
H	 -2.924411	 -0.802034	 -1.565286
H	 -2.166836	 0.736990	 -1.970456
C	 -0.718530	 0.758693	 0.228682
C	 0.718529	 0.758687	 -0.228709
H	 -1.176498	 1.708665	 -0.046615
H	 -0.748705	 0.673525	 1.312779
O	 1.401606	 -0.295166	 0.366636
H	 0.748705	 0.673477	 -1.312803
H	 1.176496	 1.708671	 0.046552
C	 2.714315	 -0.441627	 -0.061017
H	 2.765292	 -0.641548	 -1.128869
H	 3.305661	 0.447341	 0.150952
H	 3.143725	 -1.278506	 0.470147

	symmetry c1
}
set optking {
	frozen_dihedral = ("
		2 3 6 7
	")
}

ee,wfn = optimize('scf', return_wfn=True)
oeprop( wfn, 'DIPOLE', 'QUADRUPOLE', 'MULLIKEN_CHARGES')
f=open( 'psi4out.xyz', 'w' )
f.write( "16  " )
f.write( str(ee) + "\n" )
f.write( MOL.save_string_xyz() )
f.close()
--------------------------------------------------------------------------

    Molecular point group: c1
  Charge       = 0
  Multiplicity = 1
  Basis Set: CC-PVTZ
  Basis Set:
  @DF-RHF Final Energy:  -307.09316340692340
    Total Energy =                       -307.0931634069233951
    Molecular point group: c1
  Basis Set: CC-PVTZ
  Basis Set:
  Basis Set: CC-PVTZ
  Basis Set:
  @DF-RHF Final Energy:  -306.99668782497935
    Total Energy =                       -306.9966878249792330
  Basis Set: CC-PVTZ
  Basis Set:
  Basis Set: CC-PVTZ
  Basis Set:
  @DF-RHF Final Energy:  -307.07957776217029
    Total Energy =                       -307.0795777621704588
  Basis Set: CC-PVTZ
  Basis Set:
  Basis Set: CC-PVTZ
  Basis Set:
  @DF-RHF Final Energy:  -307.09359559964537
    Total Energy =                       -307.0935955996457096
  Basis Set: CC-PVTZ
  Basis Set:
  Basis Set: CC-PVTZ
  Basis Set:
  @DF-RHF Final Energy:  -307.09370062122264
    Total Energy =                       -307.0937006212229221
  Basis Set: CC-PVTZ
  Basis Set:
  Basis Set: CC-PVTZ
  Basis Set:
  @DF-RHF Final Energy:  -307.09372133336069
    Total Energy =                       -307.0937213333606906
  Basis Set: CC-PVTZ
  Basis Set:
  Charge       = 0
  Multiplicity = 1
  Basis Set: CC-PVTZ
  Basis Set:

    Orbital Energies (a.u.)
    -----------------------

    Doubly Occupied:

       1A    -20.547943     2A    -20.545027     3A    -11.267634
       4A    -11.266938     5A    -11.263651     6A    -11.261818
       7A     -1.389931     8A     -1.372393     9A     -1.030648
      10A     -0.939464    11A     -0.895860    12A     -0.821698
      13A     -0.687718    14A     -0.678639    15A     -0.659914
      16A     -0.640283    17A     -0.624781    18A     -0.604805
      19A     -0.558387    20A     -0.527181    21A     -0.511597
      22A     -0.480523    23A     -0.471751    24A     -0.418966
      25A     -0.409802

  @DF-RHF Final Energy:  -307.09372228368392

   => Energetics <=

    Nuclear Repulsion Energy =            259.0204993688006994
    One-Electron Energy =                -932.4737383372466866
    Two-Electron Energy =                 366.3595166847622977
    DFT Exchange-Correlation Energy =       0.0000000000000000
    Empirical Dispersion Energy =           0.0000000000000000
    PCM Polarization Energy =               0.0000000000000000
    EFP Energy =                            0.0000000000000000
    Total Energy =                       -307.0937222836836327
    Molecular point group: c1
  Basis Set: CC-PVTZ
  Basis Set:

  -Total Gradient:
     Atom            X                  Y                   Z
    ------   -----------------  -----------------  -----------------
       1       -0.000005294064    -0.000011170241     0.000002431843
       2        0.000104497632     0.000026860950    -0.000139102721
       3       -0.000101743111     0.000049107121     0.000177613482
       4        0.000008207745    -0.000004042244     0.000013432822
       5       -0.000021037872    -0.000004082500    -0.000025733804
       6        0.000088753713    -0.000048647880     0.000108022877
       7       -0.000067999446    -0.000019317545    -0.000197084085
       8        0.000000978641     0.000008510611     0.000003551319
       9       -0.000027939504    -0.000018945080     0.000020015469
      10        0.000011677003     0.000017911533     0.000036311466
      11        0.000001232380     0.000013610274    -0.000037336779
      12       -0.000000803706    -0.000006031265     0.000023034992
      13        0.000009474890    -0.000005722512     0.000020055025
      14       -0.000012510756    -0.000000033261    -0.000006190607
      15        0.000000725034     0.000005436947    -0.000001218106
      16        0.000011781426    -0.000003444909     0.000002196808

  **** Optimization is complete! (in 7 steps) ****
    Final optimized geometry and variables:
    Molecular point group: c1

    Geometry (in Angstrom), charge = 0, multiplicity = 1:

    H           -3.345498858879     0.025065225060    -0.284935765350
    C           -2.548117774370    -0.592434338750    -0.692241227632
    O           -1.405821378476    -0.544104624419     0.097355392242
    H           -2.885430648424    -1.618567592380    -0.716693555350
    H           -2.349459391952    -0.269232938170    -1.711990288672
    C           -0.808951850158     0.710401699153     0.235818745755
    C            0.611974453708     0.709027934388    -0.279470717754
    H           -1.370044222846     1.467732168451    -0.305088811583
    H           -0.805456809533     0.984230074938     1.285079624571
    O            1.413442820234    -0.052379278338     0.561312159358
    H            0.631270391033     0.310167896113    -1.292647342460
    H            0.975484631044     1.736835226903    -0.318431303346
    C            2.726164978465    -0.193316759963     0.132325539573
    H            2.778392282673    -0.693270877142    -0.832314668069
    H            3.224803355062     0.770544168784     0.047263725828
    H            3.250380017708    -0.791972712835     0.862803084599

  Mulliken Charges: (a.u.)
   Center  Symbol    Alpha    Beta     Spin     Total
       1     H     0.46999  0.46999  0.00000  0.06002
       2     C     3.02985  3.02985  0.00000 -0.05970
       3     O     4.17535  4.17535  0.00000 -0.35071
       4     H     0.44857  0.44857  0.00000  0.10286
       5     H     0.47426  0.47426  0.00000  0.05148
       6     C     2.96950  2.96950  0.00000  0.06100
       7     C     2.95828  2.95828  0.00000  0.08345
       8     H     0.47387  0.47387  0.00000  0.05225
       9     H     0.45643  0.45643  0.00000  0.08713
      10     O     4.16838  4.16838  0.00000 -0.33676
      11     H     0.47592  0.47592  0.00000  0.04816
      12     H     0.47721  0.47721  0.00000  0.04557
      13     C     3.03166  3.03166  0.00000 -0.06332
      14     H     0.47106  0.47106  0.00000  0.05788
      15     H     0.47355  0.47355  0.00000  0.05290
      16     H     0.44611  0.44611  0.00000  0.10778

   Total alpha = 25.00000, Total beta = 25.00000, Total charge = -0.00000

*** Psi4 exiting successfully. Buy a developer a beer!
