  ==> Input File <==

--------------------------------------------------------------------------
set {
	reference rhf
	basis 6-31G*
}

set_num_threads( 4 )
memory 2 gb

molecule MOL {
0 1

H	 3.729471	 -0.928294	 -0.070608
O	 2.826016	 -1.159218	 0.122261
C	 2.077727	 -0.067559	 -0.035091
C	 0.624473	 -0.343591	 0.253101
O	 2.542965	 0.974826	 -0.363729
C	 -0.265902	 0.883932	 0.072916
H	 0.324016	 -1.163849	 -0.390541
H	 0.565024	 -0.726111	 1.268924
C	 -1.728698	 0.646073	 0.462102
H	 -0.209144	 1.219470	 -0.958188
H	 0.135059	 1.692851	 0.673903
C	 -1.945040	 0.167407	 1.900515
H	 -2.141367	 -0.097308	 -0.216021
H	 -2.301880	 1.557020	 0.295384
C	 -3.409717	 -0.152220	 2.198907
H	 -1.338857	 -0.718641	 2.078014
H	 -1.598957	 0.921024	 2.603132
H	 -3.538164	 -0.487357	 3.223357
H	 -3.780860	 -0.936054	 1.544930
H	 -4.038571	 0.721999	 2.055655

	symmetry c1
}
set optking {
	frozen_dihedral = ("
		12 9 6 10
	")
}

ee = optimize('scf')
oeprop('DIPOLE', 'QUADRUPOLE', 'MULLIKEN_CHARGES')
f=open( 'psi4out.xyz', 'w' )
f.write( "20  " )
f.write( str(ee) + "\n" )
f.write( MOL.save_string_xyz() )
f.close()
--------------------------------------------------------------------------

    Molecular point group: c1
  Charge       = 0
  Multiplicity = 1
  Basis Set: 6-31G*
  Basis Set:
  @DF-RHF Final Energy:  -383.94724360344179
    Total Energy =                       -383.9472436034415068
    Molecular point group: c1
  Basis Set: 6-31G*
  Basis Set:
  Basis Set: 6-31G*
  Basis Set:
  @DF-RHF Final Energy:  -383.94814950269603
    Total Energy =                       -383.9481495026959124
  Basis Set: 6-31G*
  Basis Set:
  Basis Set: 6-31G*
  Basis Set:
  @DF-RHF Final Energy:  -383.94853436839503
    Total Energy =                       -383.9485343683949736
  Basis Set: 6-31G*
  Basis Set:
  Basis Set: 6-31G*
  Basis Set:
  @DF-RHF Final Energy:  -383.94854917444559
    Total Energy =                       -383.9485491744456453
  Basis Set: 6-31G*
  Basis Set:
  Basis Set: 6-31G*
  Basis Set:
  @DF-RHF Final Energy:  -383.94841983337051
    Total Energy =                       -383.9484198333703944
  Basis Set: 6-31G*
  Basis Set:
  Basis Set: 6-31G*
  Basis Set:
  @DF-RHF Final Energy:  -383.94856243384231
    Total Energy =                       -383.9485624338425396
  Basis Set: 6-31G*
  Basis Set:
  Charge       = 0
  Multiplicity = 1
  Basis Set: 6-31G*
  Basis Set:

    Orbital Energies (a.u.)
    -----------------------

    Doubly Occupied:

       1A    -20.612479     2A    -20.551590     3A    -11.381129
       4A    -11.240125     5A    -11.223017     6A    -11.220818
       7A    -11.220211     8A    -11.212519     9A     -1.474558
      10A     -1.365605    11A     -1.096321    12A     -1.040730
      13A     -0.961370    14A     -0.869001    15A     -0.817518
      16A     -0.774911    17A     -0.699536    18A     -0.689853
      19A     -0.664887    20A     -0.636300    21A     -0.601539
      22A     -0.594287    23A     -0.576335    24A     -0.555376
      25A     -0.539477    26A     -0.514366    27A     -0.495789
      28A     -0.479206    29A     -0.469977    30A     -0.466961
      31A     -0.457580    32A     -0.443788

  @DF-RHF Final Energy:  -383.94856328216787

   => Energetics <=

    Nuclear Repulsion Energy =            376.2810572643095952
    One-Electron Energy =               -1268.5649262033562081
    Two-Electron Energy =                 508.3353056568787451
    DFT Exchange-Correlation Energy =       0.0000000000000000
    Empirical Dispersion Energy =           0.0000000000000000
    PCM Polarization Energy =               0.0000000000000000
    EFP Energy =                            0.0000000000000000
    Total Energy =                       -383.9485632821679246
    Molecular point group: c1
  Basis Set: 6-31G*
  Basis Set:

  -Total Gradient:
     Atom            X                  Y                   Z
    ------   -----------------  -----------------  -----------------
       1       -0.000001897431     0.000003908964     0.000003435171
       2       -0.000011172820    -0.000012478830    -0.000021914260
       3        0.000021739645    -0.000000353752     0.000044683603
       4        0.000009557159    -0.000040226593    -0.000094137815
       5       -0.000009924456    -0.000002103600     0.000013449006
       6       -0.000195051664     0.001314109155     0.000357935892
       7        0.000028300778     0.000006630465     0.000029664002
       8        0.000012318793     0.000019342458     0.000019029216
       9       -0.000193657403     0.001256681263     0.000430314913
      10        0.000219411287    -0.001448095844    -0.000445274800
      11       -0.000001216962     0.000007137890    -0.000000749358
      12        0.000139417283    -0.001101556595    -0.000345130254
      13        0.000038278030    -0.000003646292    -0.000000575391
      14       -0.000050161740    -0.000014342476     0.000005715153
      15        0.000003616357     0.000021082361     0.000013915085
      16       -0.000013955466     0.000000558957    -0.000007469420
      17        0.000001253009    -0.000017932838    -0.000001544745
      18        0.000001849653     0.000007215594    -0.000002918443
      19        0.000008169485    -0.000000535347     0.000002201921
      20       -0.000006873548     0.000004605058    -0.000000629473

  **** Optimization is complete! (in 7 steps) ****
    Final optimized geometry and variables:
    Molecular point group: c1

    Geometry (in Angstrom), charge = 0, multiplicity = 1:

    H            3.626388862869    -0.969895141676    -0.774181209702
    O            2.751084879103    -1.203145613845    -0.480616857346
    C            1.961179184333    -0.143588513378    -0.653339064981
    C            0.548494632602    -0.425821906215    -0.210595813189
    O            2.365517583018     0.878505060275    -1.103761970300
    C           -0.386626852071     0.767764765717    -0.396964718117
    H            0.201372268329    -1.289895667662    -0.771535285287
    H            0.600678618988    -0.745843960498     0.824844555054
    C           -1.854223465449     0.457822780571    -0.082848650422
    H           -0.309732375192     1.099626875273    -1.426616783006
    H           -0.040967574037     1.592560176808     0.218468788812
    C           -2.128949945265    -0.026268066081     1.343762695757
    H           -2.222152017961    -0.287683398663    -0.786530251382
    H           -2.435798900020     1.358070953789    -0.266978883177
    C           -3.622067517675    -0.179916128369     1.632736546881
    H           -1.637421393339    -0.979950862011     1.515838205575
    H           -1.694832647644     0.675530296948     2.053542298805
    H           -3.792348380071    -0.532305548460     2.645218378870
    H           -4.081029682801    -0.892419889612     0.953042573502
    H           -4.142806545443     0.766498583647     1.519242970405

  Mulliken Charges: (a.u.)
   Center  Symbol    Alpha    Beta     Spin     Total
       1     H     0.26786  0.26786  0.00000  0.46428
       2     O     4.35156  4.35156  0.00000 -0.70313
       3     C     2.62218  2.62218  0.00000  0.75563
       4     C     3.21372  3.21372  0.00000 -0.42744
       5     O     4.27927  4.27927  0.00000 -0.55854
       6     C     3.15378  3.15378  0.00000 -0.30756
       7     H     0.39923  0.39923  0.00000  0.20154
       8     H     0.39654  0.39654  0.00000  0.20692
       9     C     3.15501  3.15501  0.00000 -0.31003
      10     H     0.40797  0.40797  0.00000  0.18406
      11     H     0.41232  0.41232  0.00000  0.17536
      12     C     3.15583  3.15583  0.00000 -0.31165
      13     H     0.42349  0.42349  0.00000  0.15302
      14     H     0.41784  0.41784  0.00000  0.16431
      15     C     3.23916  3.23916  0.00000 -0.47832
      16     H     0.42212  0.42212  0.00000  0.15576
      17     H     0.42192  0.42192  0.00000  0.15615
      18     H     0.41836  0.41836  0.00000  0.16328
      19     H     0.42125  0.42125  0.00000  0.15750
      20     H     0.42058  0.42058  0.00000  0.15884

   Total alpha = 32.00000, Total beta = 32.00000, Total charge =  0.00000
