                              Psi4 1.0.54 Driver

  ==> Input File <==

--------------------------------------------------------------------------
set {
	reference rhf
	basis cc-pvtz
}

set_num_threads( 4 )
memory 2 gb

molecule MOL {
0 1

O	 -2.440701	 -0.934798	 -0.415053
C	 -1.922978	 0.063265	 -0.045005
C	 -2.632749	 1.372204	 0.158357
O	 -0.637375	 0.157174	 0.243149
H	 -2.187724	 2.129143	 -0.474664
H	 -3.677681	 1.257276	 -0.079438
H	 -2.516788	 1.693160	 1.185542
C	 0.162530	 -1.009518	 0.097799
C	 1.587210	 -0.664190	 0.477086
H	 0.096803	 -1.356267	 -0.924704
H	 -0.233803	 -1.785900	 0.736810
C	 2.256770	 0.342732	 -0.454344
H	 2.154716	 -1.590834	 0.479041
H	 1.598751	 -0.289614	 1.496104
C	 3.776754	 0.337704	 -0.330900
H	 1.977108	 0.119479	 -1.480524
H	 1.879135	 1.336110	 -0.241186
H	 4.226104	 1.057573	 -1.004886
H	 4.187623	 -0.638222	 -0.567856
H	 4.087954	 0.590188	 0.677278

	symmetry c1
}
set optking {
	frozen_dihedral = ("
		16 12 9 8
	")
}

ee,wfn = optimize('scf', return_wfn=True)
oeprop( wfn, 'DIPOLE', 'QUADRUPOLE', 'MULLIKEN_CHARGES')
f=open( 'psi4out.xyz', 'w' )
f.write( "20  " )
f.write( str(ee) + "\n" )
f.write( MOL.save_string_xyz() )
f.close()
--------------------------------------------------------------------------

    Molecular point group: c1
  Charge       = 0
  Multiplicity = 1
  Basis Set: CC-PVTZ
  Basis Set:
  @DF-RHF Final Energy:  -384.08653023789969
    Total Energy =                       -384.0865302378994102
    Molecular point group: c1
  Basis Set: CC-PVTZ
  Basis Set:
  Basis Set: CC-PVTZ
  Basis Set:
  @DF-RHF Final Energy:  -384.08664942619771
    Total Energy =                       -384.0866494261980506
  Basis Set: CC-PVTZ
  Basis Set:
  Basis Set: CC-PVTZ
  Basis Set:
  @DF-RHF Final Energy:  -384.08648024000530
    Total Energy =                       -384.0864802400055851
  Basis Set: CC-PVTZ
  Basis Set:
  Basis Set: CC-PVTZ
  Basis Set:
  @DF-RHF Final Energy:  -384.08667996567300
    Total Energy =                       -384.0866799656726016
  Basis Set: CC-PVTZ
  Basis Set:
  Basis Set: CC-PVTZ
  Basis Set:
  @DF-RHF Final Energy:  -384.08668129014978
    Total Energy =                       -384.0866812901496132
  Basis Set: CC-PVTZ
  Basis Set:
  Charge       = 0
  Multiplicity = 1
  Basis Set: CC-PVTZ
  Basis Set:

    Orbital Energies (a.u.)
    -----------------------

    Doubly Occupied:

       1A    -20.594138     2A    -20.532548     3A    -11.366526
       4A    -11.280231     5A    -11.231577     6A    -11.223600
       7A    -11.219113     8A    -11.212017     9A     -1.470809
      10A     -1.364924    11A     -1.087038    12A     -1.029145
      13A     -0.982507    14A     -0.881343    15A     -0.813379
      16A     -0.775681    17A     -0.692182    18A     -0.687862
      19A     -0.670097    20A     -0.631938    21A     -0.599608
      22A     -0.594711    23A     -0.572843    24A     -0.551360
      25A     -0.549243    26A     -0.532207    27A     -0.511767
      28A     -0.485431    29A     -0.475603    30A     -0.472802
      31A     -0.452073    32A     -0.441842

  @DF-RHF Final Energy:  -384.08668176784823

   => Energetics <=

    Nuclear Repulsion Energy =            385.5074590086312014
    One-Electron Energy =               -1287.2159954306303007
    Two-Electron Energy =                 517.6218546541508658
    DFT Exchange-Correlation Energy =       0.0000000000000000
    Empirical Dispersion Energy =           0.0000000000000000
    PCM Polarization Energy =               0.0000000000000000
    EFP Energy =                            0.0000000000000000
    Total Energy =                       -384.0866817678481766
    Molecular point group: c1
  Basis Set: CC-PVTZ
  Basis Set:

  -Total Gradient:
     Atom            X                  Y                   Z
    ------   -----------------  -----------------  -----------------
       1       -0.000097479330    -0.000179793796    -0.000066164418
       2        0.000028397143     0.000107672696     0.000061567174
       3        0.000035370571    -0.000008103012    -0.000008392617
       4        0.000041567003     0.000027435645     0.000039453513
       5        0.000024574644     0.000044778807    -0.000030566377
       6       -0.000054905932    -0.000015707799    -0.000016632829
       7        0.000005706692     0.000018577703     0.000053431153
       8        0.000747063228    -0.001582110997    -0.001312627871
       9       -0.001560155399     0.002679662502     0.001803249979
      10        0.000013101299    -0.000006093849     0.000013160811
      11       -0.000015826339    -0.000000736111     0.000019276519
      12        0.003123141546    -0.002830537543    -0.000770196881
      13       -0.000000020052    -0.000008596489    -0.000002162369
      14        0.000012529238     0.000001900164    -0.000002647910
      15       -0.000010930792    -0.000008761085    -0.000000591710
      16       -0.002282523709     0.001749519945     0.000220317160
      17       -0.000001689566     0.000007724503    -0.000000760590
      18       -0.000002905491     0.000005409533    -0.000004387048
      19       -0.000000029492    -0.000000067420    -0.000000164134
      20       -0.000004985272    -0.000002173401     0.000004838443

  **** Optimization is complete! (in 6 steps) ****
    Final optimized geometry and variables:
    Molecular point group: c1

    Geometry (in Angstrom), charge = 0, multiplicity = 1:

    O           -2.445772478589    -0.888299227387    -0.422372451532
    C           -1.926247557430     0.112247982972    -0.061292652713
    C           -2.624832412516     1.433809355306     0.090808998209
    O           -0.647731229119     0.197566896562     0.258954577638
    H           -2.152967495568     2.169391804367    -0.547992113334
    H           -3.664399543177     1.325561259539    -0.172676797219
    H           -2.532515395789     1.778276301190     1.112790368360
    C            0.140920513372    -0.982158513967     0.161935945337
    C            1.562278183627    -0.644588691171     0.556982368375
    H            0.093424257024    -1.354663915116    -0.852189913809
    H           -0.277460803494    -1.736801364059     0.812934473884
    C            2.247170209567     0.365366240607    -0.363949629847
    H            2.116913246945    -1.579431016590     0.544468246123
    H            1.579746084957    -0.287623078544     1.581601742165
    C            3.762486421410     0.384770729144    -0.203593553366
    H            1.980687096284     0.152680173928    -1.395563542529
    H            1.850807238896     1.354155439421    -0.160823802355
    H            4.214208960136     1.134121955720    -0.842945544435
    H            4.197307522169    -0.575591635383    -0.459565666338
    H            4.043680048871     0.611355450909     0.819678982602

  Mulliken Charges: (a.u.)
   Center  Symbol    Alpha    Beta     Spin     Total
       1     O     4.19751  4.19751  0.00000 -0.39502
       2     C     2.80894  2.80894  0.00000  0.38212
       3     C     3.13830  3.13830  0.00000 -0.27660
       4     O     4.15346  4.15346  0.00000 -0.30692
       5     H     0.44598  0.44598  0.00000  0.10803
       6     H     0.43787  0.43787  0.00000  0.12425
       7     H     0.44575  0.44575  0.00000  0.10850
       8     C     2.99393  2.99393  0.00000  0.01213
       9     C     3.08493  3.08493  0.00000 -0.16985
      10     H     0.45101  0.45101  0.00000  0.09799
      11     H     0.44482  0.44482  0.00000  0.11037
      12     C     3.08419  3.08419  0.00000 -0.16839
      13     H     0.45361  0.45361  0.00000  0.09277
      14     H     0.45018  0.45018  0.00000  0.09965
      15     C     3.14944  3.14944  0.00000 -0.29887
      16     H     0.45498  0.45498  0.00000  0.09004
      17     H     0.44794  0.44794  0.00000  0.10413
      18     H     0.44747  0.44747  0.00000  0.10506
      19     H     0.45529  0.45529  0.00000  0.08943
      20     H     0.45441  0.45441  0.00000  0.09118

   Total alpha = 32.00000, Total beta = 32.00000, Total charge = -0.00000

*** Psi4 exiting successfully. Buy a developer a beer!
