                              Psi4 1.0.54 Driver

  ==> Input File <==

--------------------------------------------------------------------------
set {
	reference rhf
	basis cc-pvtz
}

set_num_threads( 4 )
memory 2 gb

molecule MOL {
0 1

O	 -1.510770	 1.240811	 -0.054933
C	 -1.081510	 0.147522	 0.122720
C	 0.327029	 -0.064006	 0.641890
C	 -1.903028	 -1.084121	 -0.174656
C	 1.349460	 -0.017068	 -0.500215
H	 0.399029	 -1.014606	 1.159950
H	 0.538021	 0.726928	 1.350471
C	 1.843388	 1.397384	 -0.781470
H	 2.196685	 -0.653029	 -0.260215
H	 0.892322	 -0.431230	 -1.391182
H	 2.554804	 1.403808	 -1.598707
H	 2.332906	 1.823279	 0.087861
H	 1.021023	 2.050387	 -1.051976
H	 -1.341891	 -1.779207	 -0.789259
H	 -2.820449	 -0.808163	 -0.671328
H	 -2.133314	 -1.593056	 0.755831

	symmetry c1
}
set optking {
	frozen_dihedral = ("
		9 5 3 2
	")
}

ee,wfn = optimize('scf', return_wfn=True)
oeprop( wfn, 'DIPOLE', 'QUADRUPOLE', 'MULLIKEN_CHARGES')
f=open( 'psi4out.xyz', 'w' )
f.write( "16  " )
f.write( str(ee) + "\n" )
f.write( MOL.save_string_xyz() )
f.close()
--------------------------------------------------------------------------

    Molecular point group: c1
  Charge       = 0
  Multiplicity = 1
  Basis Set: CC-PVTZ
  Basis Set:
  @DF-RHF Final Energy:  -270.12647654752487
    Total Energy =                       -270.1264765475248737
    Molecular point group: c1
  Basis Set: CC-PVTZ
  Basis Set:
  Basis Set: CC-PVTZ
  Basis Set:
  @DF-RHF Final Energy:  -270.12677060543382
    Total Energy =                       -270.1267706054338760
  Basis Set: CC-PVTZ
  Basis Set:
  Basis Set: CC-PVTZ
  Basis Set:
  @DF-RHF Final Energy:  -270.12683889321272
    Total Energy =                       -270.1268388932127209
  Basis Set: CC-PVTZ
  Basis Set:
  Basis Set: CC-PVTZ
  Basis Set:
  @DF-RHF Final Energy:  -270.12690604182262
    Total Energy =                       -270.1269060418228491
  Basis Set: CC-PVTZ
  Basis Set:
  @DF-RHF Final Energy:  -270.12692392370286
    Total Energy =                       -270.1269239237029183
  @DF-RHF Final Energy:  -270.12693233853554
    Total Energy =                       -270.1269323385354255
  @DF-RHF Final Energy:  -270.12693418059553
    Total Energy =                       -270.1269341805955264
  @DF-RHF Final Energy:  -270.12693559021471
    Total Energy =                       -270.1269355902146003
  Basis Set: CC-PVTZ
  Basis Set:
  @DF-RHF Final Energy:  -270.12693801280659
    Total Energy =                       -270.1269380128068747
  Basis Set: CC-PVTZ
  Basis Set:
  Basis Set: CC-PVTZ
  Basis Set:
  @DF-RHF Final Energy:  -270.12694174336514
    Total Energy =                       -270.1269417433650801
  Basis Set: CC-PVTZ
  Basis Set:
  Basis Set: CC-PVTZ
  Basis Set:
  @DF-RHF Final Energy:  -270.12694523717619
    Total Energy =                       -270.1269452371761304
  Basis Set: CC-PVTZ
  Basis Set:
  Charge       = 0
  Multiplicity = 1
  Basis Set: CC-PVTZ
  Basis Set:

    Orbital Energies (a.u.)
    -----------------------

    Doubly Occupied:

       1A    -20.537741     2A    -11.320211     3A    -11.232649
       4A    -11.228742     5A    -11.227381     6A    -11.210639
       7A     -1.397499     8A     -1.081882     9A     -1.012966
      10A     -0.947872    11A     -0.831197    12A     -0.735366
      13A     -0.659748    14A     -0.646652    15A     -0.619227
      16A     -0.591798    17A     -0.587314    18A     -0.561744
      19A     -0.542541    20A     -0.510852    21A     -0.495811
      22A     -0.488324    23A     -0.474222    24A     -0.399631

  @DF-RHF Final Energy:  -270.12694436559184

   => Energetics <=

    Nuclear Repulsion Energy =            240.8566094740652375
    One-Electron Energy =                -843.2830915368306250
    Two-Electron Energy =                 332.2995376971734345
    DFT Exchange-Correlation Energy =       0.0000000000000000
    Empirical Dispersion Energy =           0.0000000000000000
    PCM Polarization Energy =               0.0000000000000000
    EFP Energy =                            0.0000000000000000
    Total Energy =                       -270.1269443655920099
    Molecular point group: c1
  Basis Set: CC-PVTZ
  Basis Set:

  -Total Gradient:
     Atom            X                  Y                   Z
    ------   -----------------  -----------------  -----------------
       1       -0.000209921606     0.000068154006    -0.000047367243
       2       -0.000104776704    -0.001974740264    -0.000359310010
       3       -0.000359337087     0.001990141610     0.000060217118
       4       -0.000075124039    -0.000009028684     0.000189148268
       5        0.002083181226     0.002107830401     0.002034422354
       6        0.000257945209    -0.000025164587    -0.000057338165
       7       -0.000154777929     0.000063068844    -0.000036775101
       8        0.000061536196     0.000068586774    -0.000264798926
       9       -0.001395076010    -0.002474729143    -0.001452759450
      10       -0.000129788280     0.000203996435    -0.000046365803
      11        0.000031330377     0.000000846118     0.000023590676
      12       -0.000026372663    -0.000001714995     0.000012123567
      13        0.000006253643    -0.000012549710    -0.000037029478
      14        0.000003810299     0.000000100355    -0.000010496038
      15        0.000006637369     0.000005069574     0.000001514783
      16        0.000004479995    -0.000009866735    -0.000008776553

  **** Optimization is complete! (in 12 steps) ****
    Final optimized geometry and variables:
    Molecular point group: c1

    Geometry (in Angstrom), charge = 0, multiplicity = 1:

    O           -1.390995276036     0.958191848178     0.167404022661
    C           -0.917438753216    -0.126175537741     0.279082711819
    C            0.494694013610    -0.328450583401     0.789947774740
    C           -1.695160419991    -1.367344392230    -0.092454250711
    C            1.519950062805    -0.297071338886    -0.362814558200
    H            0.554548634735    -1.283194474890     1.299849194031
    H            0.711663728487     0.452169341350     1.506937118175
    C            1.996930685926     1.107296150592    -0.714826439943
    H            2.360063793598    -0.930792345307    -0.103708781190
    H            1.081018203398    -0.754258092240    -1.245636443897
    H            2.685541723705     1.081315986966    -1.551398698004
    H            2.509525455231     1.563127967790     0.125059227482
    H            1.164559161577     1.746549531709    -0.981114169943
    H           -1.098452667630    -2.032541448461    -0.705651651374
    H           -2.601030394271    -1.095342511910    -0.612003574428
    H           -1.948695860225    -1.907551187084     0.814205268014

  Mulliken Charges: (a.u.)
   Center  Symbol    Alpha    Beta     Spin     Total
       1     O     4.17700  4.17700  0.00000 -0.35399
       2     C     2.85925  2.85925  0.00000  0.28150
       3     C     3.10543  3.10543  0.00000 -0.21085
       4     C     3.15370  3.15370  0.00000 -0.30740
       5     C     3.09265  3.09265  0.00000 -0.18529
       6     H     0.44221  0.44221  0.00000  0.11557
       7     H     0.44054  0.44054  0.00000  0.11893
       8     C     3.14375  3.14375  0.00000 -0.28750
       9     H     0.44592  0.44592  0.00000  0.10816
      10     H     0.45502  0.45502  0.00000  0.08997
      11     H     0.45035  0.45035  0.00000  0.09930
      12     H     0.45532  0.45532  0.00000  0.08936
      13     H     0.44366  0.44366  0.00000  0.11267
      14     H     0.45078  0.45078  0.00000  0.09844
      15     H     0.43644  0.43644  0.00000  0.12712
      16     H     0.44799  0.44799  0.00000  0.10401

   Total alpha = 24.00000, Total beta = 24.00000, Total charge = -0.00000

*** Psi4 exiting successfully. Buy a developer a beer!
