  ==> Input File <==

--------------------------------------------------------------------------
set {
	reference rhf
	basis 6-31G*
}

set_num_threads( 4 )
memory 2 gb

molecule MOL {
0 1

O	 1.313572	 1.142767	 0.577740
C	 1.122059	 0.121804	 -0.000188
C	 -0.170150	 -0.657997	 -0.000612
O	 2.046213	 -0.479051	 -0.739030
C	 -1.412532	 0.227344	 -0.000452
H	 -0.153702	 -1.313099	 -0.867402
H	 -0.153924	 -1.313811	 0.865644
C	 -2.706999	 -0.587347	 -0.000541
H	 -1.388000	 0.879466	 -0.868000
H	 -1.387972	 0.879138	 0.867341
C	 -3.956778	 0.291888	 0.000910
H	 -2.726114	 -1.239230	 -0.871609
H	 -2.725217	 -1.240844	 0.869333
H	 -3.985213	 0.933254	 -0.875158
H	 -4.860123	 -0.309979	 0.000519
H	 -3.984618	 0.931166	 0.878514
C	 3.311318	 0.151426	 -0.823583
H	 3.216717	 1.136609	 -1.257119
H	 3.913888	 -0.479935	 -1.457808
H	 3.760022	 0.235905	 0.155720

	symmetry c1
}
set optking {
	frozen_dihedral = ("
		1 2 3 6
	")
}

ee = optimize('scf')
oeprop('DIPOLE', 'QUADRUPOLE', 'MULLIKEN_CHARGES')
f=open( 'psi4out.xyz', 'w' )
f.write( "20  " )
f.write( str(ee) + "\n" )
f.write( MOL.save_string_xyz() )
f.close()
--------------------------------------------------------------------------

    Molecular point group: c1
  Charge       = 0
  Multiplicity = 1
  Basis Set: 6-31G*
  Basis Set:
  @DF-RHF Final Energy:  -383.94044343586251
    Total Energy =                       -383.9404434358626759
    Molecular point group: c1
  Basis Set: 6-31G*
  Basis Set:
  Basis Set: 6-31G*
  Basis Set:
  @DF-RHF Final Energy:  -383.93979858940531
    Total Energy =                       -383.9397985894053136
  Basis Set: 6-31G*
  Basis Set:
  Basis Set: 6-31G*
  Basis Set:
  @DF-RHF Final Energy:  -383.94062288350284
    Total Energy =                       -383.9406228835030106
  Basis Set: 6-31G*
  Basis Set:
  Basis Set: 6-31G*
  Basis Set:
  @DF-RHF Final Energy:  -383.94081193990360
    Total Energy =                       -383.9408119399037105
  Basis Set: 6-31G*
  Basis Set:
  Charge       = 0
  Multiplicity = 1
  Basis Set: 6-31G*
  Basis Set:

    Orbital Energies (a.u.)
    -----------------------

    Doubly Occupied:

       1A    -20.605370     2A    -20.543722     3A    -11.372268
       4A    -11.280945     5A    -11.234997     6A    -11.222076
       7A    -11.220989     8A    -11.211420     9A     -1.469847
      10A     -1.362208    11A     -1.089264    12A     -1.024215
      13A     -0.969545    14A     -0.886710    15A     -0.804632
      16A     -0.769616    17A     -0.696169    18A     -0.682397
      19A     -0.672224    20A     -0.646514    21A     -0.597755
      22A     -0.592374    23A     -0.576771    24A     -0.546348
      25A     -0.534387    26A     -0.523239    27A     -0.501413
      28A     -0.478301    29A     -0.475448    30A     -0.470777
      31A     -0.455701    32A     -0.434859

  @DF-RHF Final Energy:  -383.94081273664136

   => Energetics <=

    Nuclear Repulsion Energy =            381.1445876430189514
    One-Electron Energy =               -1278.2657990432376209
    Two-Electron Energy =                 513.1803986635775345
    DFT Exchange-Correlation Energy =       0.0000000000000000
    Empirical Dispersion Energy =           0.0000000000000000
    PCM Polarization Energy =               0.0000000000000000
    EFP Energy =                            0.0000000000000000
    Total Energy =                       -383.9408127366411918
    Molecular point group: c1
  Basis Set: 6-31G*
  Basis Set:

  -Total Gradient:
     Atom            X                  Y                   Z
    ------   -----------------  -----------------  -----------------
       1        0.000351053179    -0.000659346809     0.000773389537
       2       -0.000462761044     0.000810045674    -0.000983996231
       3       -0.000438681627     0.000716734713    -0.000327341550
       4        0.000049055659    -0.000001764435    -0.000150005945
       5        0.000026144428    -0.000008913732     0.000072148371
       6        0.000478862170    -0.000763259910     0.000563223086
       7        0.000002742479    -0.000005876640     0.000007706473
       8       -0.000003840546    -0.000010838548    -0.000035742026
       9        0.000018309864    -0.000024186545    -0.000005931380
      10       -0.000008338466     0.000003163633     0.000010238344
      11        0.000008746330     0.000006596639    -0.000003670003
      12       -0.000011280222    -0.000013592530    -0.000006238264
      13        0.000015199403     0.000010659363    -0.000004378743
      14       -0.000003933925     0.000000567405     0.000000615727
      15        0.000003561967    -0.000001840958     0.000000220709
      16       -0.000000831702     0.000002220157     0.000000611818
      17       -0.000029865686    -0.000124487199     0.000160803547
      18       -0.000042179822     0.000019080544    -0.000018255828
      19        0.000007055346     0.000019436008    -0.000023799605
      20        0.000040982210     0.000025603170    -0.000029598037

  **** Optimization is complete! (in 5 steps) ****
    Final optimized geometry and variables:
    Molecular point group: c1

    Geometry (in Angstrom), charge = 0, multiplicity = 1:

    O            1.299717194850     1.106674182107     0.670813083325
    C            1.135593566012     0.087664987668     0.079707848077
    C           -0.151446107681    -0.701934876949     0.063103792730
    O            2.093592959515    -0.508910447829    -0.615947322215
    C           -1.394667047899     0.186225395270     0.102209679115
    H           -0.151166263458    -1.361017058052    -0.796540353436
    H           -0.125063160936    -1.342998384760     0.942327356983
    C           -2.689371343624    -0.625440799791     0.161035640045
    H           -1.407081572182     0.825381226201    -0.777522774786
    H           -1.330273822348     0.846316679001     0.959978389302
    C           -3.936721804994     0.256606584546     0.194069050598
    H           -2.741188176527    -1.291896592241    -0.697380639152
    H           -2.675322526944    -1.263242997671     1.042456180577
    H           -3.998256047641     0.881648944852    -0.692139992148
    H           -4.840167726996    -0.343348841936     0.239274148909
    H           -3.929788516044     0.911836616077     1.060177135245
    C            3.365330694140     0.114389640508    -0.621681027553
    H            3.299429043724     1.105981728891    -1.045604944013
    H            3.998033827758    -0.511961687875    -1.231015940678
    H            3.759876675307     0.182636538136     0.381883883821

  Mulliken Charges: (a.u.)
   Center  Symbol    Alpha    Beta     Spin     Total
       1     O     4.28676  4.28676  0.00000 -0.57353
       2     C     2.60417  2.60417  0.00000  0.79167
       3     C     3.20896  3.20896  0.00000 -0.41793
       4     O     4.30599  4.30599  0.00000 -0.61198
       5     C     3.15599  3.15599  0.00000 -0.31199
       6     H     0.40044  0.40044  0.00000  0.19913
       7     H     0.40059  0.40059  0.00000  0.19882
       8     C     3.15380  3.15380  0.00000 -0.30759
       9     H     0.41752  0.41752  0.00000  0.16496
      10     H     0.40432  0.40432  0.00000  0.19137
      11     C     3.23963  3.23963  0.00000 -0.47925
      12     H     0.42247  0.42247  0.00000  0.15505
      13     H     0.42204  0.42204  0.00000  0.15591
      14     H     0.42052  0.42052  0.00000  0.15897
      15     H     0.41844  0.41844  0.00000  0.16312
      16     H     0.41931  0.41931  0.00000  0.16138
      17     C     3.09331  3.09331  0.00000 -0.18662
      18     H     0.40837  0.40837  0.00000  0.18325
      19     H     0.40835  0.40835  0.00000  0.18329
      20     H     0.40901  0.40901  0.00000  0.18197

   Total alpha = 32.00000, Total beta = 32.00000, Total charge =  0.00000
