  ==> Input File <==

--------------------------------------------------------------------------
set {
	reference rhf
	basis cc-pvtz
}

set_num_threads( 4 )
memory 2 gb

molecule MOL {
0 1

H	 0.207557	 1.273088	 -1.085865
O	 0.057669	 1.301365	 -0.158528
C	 0.004145	 -0.005141	 0.363049
C	 1.199168	 -0.827145	 -0.096690
C	 -1.316386	 -0.602081	 -0.083515
H	 0.012026	 0.043363	 1.450619
H	 1.216685	 -0.896776	 -1.178167
H	 2.129940	 -0.372354	 0.228035
H	 1.160783	 -1.829622	 0.314294
H	 -1.357882	 -0.655920	 -1.165207
H	 -2.140147	 0.011735	 0.257253
H	 -1.440790	 -1.601175	 0.317669

	symmetry c1
}
set optking {
	frozen_dihedral = ("
		1 2 3 4
	")
}

ee = optimize('scf')
oeprop('DIPOLE', 'QUADRUPOLE', 'MULLIKEN_CHARGES')
f=open( 'psi4out.xyz', 'w' )
f.write( "12  " )
f.write( str(ee) + "\n" )
f.write( MOL.save_string_xyz() )
f.close()
--------------------------------------------------------------------------

    Molecular point group: c1
  Charge       = 0
  Multiplicity = 1
  Basis Set: CC-PVTZ
  Basis Set:
  @DF-RHF Final Energy:  -193.19364639575932
    Total Energy =                       -193.1936463957592309
    Molecular point group: c1
  Basis Set: CC-PVTZ
  Basis Set:
  Basis Set: CC-PVTZ
  Basis Set:
  @DF-RHF Final Energy:  -193.19505907476110
    Total Energy =                       -193.1950590747611614
  Basis Set: CC-PVTZ
  Basis Set:
  Basis Set: CC-PVTZ
  Basis Set:
  @DF-RHF Final Energy:  -193.19539962715956
    Total Energy =                       -193.1953996271595315
  Basis Set: CC-PVTZ
  Basis Set:
  Charge       = 0
  Multiplicity = 1
  Basis Set: CC-PVTZ
  Basis Set:

    Orbital Energies (a.u.)
    -----------------------

    Doubly Occupied:

       1A    -20.543727     2A    -11.274013     3A    -11.213009
       4A    -11.208651     5A     -1.364490     6A     -1.043032
       7A     -0.941769     8A     -0.820398     9A     -0.663461
      10A     -0.645969    11A     -0.603713    12A     -0.575577
      13A     -0.545014    14A     -0.517707    15A     -0.511215
      16A     -0.467045    17A     -0.433700

  @DF-RHF Final Energy:  -193.19540135407050

   => Energetics <=

    Nuclear Repulsion Energy =            135.5994846568003709
    One-Electron Energy =                -530.8447901831473246
    Two-Electron Energy =                 202.0499041722764844
    DFT Exchange-Correlation Energy =       0.0000000000000000
    Empirical Dispersion Energy =           0.0000000000000000
    PCM Polarization Energy =               0.0000000000000000
    EFP Energy =                            0.0000000000000000
    Total Energy =                       -193.1954013540704693
    Molecular point group: c1
  Basis Set: CC-PVTZ
  Basis Set:

  -Total Gradient:
     Atom            X                  Y                   Z
    ------   -----------------  -----------------  -----------------
       1        0.000967790498    -0.000049685919     0.000216418924
       2       -0.001336490022    -0.000037213669    -0.000390591592
       3        0.000713015488     0.000106759245     0.000695043331
       4       -0.000318262643    -0.000098952221    -0.000530006367
       5       -0.000084348165     0.000005361450    -0.000021676511
       6        0.000030871581     0.000031984866    -0.000047355609
       7       -0.000005068487     0.000011319747     0.000043448255
       8        0.000033852774     0.000001156348     0.000005483308
       9       -0.000021842034    -0.000001162013     0.000016387678
      10        0.000009083793     0.000004177650     0.000010005577
      11       -0.000012406061     0.000009035715     0.000002629900
      12        0.000023803278     0.000017218800     0.000000213105

  **** Optimization is complete! (in 4 steps) ****
    Final optimized geometry and variables:
    Molecular point group: c1

    Geometry (in Angstrom), charge = 0, multiplicity = 1:

    H            0.286444746030     1.335479635774    -1.026936308579
    O            0.099003526921     1.329666702046    -0.105166913770
    C            0.001908795103     0.003648197990     0.356536224023
    C            1.199664825693    -0.821217873611    -0.089183389091
    C           -1.320670013614    -0.619666157474    -0.065903006130
    H            0.017676816365     0.086170566972     1.436400014712
    H            1.220719824804    -0.915194247901    -1.171818868675
    H            2.122385791581    -0.352145134169     0.228940160840
    H            1.160286132484    -1.820667277669     0.328087780549
    H           -1.375080117500    -0.711672524580    -1.146862398996
    H           -2.147005671326    -0.002179361252     0.262028568178
    H           -1.438624993640    -1.609646291264     0.360607691346

  Mulliken Charges: (a.u.)
   Center  Symbol    Alpha    Beta     Spin     Total
       1     H     0.39440  0.39440  0.00000  0.21119
       2     O     4.20955  4.20955  0.00000 -0.41910
       3     C     2.92713  2.92713  0.00000  0.14574
       4     C     3.14902  3.14902  0.00000 -0.29804
       5     C     3.14347  3.14347  0.00000 -0.28694
       6     H     0.45138  0.45138  0.00000  0.09725
       7     H     0.46166  0.46166  0.00000  0.07669
       8     H     0.44429  0.44429  0.00000  0.11143
       9     H     0.45492  0.45492  0.00000  0.09016
      10     H     0.46137  0.46137  0.00000  0.07725
      11     H     0.44536  0.44536  0.00000  0.10929
      12     H     0.45746  0.45746  0.00000  0.08508

   Total alpha = 17.00000, Total beta = 17.00000, Total charge = -0.00000
