  ==> Input File <==

--------------------------------------------------------------------------
set {
	reference rhf
	basis cc-pvtz
}

set_num_threads( 4 )
memory 2 gb

molecule MOL {
0 1

H	 0.101018	 -0.062709	 0.297884
N	 -0.625934	 -0.663929	 -0.000707
C	 -1.978635	 -0.158664	 0.001017
C	 -0.295573	 -1.915197	 -0.390285
H	 -2.519057	 -0.493535	 -0.876362
H	 -1.938890	 0.917202	 -0.004137
H	 -2.514266	 -0.485137	 0.884506
C	 1.182472	 -2.229024	 -0.314681
O	 -1.096582	 -2.716391	 -0.771793
H	 1.539394	 -2.125762	 0.703426
H	 1.342910	 -3.240249	 -0.650465
H	 1.747233	 -1.547024	 -0.939613

	symmetry c1
}
set optking {
	frozen_dihedral = ("
		4 2 3 5
	")
}

ee = optimize('scf')
oeprop('DIPOLE', 'QUADRUPOLE', 'MULLIKEN_CHARGES')
f=open( 'psi4out.xyz', 'w' )
f.write( "12  " )
f.write( str(ee) + "\n" )
f.write( MOL.save_string_xyz() )
f.close()
--------------------------------------------------------------------------

    Molecular point group: c1
  Charge       = 0
  Multiplicity = 1
  Basis Set: CC-PVTZ
  Basis Set:
  @DF-RHF Final Energy:  -247.10094419519234
    Total Energy =                       -247.1009441951923691
    Molecular point group: c1
  Basis Set: CC-PVTZ
  Basis Set:
  Basis Set: CC-PVTZ
  Basis Set:
  @DF-RHF Final Energy:  -247.10112925362978
    Total Energy =                       -247.1011292536297788
  Basis Set: CC-PVTZ
  Basis Set:
  Basis Set: CC-PVTZ
  Basis Set:
  @DF-RHF Final Energy:  -247.10092879696742
    Total Energy =                       -247.1009287969672528
  Basis Set: CC-PVTZ
  Basis Set:
  Basis Set: CC-PVTZ
  Basis Set:
  @DF-RHF Final Energy:  -247.10119308836542
    Total Energy =                       -247.1011930883652781
  Basis Set: CC-PVTZ
  Basis Set:
  @DF-RHF Final Energy:  -247.10120444836542
    Total Energy =                       -247.1012044483653654
  @DF-RHF Final Energy:  -247.10123390869634
    Total Energy =                       -247.1012339086965426
  @DF-RHF Final Energy:  -247.10123845802846
    Total Energy =                       -247.1012384580285470
  @DF-RHF Final Energy:  -247.10124130478914
    Total Energy =                       -247.1012413047892551
  @DF-RHF Final Energy:  -247.10124532476874
    Total Energy =                       -247.1012453247687972
  @DF-RHF Final Energy:  -247.10125753274730
    Total Energy =                       -247.1012575327474678
  @DF-RHF Final Energy:  -247.09950451945093
    Total Energy =                       -247.0995045194509885
  @DF-RHF Final Energy:  -247.10126597935277
    Total Energy =                       -247.1012659793527746
  @DF-RHF Final Energy:  -247.10129836752992
    Total Energy =                       -247.1012983675298642
  @DF-RHF Final Energy:  -247.10137505435472
    Total Energy =                       -247.1013750543546053
  @DF-RHF Final Energy:  -247.10135935438248
    Total Energy =                       -247.1013593543824527
  Basis Set: CC-PVTZ
  Basis Set:
  @DF-RHF Final Energy:  -247.10140823408076
    Total Energy =                       -247.1014082340807363
  Basis Set: CC-PVTZ
  Basis Set:
  Basis Set: CC-PVTZ
  Basis Set:
  @DF-RHF Final Energy:  -247.10141670338479
    Total Energy =                       -247.1014167033848707
  Basis Set: CC-PVTZ
  Basis Set:
  Basis Set: CC-PVTZ
  Basis Set:
  @DF-RHF Final Energy:  -247.10141816033425
    Total Energy =                       -247.1014181603342195
  Basis Set: CC-PVTZ
  Basis Set:
  Charge       = 0
  Multiplicity = 1
  Basis Set: CC-PVTZ
  Basis Set:

    Orbital Energies (a.u.)
    -----------------------

    Doubly Occupied:

       1A    -20.504394     2A    -15.576918     3A    -11.335753
       4A    -11.253863     5A    -11.228441     6A     -1.387590
       7A     -1.231758     8A     -1.016030     9A     -0.934236
      10A     -0.790065    11A     -0.690839    12A     -0.652063
      13A     -0.635684    14A     -0.585830    15A     -0.583034
      16A     -0.555601    17A     -0.548064    18A     -0.506003
      19A     -0.416890    20A     -0.390841

  @DF-RHF Final Energy:  -247.10141831808326

   => Energetics <=

    Nuclear Repulsion Energy =            181.8325868454200815
    One-Electron Energy =                -696.2202217286119321
    Two-Electron Energy =                 267.2862165651085888
    DFT Exchange-Correlation Energy =       0.0000000000000000
    Empirical Dispersion Energy =           0.0000000000000000
    PCM Polarization Energy =               0.0000000000000000
    EFP Energy =                            0.0000000000000000
    Total Energy =                       -247.1014183180832333
    Molecular point group: c1
  Basis Set: CC-PVTZ
  Basis Set:

  -Total Gradient:
     Atom            X                  Y                   Z
    ------   -----------------  -----------------  -----------------
       1        0.000003031988    -0.000002445894    -0.000000743642
       2        0.000006384486    -0.000090012006     0.000335113933
       3        0.000045592277     0.000198922264    -0.000298680455
       4        0.000016865660     0.000105414205    -0.000185712924
       5       -0.000053152398    -0.000159214867     0.000147251094
       6        0.000012849055    -0.000013958940     0.000005026633
       7        0.000004073233     0.000001830150     0.000005542664
       8       -0.000011571930     0.000020003440    -0.000005663181
       9       -0.000024736921    -0.000042804339    -0.000007914958
      10       -0.000003985663    -0.000006418086     0.000001254846
      11       -0.000004947897    -0.000005920835     0.000005244855
      12        0.000009598108    -0.000005395095    -0.000000718867

  **** Optimization is complete! (in 19 steps) ****
    Final optimized geometry and variables:
    Molecular point group: c1

    Geometry (in Angstrom), charge = 0, multiplicity = 1:

    H            0.689674630996     1.557607719553     0.305406560523
    N           -0.036933768295     0.916418442534     0.110342921988
    C           -1.405284232036     1.369338806804     0.208231860715
    C            0.278743833212    -0.383015081588    -0.065832502263
    H           -2.014225928320     0.833025331677    -0.501949188342
    H           -1.444583165710     2.425817156314    -0.018169146919
    H           -1.816972865735     1.207465452719     1.198006884768
    C            1.754598282073    -0.711185115604    -0.056853226284
    O           -0.548997730677    -1.233873275818    -0.213703559008
    H            1.988753470480    -1.206264795242     0.877530640853
    H            1.957407705725    -1.404102070253    -0.860040435309
    H            2.387931630374     0.159848370397    -0.160881101269

  Mulliken Charges: (a.u.)
   Center  Symbol    Alpha    Beta     Spin     Total
       1     H     0.41083  0.41083  0.00000  0.17835
       2     N     3.61401  3.61401  0.00000 -0.22801
       3     C     3.07850  3.07850  0.00000 -0.15701
       4     C     2.84246  2.84246  0.00000  0.31508
       5     H     0.43816  0.43816  0.00000  0.12368
       6     H     0.45538  0.45538  0.00000  0.08924
       7     H     0.45663  0.45663  0.00000  0.08674
       8     C     3.14402  3.14402  0.00000 -0.28804
       9     O     4.22033  4.22033  0.00000 -0.44065
      10     H     0.44338  0.44338  0.00000  0.11325
      11     H     0.43788  0.43788  0.00000  0.12425
      12     H     0.45843  0.45843  0.00000  0.08313

   Total alpha = 20.00000, Total beta = 20.00000, Total charge = -0.00000
