  ==> Input File <==

--------------------------------------------------------------------------
set {
	reference rhf
	basis 6-31G*
}

set_num_threads( 4 )
memory 2 gb

molecule MOL {
0 1

H	 -1.044807	 -0.571929	 -0.345257
C	 -0.790252	 0.431209	 0.000000
N	 0.538815	 0.649616	 0.000000
O	 -1.627647	 1.217290	 0.331746
C	 1.521968	 -0.411503	 0.000000
H	 0.852804	 1.592852	 0.000000
H	 2.150599	 -0.357004	 -0.881901
H	 0.999455	 -1.354525	 0.000000
H	 2.150599	 -0.357004	 0.881901

	symmetry c1
}
set optking {
	frozen_dihedral = ("
		1 2 3 6
	")
}

ee = optimize('scf')
oeprop('DIPOLE', 'QUADRUPOLE', 'MULLIKEN_CHARGES')
f=open( 'psi4out.xyz', 'w' )
f.write( "9  " )
f.write( str(ee) + "\n" )
f.write( MOL.save_string_xyz() )
f.close()
--------------------------------------------------------------------------

    Molecular point group: c1
  Charge       = 0
  Multiplicity = 1
  Basis Set: 6-31G*
  Basis Set:
  @DF-RHF Final Energy:  -207.95470162985509
    Total Energy =                       -207.9547016298551227
    Molecular point group: c1
  Basis Set: 6-31G*
  Basis Set:
  Basis Set: 6-31G*
  Basis Set:
  @DF-RHF Final Energy:  -207.95416472282002
    Total Energy =                       -207.9541647228199395
  Basis Set: 6-31G*
  Basis Set:
  Basis Set: 6-31G*
  Basis Set:
  @DF-RHF Final Energy:  -207.95694185604347
    Total Energy =                       -207.9569418560435281
  Basis Set: 6-31G*
  Basis Set:
  Basis Set: 6-31G*
  Basis Set:
  @DF-RHF Final Energy:  -207.95746547510640
    Total Energy =                       -207.9574654751064884
  Basis Set: 6-31G*
  Basis Set:
  @DF-RHF Final Energy:  -207.95756831734809
    Total Energy =                       -207.9575683173480911
  @DF-RHF Final Energy:  -207.95763077626148
    Total Energy =                       -207.9576307762613396
  @DF-RHF Final Energy:  -207.95764682815522
    Total Energy =                       -207.9576468281552479
  @DF-RHF Final Energy:  -207.95768515847379
    Total Energy =                       -207.9576851584738790
  @DF-RHF Final Energy:  -207.95775125472662
    Total Energy =                       -207.9577512547266451
  @DF-RHF Final Energy:  -207.95775732141186
    Total Energy =                       -207.9577573214118047
  @DF-RHF Final Energy:  -207.95775735901907
    Total Energy =                       -207.9577573590191264
  @DF-RHF Final Energy:  -207.95775724830986
    Total Energy =                       -207.9577572483098038
  @DF-RHF Final Energy:  -207.95775751521865
    Total Energy =                       -207.9577575152185887
  @DF-RHF Final Energy:  -207.95775757023478
    Total Energy =                       -207.9577575702347474
  @DF-RHF Final Energy:  -207.95775757601319
    Total Energy =                       -207.9577575760132504
  @DF-RHF Final Energy:  -207.95775756730967
    Total Energy =                       -207.9577575673096419
  @DF-RHF Final Energy:  -207.95775753605727
    Total Energy =                       -207.9577575360573292
  @DF-RHF Final Energy:  -207.95775746075455
    Total Energy =                       -207.9577574607545216
  @DF-RHF Final Energy:  -207.95775741895187
    Total Energy =                       -207.9577574189518145
  @DF-RHF Final Energy:  -207.95775745780583
    Total Energy =                       -207.9577574578058261
  @DF-RHF Final Energy:  -207.95775728622118
    Total Energy =                       -207.9577572862211241
  @DF-RHF Final Energy:  -207.95775729993434
    Total Energy =                       -207.9577572999343431
  @DF-RHF Final Energy:  -207.95775728844978
    Total Energy =                       -207.9577572884497556
  @DF-RHF Final Energy:  -207.95775729153587
    Total Energy =                       -207.9577572915359269
  @DF-RHF Final Energy:  -207.95775729374083
    Total Energy =                       -207.9577572937407695
  @DF-RHF Final Energy:  -207.95775728846735
    Total Energy =                       -207.9577572884673202
  @DF-RHF Final Energy:  -207.95775569728687
    Total Energy =                       -207.9577556972868706
  @DF-RHF Final Energy:  -207.95775728532084
    Total Energy =                       -207.9577572853208380
  @DF-RHF Final Energy:  -207.95775727377327
    Total Energy =                       -207.9577572737731543
  @DF-RHF Final Energy:  -207.95775724849452
    Total Energy =                       -207.9577572484944596
  @DF-RHF Final Energy:  -207.95775706159236
    Total Energy =                       -207.9577570615924174
  @DF-RHF Final Energy:  -207.95775705724179
    Total Energy =                       -207.9577570572417073
  @DF-RHF Final Energy:  -207.95775719154386
    Total Energy =                       -207.9577571915438625
  @DF-RHF Final Energy:  -207.95775715889471
    Total Energy =                       -207.9577571588946512
  @DF-RHF Final Energy:  -207.95775696798387
    Total Energy =                       -207.9577569679838689
  @DF-RHF Final Energy:  -207.95775723824045
    Total Energy =                       -207.9577572382405322
  Basis Set: 6-31G*
  Basis Set:
  @DF-RHF Final Energy:  -207.95775725368608
    Total Energy =                       -207.9577572536859975
  Basis Set: 6-31G*
  Basis Set:
  Basis Set: 6-31G*
  Basis Set:
  @DF-RHF Final Energy:  -207.95775725468840
    Total Energy =                       -207.9577572546883175
  Basis Set: 6-31G*
  Basis Set:
  Basis Set: 6-31G*
  Basis Set:
  @DF-RHF Final Energy:  -207.95775725408899
    Total Energy =                       -207.9577572540889321
  Basis Set: 6-31G*
  Basis Set:
  Charge       = 0
  Multiplicity = 1
  Basis Set: 6-31G*
  Basis Set:

    Orbital Energies (a.u.)
    -----------------------

    Doubly Occupied:

       1A    -20.529208     2A    -15.589212     3A    -11.345948
       4A    -11.275485     5A     -1.392217     6A     -1.239793
       7A     -0.964162     8A     -0.844995     9A     -0.691322
      10A     -0.676229    11A     -0.634361    12A     -0.591943
      13A     -0.570293    14A     -0.543670    15A     -0.426768
      16A     -0.392124

  @DF-RHF Final Energy:  -207.95775725201568

   => Energetics <=

    Nuclear Repulsion Energy =            120.3543388771439311
    One-Electron Energy =                -521.2087375833635861
    Two-Electron Energy =                 192.8966414542040297
    DFT Exchange-Correlation Energy =       0.0000000000000000
    Empirical Dispersion Energy =           0.0000000000000000
    PCM Polarization Energy =               0.0000000000000000
    EFP Energy =                            0.0000000000000000
    Total Energy =                       -207.9577572520155968
    Molecular point group: c1
  Basis Set: 6-31G*
  Basis Set:

  -Total Gradient:
     Atom            X                  Y                   Z
    ------   -----------------  -----------------  -----------------
       1        0.000773913605     0.001433280717    -0.005239154207
       2       -0.000683118013    -0.002034897191     0.005489164616
       3       -0.001133834502     0.001467668254     0.004764701917
       4       -0.000117187614    -0.000020168896     0.000006234185
       5        0.000143472340    -0.000123655510     0.000480680594
       6        0.001031944862    -0.000523252349    -0.005382501957
       7        0.000036589683    -0.000048833213    -0.000116807205
       8       -0.000048989686    -0.000122493585    -0.000022195689
       9       -0.000002790670    -0.000027648228     0.000019877745

    Molecular point group: c1

    Geometry (in Angstrom), charge = 0, multiplicity = 1:

    H           -0.964486169808    -1.067258062222    -0.367921009887
    C           -0.714742931636    -0.046425903635    -0.073624166610
    N            0.604546303488     0.129223091113     0.175127735237
    O           -1.539205848113     0.814458497067    -0.018065781765
    C            1.598035450692    -0.895222229051    -0.059757627082
    H            0.908953930114     1.078451406765     0.136137408679
    H            2.047888876993    -0.824080854602    -1.046247623097
    H            1.137400746061    -1.870192400921     0.035594189976
    H            2.381565604275    -0.826395369900     0.684022172882

  Mulliken Charges: (a.u.)
   Center  Symbol    Alpha    Beta     Spin     Total
       1     H     0.43062  0.43062  0.00000  0.13875
       2     C     2.74260  2.74260  0.00000  0.51479
       3     N     3.86615  3.86615  0.00000 -0.73230
       4     O     4.28015  4.28015  0.00000 -0.56031
       5     C     3.14605  3.14605  0.00000 -0.29210
       6     H     0.30605  0.30605  0.00000  0.38790
       7     H     0.41398  0.41398  0.00000  0.17204
       8     H     0.40857  0.40857  0.00000  0.18287
       9     H     0.40583  0.40583  0.00000  0.18835

   Total alpha = 16.00000, Total beta = 16.00000, Total charge = -0.00000
