                              Psi4 1.0.54 Driver

  ==> Input File <==

--------------------------------------------------------------------------
set {
	reference rhf
	basis cc-pvtz
}

set_num_threads( 4 )
memory 2 gb

molecule MOL {
0 1

O	 0.695657	 2.127379	 0.142151
C	 -0.391211	 2.516231	 0.404016
C	 -1.645977	 1.681430	 0.392466
O	 -0.649252	 3.766993	 0.749540
C	 -1.413045	 0.229353	 0.001137
H	 -2.089908	 1.756057	 1.379804
H	 -2.345503	 2.163140	 -0.282872
C	 -2.702562	 -0.586401	 0.000228
H	 -0.697718	 -0.215236	 0.683917
H	 -0.954193	 0.192120	 -0.980501
C	 -3.953810	 0.284959	 -0.000782
H	 -2.717793	 -1.238567	 -0.869075
H	 -2.719108	 -1.238472	 0.869576
H	 -3.983727	 0.924403	 -0.876454
H	 -4.852989	 -0.320147	 -0.001515
H	 -3.985140	 0.924399	 0.874841
C	 0.441562	 4.664066	 0.801518
H	 1.173285	 4.333252	 1.523578
H	 0.030547	 5.615573	 1.097439
H	 0.913803	 4.746677	 -0.166154

	symmetry c1
}
set optking {
	frozen_dihedral = ("
		9 5 8 12
	")
}

ee,wfn = optimize('scf', return_wfn=True)
oeprop( wfn, 'DIPOLE', 'QUADRUPOLE', 'MULLIKEN_CHARGES')
f=open( 'psi4out.xyz', 'w' )
f.write( "20  " )
f.write( str(ee) + "\n" )
f.write( MOL.save_string_xyz() )
f.close()
--------------------------------------------------------------------------

    Molecular point group: c1
  Charge       = 0
  Multiplicity = 1
  Basis Set: CC-PVTZ
  Basis Set:
  @DF-RHF Final Energy:  -384.07040613000191
    Total Energy =                       -384.0704061300017429
    Molecular point group: c1
  Basis Set: CC-PVTZ
  Basis Set:
  Basis Set: CC-PVTZ
  Basis Set:
  @DF-RHF Final Energy:  -383.91575896248543
    Total Energy =                       -383.9157589624855973
  Basis Set: CC-PVTZ
  Basis Set:
  Basis Set: CC-PVTZ
  Basis Set:
  @DF-RHF Final Energy:  -384.02839138548410
    Total Energy =                       -384.0283913854841558
  Basis Set: CC-PVTZ
  Basis Set:
  Basis Set: CC-PVTZ
  Basis Set:
  @DF-RHF Final Energy:  -384.07129768618262
    Total Energy =                       -384.0712976861824473
  Basis Set: CC-PVTZ
  Basis Set:
  @DF-RHF Final Energy:  -384.07416164558526
    Total Energy =                       -384.0741616455850362
  @DF-RHF Final Energy:  -384.07442952502896
    Total Energy =                       -384.0744295250289042
  @DF-RHF Final Energy:  -384.07436922415201
    Total Energy =                       -384.0743692241521785
  Basis Set: CC-PVTZ
  Basis Set:
  @DF-RHF Final Energy:  -384.07447522674175
    Total Energy =                       -384.0744752267415834
  Basis Set: CC-PVTZ
  Basis Set:
  Basis Set: CC-PVTZ
  Basis Set:
  @DF-RHF Final Energy:  -384.07447791750656
    Total Energy =                       -384.0744779175065560
  Basis Set: CC-PVTZ
  Basis Set:
  Basis Set: CC-PVTZ
  Basis Set:
  @DF-RHF Final Energy:  -384.07447922891754
    Total Energy =                       -384.0744792289173120
  Basis Set: CC-PVTZ
  Basis Set:
  Charge       = 0
  Multiplicity = 1
  Basis Set: CC-PVTZ
  Basis Set:

    Orbital Energies (a.u.)
    -----------------------

    Doubly Occupied:

       1A    -20.595923     2A    -20.533916     3A    -11.364211
       4A    -11.278263     5A    -11.233037     6A    -11.218877
       7A    -11.217694     8A    -11.211434     9A     -1.471876
      10A     -1.365479    11A     -1.086839    12A     -1.022119
      13A     -0.968192    14A     -0.898218    15A     -0.799161
      16A     -0.762256    17A     -0.702991    18A     -0.686449
      19A     -0.674501    20A     -0.644704    21A     -0.607005
      22A     -0.592701    23A     -0.566478    24A     -0.547397
      25A     -0.542300    26A     -0.523485    27A     -0.515997
      28A     -0.473444    29A     -0.469758    30A     -0.464144
      31A     -0.455866    32A     -0.440891

  @DF-RHF Final Energy:  -384.07448008131848

   => Energetics <=

    Nuclear Repulsion Energy =            386.1828947664459974
    One-Electron Energy =               -1288.6435439521164881
    Two-Electron Energy =                 518.3861691043520068
    DFT Exchange-Correlation Energy =       0.0000000000000000
    Empirical Dispersion Energy =           0.0000000000000000
    PCM Polarization Energy =               0.0000000000000000
    EFP Energy =                            0.0000000000000000
    Total Energy =                       -384.0744800813184838
    Molecular point group: c1
  Basis Set: CC-PVTZ
  Basis Set:

  -Total Gradient:
     Atom            X                  Y                   Z
    ------   -----------------  -----------------  -----------------
       1        0.000031507910    -0.000000170444    -0.000024587982
       2        0.000002402664     0.000022749083     0.000031209279
       3        0.000022574974    -0.000008378213     0.000082371663
       4       -0.000048523868    -0.000021136953    -0.000005554579
       5        0.003880079270    -0.001673804294    -0.004967210939
       6        0.000011947627     0.000006201138    -0.000035860467
       7        0.000002764919     0.000001785668    -0.000028243356
       8        0.001799578174    -0.004188756277     0.004439148422
       9       -0.003515993628     0.002098670453     0.003518467472
      10       -0.000011848406     0.000003998208     0.000037962299
      11        0.000045979455    -0.000083555173     0.000016859387
      12       -0.002214364207     0.003836016035    -0.003026692212
      13       -0.000021821357     0.000001760793    -0.000018461105
      14        0.000013477219     0.000008718261    -0.000006440817
      15       -0.000031271040    -0.000006635546    -0.000017216871
      16        0.000000537626    -0.000009226798    -0.000000114605
      17        0.000047355003     0.000013579776     0.000003694495
      18        0.000011530509    -0.000013056752     0.000012147784
      19       -0.000027667889     0.000012359263    -0.000004340353
      20        0.000001755045    -0.000001118226    -0.000007137513

  **** Optimization is complete! (in 11 steps) ****
    Final optimized geometry and variables:
    Molecular point group: c1

    Geometry (in Angstrom), charge = 0, multiplicity = 1:

    O            1.800296937957     0.472471675482     0.432244345839
    C            0.642539068738     0.718829780301     0.429469715608
    C           -0.449490348033    -0.188317891219    -0.079239761928
    O            0.144393474039     1.857339933552     0.884666639132
    C            0.080058789940    -1.521036474147    -0.602403143877
    H           -1.148147520600    -0.328254099083     0.738200160044
    H           -0.988112764400     0.366461847107    -0.837673880757
    C           -0.996921206232    -2.515609089386    -1.098394582313
    H            0.625377131820    -1.974533752571     0.215139404794
    H            0.797435388077    -1.322870280401    -1.387125273617
    C           -2.356782062835    -1.925772508243    -1.478204728041
    H           -0.617296316016    -3.002808426363    -1.989420466863
    H           -1.150490974731    -3.287215994714    -0.353145659033
    H           -2.265651952475    -1.179943843662    -2.260529368147
    H           -3.006275061231    -2.708804660402    -1.852145218608
    H           -2.858002323295    -1.464083504271    -0.636080874245
    C            1.058116720493     2.808358410064     1.392311270464
    H            1.604841636040     2.402498465709     2.230576189725
    H            0.465367632423     3.651650803675     1.707749059483
    H            1.758618479934     3.110236379163     0.627820714391

  Mulliken Charges: (a.u.)
   Center  Symbol    Alpha    Beta     Spin     Total
       1     O     4.19669  4.19669  0.00000 -0.39337
       2     C     2.81216  2.81216  0.00000  0.37568
       3     C     3.09823  3.09823  0.00000 -0.19646
       4     O     4.14645  4.14645  0.00000 -0.29291
       5     C     3.09155  3.09155  0.00000 -0.18309
       6     H     0.43903  0.43903  0.00000  0.12195
       7     H     0.43793  0.43793  0.00000  0.12415
       8     C     3.08964  3.08964  0.00000 -0.17927
       9     H     0.44390  0.44390  0.00000  0.11220
      10     H     0.44338  0.44338  0.00000  0.11323
      11     C     3.15936  3.15936  0.00000 -0.31873
      12     H     0.44946  0.44946  0.00000  0.10108
      13     H     0.44985  0.44985  0.00000  0.10029
      14     H     0.45341  0.45341  0.00000  0.09317
      15     H     0.44328  0.44328  0.00000  0.11345
      16     H     0.45346  0.45346  0.00000  0.09308
      17     C     3.03831  3.03831  0.00000 -0.07662
      18     H     0.45433  0.45433  0.00000  0.09134
      19     H     0.44520  0.44520  0.00000  0.10959
      20     H     0.45438  0.45438  0.00000  0.09124

   Total alpha = 32.00000, Total beta = 32.00000, Total charge = -0.00000

*** Psi4 exiting successfully. Buy a developer a beer!
