                              Psi4 1.0.54 Driver

  ==> Input File <==

--------------------------------------------------------------------------
set {
	reference rhf
	basis cc-pvtz
}

set_num_threads( 4 )
memory 2 gb

molecule MOL {
0 1

O	 2.868453	 1.353349	 -0.000734
C	 2.841259	 0.166180	 -0.000295
C	 1.542794	 -0.614730	 -0.000853
C	 4.113372	 -0.651103	 0.000743
C	 0.288398	 0.247429	 0.000314
H	 1.557171	 -1.273139	 -0.866508
H	 1.557484	 -1.274998	 0.863344
C	 -0.993089	 -0.581367	 -0.000217
H	 0.305153	 0.900562	 -0.864701
H	 0.305567	 0.898805	 0.866656
C	 -2.258482	 0.271340	 0.000669
H	 -1.002280	 -1.233920	 -0.870484
H	 -1.002061	 -1.235367	 0.868958
C	 -2.202193	 1.442600	 -0.975915
H	 -2.434685	 0.650046	 1.004485
H	 -3.113302	 -0.355651	 -0.240771
C	 -3.470119	 2.290014	 -0.969257
H	 -1.348718	 2.070521	 -0.734597
H	 -2.027369	 1.064903	 -1.979758
H	 -3.654120	 2.711010	 0.013569
H	 -3.397443	 3.111818	 -1.672377
H	 -4.337728	 1.698040	 -1.241039
H	 4.145311	 -1.294584	 -0.871587
H	 4.970080	 0.004978	 -0.000091
H	 4.145223	 -1.291980	 0.874988

	symmetry c1
}
set optking {
	frozen_dihedral = ("
		15 11 8 12
	")
}

ee,wfn = optimize('scf', return_wfn=True)
oeprop( wfn, 'DIPOLE', 'QUADRUPOLE', 'MULLIKEN_CHARGES')
f=open( 'psi4out.xyz', 'w' )
f.write( "25  " )
f.write( str(ee) + "\n" )
f.write( MOL.save_string_xyz() )
f.close()
--------------------------------------------------------------------------

    Molecular point group: c1
  Charge       = 0
  Multiplicity = 1
  Basis Set: CC-PVTZ
  Basis Set:
  @DF-RHF Final Energy:  -387.26956976532620
    Total Energy =                       -387.2695697653264233
    Molecular point group: c1
  Basis Set: CC-PVTZ
  Basis Set:
  Basis Set: CC-PVTZ
  Basis Set:
  @DF-RHF Final Energy:  -387.26935048182179
    Total Energy =                       -387.2693504818217889
  Basis Set: CC-PVTZ
  Basis Set:
  Basis Set: CC-PVTZ
  Basis Set:
  @DF-RHF Final Energy:  -387.27152253994325
    Total Energy =                       -387.2715225399430210
  Basis Set: CC-PVTZ
  Basis Set:
  Basis Set: CC-PVTZ
  Basis Set:
  @DF-RHF Final Energy:  -387.27167063615656
    Total Energy =                       -387.2716706361567276
  Basis Set: CC-PVTZ
  Basis Set:
  Basis Set: CC-PVTZ
  Basis Set:
  @DF-RHF Final Energy:  -387.27040110491896
    Total Energy =                       -387.2704011049194150
  Basis Set: CC-PVTZ
  Basis Set:
  Basis Set: CC-PVTZ
  Basis Set:
  @DF-RHF Final Energy:  -387.27166628339563
    Total Energy =                       -387.2716662833958026
  Basis Set: CC-PVTZ
  Basis Set:
  Basis Set: CC-PVTZ
  Basis Set:
  @DF-RHF Final Energy:  -387.27169838603123
    Total Energy =                       -387.2716983860311757
  Basis Set: CC-PVTZ
  Basis Set:
  Charge       = 0
  Multiplicity = 1
  Basis Set: CC-PVTZ
  Basis Set:

    Orbital Energies (a.u.)
    -----------------------

    Doubly Occupied:

       1A    -20.538956     2A    -11.320549     3A    -11.230146
       4A    -11.226588     5A    -11.215480     6A    -11.214470
       7A    -11.212073     8A    -11.211201     9A    -11.205120
      10A     -1.398999    11A     -1.094652    12A     -1.055770
      13A     -1.014208    14A     -0.970020    15A     -0.889875
      16A     -0.832791    17A     -0.773244    18A     -0.732126
      19A     -0.658210    20A     -0.652392    21A     -0.634926
      22A     -0.624182    23A     -0.599766    24A     -0.581663
      25A     -0.571385    26A     -0.561993    27A     -0.549939
      28A     -0.519164    29A     -0.503750    30A     -0.500306
      31A     -0.492098    32A     -0.480073    33A     -0.459472
      34A     -0.455739    35A     -0.448714    36A     -0.401926

  @DF-RHF Final Energy:  -387.27169873427960

   => Energetics <=

    Nuclear Repulsion Energy =            445.9763373964747757
    One-Electron Energy =               -1408.8321340930492624
    Two-Electron Energy =                 575.5840979622948907
    DFT Exchange-Correlation Energy =       0.0000000000000000
    Empirical Dispersion Energy =           0.0000000000000000
    PCM Polarization Energy =               0.0000000000000000
    EFP Energy =                            0.0000000000000000
    Total Energy =                       -387.2716987342796529
    Molecular point group: c1
  Basis Set: CC-PVTZ
  Basis Set:

  -Total Gradient:
     Atom            X                  Y                   Z
    ------   -----------------  -----------------  -----------------
       1        0.000006671543    -0.000072442818    -0.000016924588
       2        0.000037336089     0.000016608835     0.000044431333
       3        0.000020457351     0.000031905472    -0.000032932878
       4       -0.000005150762     0.000000973050     0.000018808168
       5        0.000014964595     0.000010828232     0.000059087980
       6       -0.000003445502    -0.000012632570     0.000001133438
       7       -0.000003812751     0.000009910106    -0.000003836486
       8        0.001585787642     0.002692041568    -0.002366658295
       9        0.000006011835    -0.000019006663     0.000012136852
      10        0.000020339595     0.000006127928    -0.000001538128
      11        0.002092352364     0.003279924427    -0.000527988347
      12       -0.001699432492    -0.002787809819     0.002071531682
      13       -0.000009620856     0.000011189747    -0.000014512694
      14       -0.000038573839    -0.000022032506    -0.000066300835
      15       -0.002012513115    -0.003196446644     0.000838408213
      16        0.000024416175     0.000018105599     0.000001564100
      17        0.000018969358     0.000012382483     0.000015722089
      18       -0.000039604762    -0.000018185924    -0.000003272283
      19       -0.000001013751     0.000006841459    -0.000014527593
      20       -0.000010507457    -0.000000712359     0.000001647313
      21        0.000010694196    -0.000017866542     0.000024660482
      22        0.000029122018     0.000010467452    -0.000007432174
      23       -0.000002941349     0.000019853665     0.000026606316
      24       -0.000036121104    -0.000010112234    -0.000000410328
      25       -0.000004385012     0.000030088059    -0.000059403339

  **** Optimization is complete! (in 8 steps) ****
    Final optimized geometry and variables:
    Molecular point group: c1

    Geometry (in Angstrom), charge = 0, multiplicity = 1:

    O            2.672258064906     0.853064751689     0.194528762108
    C            2.598906444228    -0.331790315562     0.222835655757
    C            1.271462926817    -1.062359964042     0.211138308407
    C            3.837940529136    -1.196885205844     0.272654554453
    C            0.051947583743    -0.152263058592     0.167310947218
    H            1.277675737504    -1.738335836506    -0.641110103695
    H            1.243205418071    -1.704930964026     1.088086681469
    C           -1.254042604815    -0.941701012392     0.142575345256
    H            0.126676135336     0.488908096648    -0.700976719052
    H            0.068586597622     0.505983782007     1.029354451511
    C           -2.533851204796    -0.104214993599     0.234122575336
    H           -1.298960790609    -1.571047420770    -0.743517770995
    H           -1.256935615876    -1.636678550372     0.979329900073
    C           -2.634924758486     1.067631677068    -0.738411509670
    H           -2.662955771413     0.245103215429     1.255755128593
    H           -3.375130241632    -0.770207356758     0.057747708738
    C           -3.991918370163     1.761738218334    -0.679981824985
    H           -1.857407773791     1.793568774574    -0.528744209146
    H           -2.456386901907     0.711412134154    -1.750091979333
    H           -4.190812117132     2.146766591839     0.314780733766
    H           -4.036154125529     2.595479919637    -1.371142084436
    H           -4.794397024349     1.077388698572    -0.934500442741
    H            3.863238634972    -1.863377987081    -0.582373880916
    H            4.719384279078    -0.574456901257     0.274458671979
    H            3.826130966868    -1.815626993600     1.163072629701

  Mulliken Charges: (a.u.)
   Center  Symbol    Alpha    Beta     Spin     Total
       1     O     4.17084  4.17084  0.00000 -0.34169
       2     C     2.86139  2.86139  0.00000  0.27722
       3     C     3.11532  3.11532  0.00000 -0.23064
       4     C     3.15147  3.15147  0.00000 -0.30294
       5     C     3.08579  3.08579  0.00000 -0.17157
       6     H     0.44526  0.44526  0.00000  0.10948
       7     H     0.44438  0.44438  0.00000  0.11123
       8     C     3.10029  3.10029  0.00000 -0.20057
       9     H     0.44263  0.44263  0.00000  0.11473
      10     H     0.44532  0.44532  0.00000  0.10937
      11     C     3.09312  3.09312  0.00000 -0.18624
      12     H     0.45314  0.45314  0.00000  0.09372
      13     H     0.45165  0.45165  0.00000  0.09671
      14     C     3.08903  3.08903  0.00000 -0.17805
      15     H     0.45241  0.45241  0.00000  0.09519
      16     H     0.45120  0.45120  0.00000  0.09760
      17     C     3.15053  3.15053  0.00000 -0.30106
      18     H     0.44795  0.44795  0.00000  0.10409
      19     H     0.45406  0.45406  0.00000  0.09188
      20     H     0.45501  0.45501  0.00000  0.08998
      21     H     0.44793  0.44793  0.00000  0.10414
      22     H     0.45518  0.45518  0.00000  0.08964
      23     H     0.45049  0.45049  0.00000  0.09902
      24     H     0.43536  0.43536  0.00000  0.12928
      25     H     0.45026  0.45026  0.00000  0.09947

   Total alpha = 36.00000, Total beta = 36.00000, Total charge = -0.00000

*** Psi4 exiting successfully. Buy a developer a beer!
