  ==> Input File <==

--------------------------------------------------------------------------
set {
	reference rhf
	basis 6-31G*
}

set_num_threads( 1 )
memory 2 gb

molecule MOL {
0 1

O	 2.338820	 0.399880	 -0.963030
C	 1.705091	 0.115954	 0.001797
C	 0.381791	 -0.609817	 0.001258
O	 2.093832	 0.405743	 1.237127
C	 -0.823008	 0.326187	 0.001381
H	 0.371250	 -1.265087	 -0.865474
H	 0.370908	 -1.265746	 0.867490
C	 -2.149452	 -0.435131	 -0.000098
H	 -0.770201	 0.977095	 -0.865636
H	 -0.771220	 0.975655	 0.869608
C	 -3.368779	 0.488503	 -0.000883
H	 -2.193746	 -1.087250	 -0.871175
H	 -2.195311	 -1.087803	 0.870418
C	 -4.693822	 -0.272754	 -0.001129
H	 -3.325798	 1.139422	 -0.871284
H	 -3.326423	 1.139959	 0.869145
H	 -4.781274	 -0.907928	 -0.878124
H	 -5.538651	 0.408946	 -0.001420
H	 -4.781694	 -0.907783	 0.875984
C	 3.326269	 1.088212	 1.379576
H	 4.135728	 0.500048	 0.971694
H	 3.464335	 1.229818	 2.440124
H	 3.292299	 2.043347	 0.875523

	symmetry c1
}
set optking {
	frozen_dihedral = ("
		15 11 8 12,
		9 5 8 12,
		9 5 3 6,
		1 2 4 20
	")
}

ee = energy('scf')
oeprop('DIPOLE', 'QUADRUPOLE', 'MULLIKEN_CHARGES')
f=open( 'psi4out.xyz', 'w' )
f.write( "23  " )
f.write( str(ee) + "\n" )
f.write( MOL.save_string_xyz() )
f.close()
--------------------------------------------------------------------------

    Molecular point group: c1

    Geometry (in Angstrom), charge = 0, multiplicity = 1:

       Center              X                  Y                   Z               Mass
    ------------   -----------------  -----------------  -----------------  -----------------
           O          2.436732979573     0.221499268750    -1.157399873952    15.994914619560
           C          1.803003979573    -0.062426731250    -0.192572873952    12.000000000000
           C          0.479703979573    -0.788197731250    -0.193111873952    12.000000000000
           O          2.191744979573     0.227362268750     1.042757126048    15.994914619560
           C         -0.725095020427     0.147806268750    -0.192988873952    12.000000000000
           H          0.469162979573    -1.443467731250    -1.059843873952     1.007825032070
           H          0.468820979573    -1.444126731250     0.673120126048     1.007825032070
           C         -2.051539020427    -0.613511731250    -0.194467873952    12.000000000000
           H         -0.672288020427     0.798714268750    -1.060005873952     1.007825032070
           H         -0.673307020427     0.797274268750     0.675238126048     1.007825032070
           C         -3.270866020427     0.310122268750    -0.195252873952    12.000000000000
           H         -2.095833020427    -1.265630731250    -1.065544873952     1.007825032070
           H         -2.097398020427    -1.266183731250     0.676048126048     1.007825032070
           C         -4.595909020427    -0.451134731250    -0.195498873952    12.000000000000
           H         -3.227885020427     0.961041268750    -1.065653873952     1.007825032070
           H         -3.228510020427     0.961578268750     0.674775126048     1.007825032070
           H         -4.683361020427    -1.086308731250    -1.072493873952     1.007825032070
           H         -5.440738020427     0.230565268750    -0.195789873952     1.007825032070
           H         -4.683781020427    -1.086163731250     0.681614126048     1.007825032070
           C          3.424181979573     0.909831268750     1.185206126048    12.000000000000
           H          4.233640979573     0.321667268750     0.777324126048     1.007825032070
           H          3.562247979573     1.051437268750     2.245754126048     1.007825032070
           H          3.390211979573     1.864966268750     0.681153126048     1.007825032070

  Charge       = 0
  Multiplicity = 1
  Basis Set: 6-31G*
  Basis Set:

    Orbital Energies (a.u.)
    -----------------------

    Doubly Occupied:

       1A    -20.603976     2A    -20.543400     3A    -11.370745
       4A    -11.280259     5A    -11.233287     6A    -11.229646
       7A    -11.222495     8A    -11.220225     9A    -11.212333
      10A     -1.468526    11A     -1.361195    12A     -1.097911
      13A     -1.045851    14A     -0.985639    15A     -0.934175
      16A     -0.848150    17A     -0.799486    18A     -0.772616
      19A     -0.693381    20A     -0.679596    21A     -0.672671
      22A     -0.653116    23A     -0.606049    24A     -0.595439
      25A     -0.580979    26A     -0.572057    27A     -0.538602
      28A     -0.536133    29A     -0.523813    30A     -0.507832
      31A     -0.490622    32A     -0.477240    33A     -0.470545
      34A     -0.467921    35A     -0.453435    36A     -0.427841

  @DF-RHF Final Energy:  -422.97426390366780

   => Energetics <=

    Nuclear Repulsion Energy =            453.7622196424546814
    One-Electron Energy =               -1475.1186724326009880
    Two-Electron Energy =                 598.3821888864772518
    DFT Exchange-Correlation Energy =       0.0000000000000000
    Empirical Dispersion Energy =           0.0000000000000000
    PCM Polarization Energy =               0.0000000000000000
    EFP Energy =                            0.0000000000000000
    Total Energy =                       -422.9742639036689980

  Mulliken Charges: (a.u.)
   Center  Symbol    Alpha    Beta     Spin     Total
       1     O     4.28465  4.28465  0.00000 -0.56929
       2     C     2.61784  2.61784  0.00000  0.76432
       3     C     3.19470  3.19470  0.00000 -0.38940
       4     O     4.30226  4.30226  0.00000 -0.60451
       5     C     3.16377  3.16377  0.00000 -0.32754
       6     H     0.40123  0.40123  0.00000  0.19755
       7     H     0.40436  0.40436  0.00000  0.19128
       8     C     3.15266  3.15266  0.00000 -0.30531
       9     H     0.40984  0.40984  0.00000  0.18032
      10     H     0.41188  0.41188  0.00000  0.17624
      11     C     3.15260  3.15260  0.00000 -0.30520
      12     H     0.42059  0.42059  0.00000  0.15881
      13     H     0.42140  0.42140  0.00000  0.15719
      14     C     3.23992  3.23992  0.00000 -0.47984
      15     H     0.42100  0.42100  0.00000  0.15799
      16     H     0.42178  0.42178  0.00000  0.15644
      17     H     0.42086  0.42086  0.00000  0.15828
      18     H     0.41801  0.41801  0.00000  0.16397
      19     H     0.42127  0.42127  0.00000  0.15746
      20     C     3.09266  3.09266  0.00000 -0.18532
      21     H     0.40873  0.40873  0.00000  0.18255
      22     H     0.40884  0.40884  0.00000  0.18233
      23     H     0.40916  0.40916  0.00000  0.18168

   Total alpha = 36.00000, Total beta = 36.00000, Total charge = -0.00000
