                              Psi4 1.0.54 Driver

  ==> Input File <==

--------------------------------------------------------------------------
set {
	reference rhf
	basis cc-pvtz
}

set_num_threads( 4 )
memory 2 gb

molecule MOL {
0 1

H	 1.445762	 -1.985603	 -0.948053
C	 0.606610	 -2.463672	 -0.425628
C	 -0.692331	 -1.708235	 -0.479160
O	 0.765594	 -3.496309	 0.127562
C	 -0.554654	 -0.292621	 0.086567
H	 -1.441537	 -2.275828	 0.056904
H	 -0.993294	 -1.651930	 -1.523252
C	 -1.846385	 0.513195	 -0.016346
H	 -0.248433	 -0.352310	 1.127050
H	 0.238953	 0.232855	 -0.438538
C	 -3.089953	 -0.365049	 -0.098564
H	 -1.798267	 1.154820	 -0.891143
H	 -1.925398	 1.173265	 0.842889
H	 -3.055079	 -1.012299	 -0.968245
H	 -3.988403	 0.236438	 -0.170014
H	 -3.183055	 -0.995885	 0.779079

	symmetry c1
}
set optking {
	frozen_dihedral = ("
		9 5 8 12
	")
}

ee,wfn = optimize('scf', return_wfn=True)
oeprop( wfn, 'DIPOLE', 'QUADRUPOLE', 'MULLIKEN_CHARGES')
f=open( 'psi4out.xyz', 'w' )
f.write( "16  " )
f.write( str(ee) + "\n" )
f.write( MOL.save_string_xyz() )
f.close()
--------------------------------------------------------------------------

    Molecular point group: c1
  Charge       = 0
  Multiplicity = 1
  Basis Set: CC-PVTZ
  Basis Set:
  @DF-RHF Final Energy:  -270.10936958475588
    Total Energy =                       -270.1093695847557683
    Molecular point group: c1
  Basis Set: CC-PVTZ
  Basis Set:
  Basis Set: CC-PVTZ
  Basis Set:
  @DF-RHF Final Energy:  -270.10979698487313
    Total Energy =                       -270.1097969848731282
  Basis Set: CC-PVTZ
  Basis Set:
  Basis Set: CC-PVTZ
  Basis Set:
  @DF-RHF Final Energy:  -270.11259908692682
    Total Energy =                       -270.1125990869266502
  Basis Set: CC-PVTZ
  Basis Set:
  Basis Set: CC-PVTZ
  Basis Set:
  @DF-RHF Final Energy:  -270.11259410718804
    Total Energy =                       -270.1125941071880447
  Basis Set: CC-PVTZ
  Basis Set:
  @DF-RHF Final Energy:  -270.11266811030112
    Total Energy =                       -270.1126681103011151
  @DF-RHF Final Energy:  -270.11280882656933
    Total Energy =                       -270.1128088265692213
  Basis Set: CC-PVTZ
  Basis Set:
  @DF-RHF Final Energy:  -270.11281767089554
    Total Energy =                       -270.1128176708955380
  Basis Set: CC-PVTZ
  Basis Set:
  Basis Set: CC-PVTZ
  Basis Set:
  @DF-RHF Final Energy:  -270.11281962941939
    Total Energy =                       -270.1128196294193913
  Basis Set: CC-PVTZ
  Basis Set:
  Basis Set: CC-PVTZ
  Basis Set:
  @DF-RHF Final Energy:  -270.11282365751049
    Total Energy =                       -270.1128236575104324
  Basis Set: CC-PVTZ
  Basis Set:
  Charge       = 0
  Multiplicity = 1
  Basis Set: CC-PVTZ
  Basis Set:

    Orbital Energies (a.u.)
    -----------------------

    Doubly Occupied:

       1A    -20.552046     2A    -11.321150     3A    -11.234827
       4A    -11.233824     5A    -11.227730     6A    -11.216895
       7A     -1.406846     8A     -1.095343     9A     -1.016210
      10A     -0.916665    11A     -0.811580    12A     -0.786618
      13A     -0.681578    14A     -0.646560    15A     -0.636802
      16A     -0.596559    17A     -0.579872    18A     -0.561948
      19A     -0.538731    20A     -0.513590    21A     -0.487529
      22A     -0.479022    23A     -0.466862    24A     -0.412278

  @DF-RHF Final Energy:  -270.11282412257287

   => Energetics <=

    Nuclear Repulsion Energy =            232.6265678137440602
    One-Electron Energy =                -826.6366539612268980
    Two-Electron Energy =                 323.8972620249101055
    DFT Exchange-Correlation Energy =       0.0000000000000000
    Empirical Dispersion Energy =           0.0000000000000000
    PCM Polarization Energy =               0.0000000000000000
    EFP Energy =                            0.0000000000000000
    Total Energy =                       -270.1128241225727606
    Molecular point group: c1
  Basis Set: CC-PVTZ
  Basis Set:

  -Total Gradient:
     Atom            X                  Y                   Z
    ------   -----------------  -----------------  -----------------
       1       -0.000003345950     0.000007483461     0.000020416629
       2        0.000009816494    -0.000030868213    -0.000038499846
       3        0.000015664937     0.000053094745     0.000058629683
       4       -0.000010166609     0.000009580469    -0.000007176174
       5       -0.003700923165    -0.005287008224     0.001624195679
       6       -0.000000197409    -0.000001166971    -0.000001879133
       7        0.000005429172    -0.000018257278    -0.000004097199
       8       -0.002339523855    -0.004325312059    -0.004381017653
       9        0.003464847188     0.005106394402    -0.000679479251
      10       -0.000000856592    -0.000001911058    -0.000002304704
      11       -0.000000725616     0.000001420162    -0.000015240060
      12        0.002564218734     0.004477666926     0.003418974851
      13       -0.000001995437     0.000001966008     0.000001508551
      14       -0.000009063234     0.000010176181     0.000000788886
      15       -0.000003772869     0.000002478858     0.000005548868
      16        0.000010594214    -0.000005737415    -0.000000369127

  **** Optimization is complete! (in 10 steps) ****
    Final optimized geometry and variables:
    Molecular point group: c1

    Geometry (in Angstrom), charge = 0, multiplicity = 1:

    H            2.307593176117    -0.587408041550    -0.798176507709
    C            1.489773084177    -1.124177837539    -0.299636811447
    C            0.145950559304    -0.452708347155    -0.372506665199
    O            1.702073617601    -2.151376392103     0.245602833761
    C            0.195241255330     0.950881991842     0.235077079871
    H           -0.575989218583    -1.086417556085     0.121847358110
    H           -0.124409957711    -0.384899398636    -1.424323360606
    C           -1.083641865935     1.797732913510     0.084250817749
    H            0.478143140731     0.898565102337     1.281418248059
    H            1.008134030531     1.497499055920    -0.236018927701
    C           -2.406388854609     1.039306954454     0.083154368763
    H           -0.999521175576     2.422837395407    -0.798879402288
    H           -1.099420355485     2.503621828580     0.908969615651
    H           -2.497479698627     0.376173043580    -0.768486000715
    H           -3.236180296036     1.734964465837     0.044741340204
    H           -2.519800606732     0.442545665563     0.981822268864

  Mulliken Charges: (a.u.)
   Center  Symbol    Alpha    Beta     Spin     Total
       1     H     0.46462  0.46462  0.00000  0.07076
       2     C     2.91264  2.91264  0.00000  0.17472
       3     C     3.08057  3.08057  0.00000 -0.16114
       4     O     4.16319  4.16319  0.00000 -0.32637
       5     C     3.10838  3.10838  0.00000 -0.21676
       6     H     0.44023  0.44023  0.00000  0.11953
       7     H     0.44835  0.44835  0.00000  0.10330
       8     C     3.08900  3.08900  0.00000 -0.17801
       9     H     0.44286  0.44286  0.00000  0.11429
      10     H     0.44983  0.44983  0.00000  0.10033
      11     C     3.15531  3.15531  0.00000 -0.31063
      12     H     0.45035  0.45035  0.00000  0.09929
      13     H     0.44919  0.44919  0.00000  0.10163
      14     H     0.45215  0.45215  0.00000  0.09569
      15     H     0.44306  0.44306  0.00000  0.11387
      16     H     0.45026  0.45026  0.00000  0.09949

   Total alpha = 24.00000, Total beta = 24.00000, Total charge =  0.00000

*** Psi4 exiting successfully. Buy a developer a beer!
