  ==> Input File <==

--------------------------------------------------------------------------
set {
	reference rhf
	basis cc-pvtz
}

set_num_threads( 4 )
memory 2 gb

molecule MOL {
0 1

H	 1.061118	 0.067700	 -1.838504
C	 0.603756	 -0.484935	 -1.046073
C	 0.599960	 -1.865035	 -1.039520
C	 0.000000	 0.179985	 0.000046
H	 1.064188	 -2.400763	 -1.843884
C	 0.000003	 -2.552036	 -0.000009
N	 0.000000	 1.644631	 0.000076
C	 -0.603758	 -0.484978	 1.046137
H	 0.000000	 -3.625035	 -0.000032
C	 -0.599958	 -1.865078	 1.039529
O	 1.050559	 2.194174	 -0.000073
O	 -1.050559	 2.194174	 -0.000074
H	 -1.061111	 0.067625	 1.838595
H	 -1.064190	 -2.400838	 1.843870

	symmetry c1
}
set optking {
	frozen_dihedral = ("
		2 4 7 11
	")
}

ee = optimize('scf')
oeprop('DIPOLE', 'QUADRUPOLE', 'MULLIKEN_CHARGES')
f=open( 'psi4out.xyz', 'w' )
f.write( "14  " )
f.write( str(ee) + "\n" )
f.write( MOL.save_string_xyz() )
f.close()
--------------------------------------------------------------------------

    Molecular point group: c1
  Charge       = 0
  Multiplicity = 1
  Basis Set: CC-PVTZ
  Basis Set:
  @DF-RHF Final Energy:  -434.32292612436021
    Total Energy =                       -434.3229261243598103
    Molecular point group: c1
  Basis Set: CC-PVTZ
  Basis Set:
  Basis Set: CC-PVTZ
  Basis Set:
  @DF-RHF Final Energy:  -434.31688618981332
    Total Energy =                       -434.3168861898130899
  Basis Set: CC-PVTZ
  Basis Set:
  Basis Set: CC-PVTZ
  Basis Set:
  @DF-RHF Final Energy:  -434.32317127430969
    Total Energy =                       -434.3231712743100843
  Basis Set: CC-PVTZ
  Basis Set:
  Basis Set: CC-PVTZ
  Basis Set:
  @DF-RHF Final Energy:  -434.32340911913383
    Total Energy =                       -434.3234091191338848
  Basis Set: CC-PVTZ
  Basis Set:
  Basis Set: CC-PVTZ
  Basis Set:
  @DF-RHF Final Energy:  -434.32341083900951
    Total Energy =                       -434.3234108390093979
  Basis Set: CC-PVTZ
  Basis Set:
  Charge       = 0
  Multiplicity = 1
  Basis Set: CC-PVTZ
  Basis Set:

    Orbital Energies (a.u.)
    -----------------------

    Doubly Occupied:

       1A    -20.596484     2A    -20.596425     3A    -15.847792
       4A    -11.306363     5A    -11.267868     6A    -11.267603
       7A    -11.261147     8A    -11.260071     9A    -11.259297
      10A     -1.643990    11A     -1.427062    12A     -1.206348
      13A     -1.096846    14A     -1.056683    15A     -0.959410
      16A     -0.873361    17A     -0.830669    18A     -0.786599
      19A     -0.740481    20A     -0.737123    21A     -0.716993
      22A     -0.653990    23A     -0.650946    24A     -0.626083
      25A     -0.560505    26A     -0.550027    27A     -0.533644
      28A     -0.498614    29A     -0.487796    30A     -0.457870
      31A     -0.373107    32A     -0.370441

  @DF-RHF Final Energy:  -434.32341132522504

   => Energetics <=

    Nuclear Repulsion Energy =            417.7026966189658879
    One-Electron Energy =               -1419.0489360958438283
    Two-Electron Energy =                 567.0228281516529023
    DFT Exchange-Correlation Energy =       0.0000000000000000
    Empirical Dispersion Energy =           0.0000000000000000
    PCM Polarization Energy =               0.0000000000000000
    EFP Energy =                            0.0000000000000000
    Total Energy =                       -434.3234113252250381
    Molecular point group: c1
  Basis Set: CC-PVTZ
  Basis Set:

  -Total Gradient:
     Atom            X                  Y                   Z
    ------   -----------------  -----------------  -----------------
       1        0.000005653415     0.000009942208    -0.000010859205
       2       -0.004087056613    -0.000145548936    -0.002215681571
       3       -0.000032459190     0.000039088022    -0.000026689377
       4        0.005873458696     0.000188168241     0.005256981780
       5        0.000004186527    -0.000000343382     0.000004916498
       6       -0.000011347631    -0.000001440179     0.000034940356
       7       -0.001993809511    -0.000177058691    -0.008477868582
       8        0.000063406719     0.000036681737    -0.000030232068
       9       -0.000000258951    -0.000000991089    -0.000003973626
      10        0.000050390098    -0.000020802113    -0.000010306421
      11        0.000159648627     0.000068539832     0.005456541978
      12       -0.000024242546    -0.000010480459     0.000008577276
      13       -0.000003670982     0.000007068925     0.000016485910
      14       -0.000003898656     0.000007175887    -0.000002832948

  **** Optimization is complete! (in 6 steps) ****
    Final optimized geometry and variables:
    Molecular point group: c1

    Geometry (in Angstrom), charge = 0, multiplicity = 1:

    H            1.089772870475     0.071628822365    -1.828655469700
    C            0.618814883339    -0.480340560535    -1.040377652343
    C            0.595735672676    -1.861359565072    -1.042308579372
    C            0.027359631086     0.178979653633     0.010939153539
    H            1.044979652106    -2.398640917929    -1.854242216443
    C           -0.002635075566    -2.546313229142    -0.001202027147
    N           -0.002335618816     1.641593459285    -0.009524988851
    C           -0.604484940162    -0.475808448773     1.041832509941
    H           -0.010536127270    -3.618990208278    -0.003298110976
    C           -0.596722730813    -1.856615932159     1.039845278135
    O            1.040431762409     2.203948103163    -0.043091269645
    O           -1.065381413182     2.161966629345     0.046194337466
    H           -1.084856608001     0.079228914697     1.821925284306
    H           -1.064201311274    -2.390901137160     1.843435175900

  Mulliken Charges: (a.u.)
   Center  Symbol    Alpha    Beta     Spin     Total
       1     H     0.41039  0.41039  0.00000  0.17922
       2     C     3.08765  3.08765  0.00000 -0.17531
       3     C     3.06679  3.06679  0.00000 -0.13358
       4     C     2.93015  2.93015  0.00000  0.13969
       5     H     0.41732  0.41732  0.00000  0.16536
       6     C     3.07311  3.07311  0.00000 -0.14622
       7     N     3.28363  3.28363  0.00000  0.43274
       8     C     3.08633  3.08633  0.00000 -0.17267
       9     H     0.41773  0.41773  0.00000  0.16455
      10     C     3.06626  3.06626  0.00000 -0.13253
      11     O     4.16657  4.16657  0.00000 -0.33315
      12     O     4.16628  4.16628  0.00000 -0.33256
      13     H     0.41049  0.41049  0.00000  0.17901
      14     H     0.41728  0.41728  0.00000  0.16545

   Total alpha = 32.00000, Total beta = 32.00000, Total charge = -0.00000
