  ==> Input File <==

--------------------------------------------------------------------------
set {
	reference rhf
	basis cc-pvtz
}

set_num_threads( 4 )
memory 2 gb

molecule MOL {
0 1

H	 1.372921	 -2.786359	 -1.368619
C	 1.284351	 -1.716370	 -1.213493
C	 0.191197	 -1.421130	 -0.195479
H	 1.049461	 -1.249478	 -2.162049
H	 2.252454	 -1.351371	 -0.893672
N	 0.000297	 0.000045	 0.046090
H	 -0.735881	 -1.831082	 -0.571753
H	 0.399571	 -1.951772	 0.737757
C	 -1.359159	 0.315706	 0.454404
C	 0.993924	 0.546662	 0.956276
C	 -2.416729	 -0.286720	 -0.460525
H	 -1.478729	 1.390261	 0.442008
H	 -1.539692	 0.003361	 1.486761
C	 1.267932	 2.026983	 0.728222
H	 1.920912	 0.008781	 0.813322
H	 0.704490	 0.378763	 1.997405
H	 -2.285276	 0.073129	 -1.473515
H	 -2.371743	 -1.368476	 -0.483209
H	 -3.408658	 -0.007405	 -0.121593
H	 1.621664	 2.191601	 -0.282067
H	 0.383977	 2.635255	 0.874527
H	 2.025589	 2.378868	 1.420281

	symmetry c1
}
set optking {
	frozen_dihedral = ("
		3 6 9 11
	")
}

ee = optimize('scf')
oeprop('DIPOLE', 'QUADRUPOLE', 'MULLIKEN_CHARGES')
f=open( 'psi4out.xyz', 'w' )
f.write( "22  " )
f.write( str(ee) + "\n" )
f.write( MOL.save_string_xyz() )
f.close()
--------------------------------------------------------------------------

    Molecular point group: c1
  Charge       = 0
  Multiplicity = 1
  Basis Set: CC-PVTZ
  Basis Set:
  @DF-RHF Final Energy:  -290.46991118861996
    Total Energy =                       -290.4699111886199034
    Molecular point group: c1
  Basis Set: CC-PVTZ
  Basis Set:
  Basis Set: CC-PVTZ
  Basis Set:
  @DF-RHF Final Energy:  -290.46823735213530
    Total Energy =                       -290.4682373521354748
  Basis Set: CC-PVTZ
  Basis Set:
  Basis Set: CC-PVTZ
  Basis Set:
  @DF-RHF Final Energy:  -290.47330685761824
    Total Energy =                       -290.4733068576185815
  Basis Set: CC-PVTZ
  Basis Set:
  Basis Set: CC-PVTZ
  Basis Set:
  @DF-RHF Final Energy:  -290.47381897929563
    Total Energy =                       -290.4738189792956291
  Basis Set: CC-PVTZ
  Basis Set:
  @DF-RHF Final Energy:  -290.47385867829109
    Total Energy =                       -290.4738586782913217
  Basis Set: CC-PVTZ
  Basis Set:
  @DF-RHF Final Energy:  -290.47386652167836
    Total Energy =                       -290.4738665216784170
  Basis Set: CC-PVTZ
  Basis Set:
  Basis Set: CC-PVTZ
  Basis Set:
  @DF-RHF Final Energy:  -290.47387137919793
    Total Energy =                       -290.4738713791979308
  Basis Set: CC-PVTZ
  Basis Set:
  Basis Set: CC-PVTZ
  Basis Set:
  @DF-RHF Final Energy:  -290.47387345912460
    Total Energy =                       -290.4738734591247749
  Basis Set: CC-PVTZ
  Basis Set:
  Charge       = 0
  Multiplicity = 1
  Basis Set: CC-PVTZ
  Basis Set:

    Orbital Energies (a.u.)
    -----------------------

    Doubly Occupied:

       1A    -15.532756     2A    -11.238930     3A    -11.237457
       4A    -11.237338     5A    -11.207612     6A    -11.203503
       7A    -11.203370     8A     -1.224800     9A     -1.025168
      10A     -1.024138    11A     -0.958253    12A     -0.853858
      13A     -0.845210    14A     -0.765356    15A     -0.649002
      16A     -0.638568    17A     -0.633950    18A     -0.595484
      19A     -0.592332    20A     -0.548012    21A     -0.530243
      22A     -0.522589    23A     -0.517703    24A     -0.500615
      25A     -0.492043    26A     -0.486183    27A     -0.463313
      28A     -0.461515    29A     -0.340547

  @DF-RHF Final Energy:  -290.47387403540858

   => Energetics <=

    Nuclear Repulsion Energy =            337.7743359278069875
    One-Electron Energy =               -1061.4367139827138544
    Two-Electron Energy =                 433.1885040194983389
    DFT Exchange-Correlation Energy =       0.0000000000000000
    Empirical Dispersion Energy =           0.0000000000000000
    PCM Polarization Energy =               0.0000000000000000
    EFP Energy =                            0.0000000000000000
    Total Energy =                       -290.4738740354085280
    Molecular point group: c1
  Basis Set: CC-PVTZ
  Basis Set:

  -Total Gradient:
     Atom            X                  Y                   Z
    ------   -----------------  -----------------  -----------------
       1       -0.000005818839    -0.000009424879     0.000004664567
       2        0.000013223052     0.000015502718     0.000022212975
       3       -0.000890600039     0.000435323662    -0.003177745933
       4       -0.000008776333     0.000000771204     0.000004573930
       5        0.000006538145    -0.000005582782    -0.000010324607
       6        0.001160977840    -0.001858692459     0.005361071232
       7       -0.000012007673    -0.000014555143    -0.000032110507
       8        0.000003338025     0.000005773821    -0.000004549015
       9       -0.000209125474     0.003978425235    -0.003937192971
      10        0.000056020420     0.000044432724     0.000024086925
      11       -0.000148958169    -0.002629363365     0.001774328308
      12        0.000030164812     0.000036853865     0.000010234314
      13        0.000024291949    -0.000016496837    -0.000028831175
      14       -0.000004886765     0.000002313933     0.000000298327
      15        0.000005148068     0.000002272664     0.000009236648
      16       -0.000004143629     0.000004379042    -0.000026839234
      17       -0.000006027509    -0.000004362294     0.000013280516
      18        0.000001824528     0.000007008436    -0.000011813177
      19        0.000006262193     0.000006397097     0.000004332670
      20       -0.000005003952    -0.000006605736     0.000006130001
      21       -0.000020860700    -0.000000750672    -0.000013365504
      22        0.000008420052     0.000006379763     0.000008321714

  **** Optimization is complete! (in 9 steps) ****
    Final optimized geometry and variables:
    Molecular point group: c1

    Geometry (in Angstrom), charge = 0, multiplicity = 1:

    H            1.456589820092    -2.698957979706    -1.424121702082
    C            1.376212498751    -1.635467196023    -1.225735140822
    C            0.224706208702    -1.374566735956    -0.261615253545
    H            1.200885449796    -1.123601799110    -2.164044132150
    H            2.331428530628    -1.305664158839    -0.838185835830
    N            0.003632467331     0.037286820649    -0.004232915797
    H           -0.664790271276    -1.789570607664    -0.706017724122
    H            0.390890929043    -1.930218410478     0.667138095527
    C           -1.344248514636     0.395175217956     0.406651537355
    C            1.001163321966     0.614839373146     0.879129431152
    C           -2.467451215325    -0.148071824891    -0.467940072799
    H           -1.410050563197     1.474025343808     0.401549589757
    H           -1.532709036040     0.082232239072     1.440171966214
    C            1.206523580115     2.112579915987     0.686366109997
    H            1.945804502375     0.125645442441     0.692441667004
    H            0.755022531894     0.411972981899     1.925902138945
    H           -2.270092184119     0.038749249259    -1.517351210753
    H           -2.630923695795    -1.208460698079    -0.333058920640
    H           -3.391815894335     0.353891037640    -0.205945700219
    H            1.454260987278     2.328959151070    -0.345676459478
    H            0.330247859979     2.689992871935     0.950981053389
    H            2.021621422084     2.455755557743     1.314322005799

  Mulliken Charges: (a.u.)
   Center  Symbol    Alpha    Beta     Spin     Total
       1     H     0.45247  0.45247  0.00000  0.09506
       2     C     3.14388  3.14388  0.00000 -0.28775
       3     C     3.03849  3.03849  0.00000 -0.07699
       4     H     0.45176  0.45176  0.00000  0.09647
       5     H     0.45528  0.45528  0.00000  0.08943
       6     N     3.61994  3.61994  0.00000 -0.23988
       7     H     0.44873  0.44873  0.00000  0.10253
       8     H     0.46782  0.46782  0.00000  0.06437
       9     C     3.02907  3.02907  0.00000 -0.05815
      10     C     3.04355  3.04355  0.00000 -0.08709
      11     C     3.15772  3.15772  0.00000 -0.31543
      12     H     0.45373  0.45373  0.00000  0.09254
      13     H     0.47254  0.47254  0.00000  0.05491
      14     C     3.14463  3.14463  0.00000 -0.28927
      15     H     0.44877  0.44877  0.00000  0.10246
      16     H     0.46437  0.46437  0.00000  0.07126
      17     H     0.44918  0.44918  0.00000  0.10164
      18     H     0.45305  0.45305  0.00000  0.09389
      19     H     0.44669  0.44669  0.00000  0.10662
      20     H     0.45094  0.45094  0.00000  0.09812
      21     H     0.45547  0.45547  0.00000  0.08905
      22     H     0.45191  0.45191  0.00000  0.09618

   Total alpha = 29.00000, Total beta = 29.00000, Total charge =  0.00000
