  ==> Input File <==

--------------------------------------------------------------------------
set {
	reference rhf
	basis 6-31G*
}

set_num_threads( 1 )
memory 2 gb

molecule MOL {
0 1

O	 1.760332	 1.194396	 -0.495224
C	 1.705091	 0.115954	 0.001797
C	 0.502571	 -0.467649	 0.702667
O	 2.721346	 -0.737485	 -0.000216
C	 -0.697930	 0.473404	 0.732005
H	 0.258350	 -1.402049	 0.204704
H	 0.813315	 -0.740918	 1.707397
C	 -1.901366	 -0.143127	 1.446632
H	 -0.968977	 0.739028	 -0.284935
H	 -0.413869	 1.400354	 1.220249
C	 -3.115066	 0.787116	 1.484562
H	 -2.179083	 -1.074095	 0.954525
H	 -1.622515	 -0.409492	 2.465050
C	 -4.316786	 0.171021	 2.199786
H	 -3.396483	 1.052095	 0.467836
H	 -2.839472	 1.717197	 1.976634
H	 -4.638305	 -0.743788	 1.709924
H	 -5.160403	 0.854138	 2.210356
H	 -4.076692	 -0.073837	 3.230664
C	 4.024888	 -0.184556	 -0.001949
H	 4.179030	 0.422472	 -0.882452
H	 4.701782	 -1.024608	 -0.003642
H	 4.181981	 0.421185	 0.878906

	symmetry c1
}
set optking {
	frozen_dihedral = ("
		15 11 8 12,
		9 5 8 12,
		1 2 3 6,
		9 5 3 6
	")
}

ee = energy('scf')
oeprop('DIPOLE', 'QUADRUPOLE', 'MULLIKEN_CHARGES')
f=open( 'psi4out.xyz', 'w' )
f.write( "23  " )
f.write( str(ee) + "\n" )
f.write( MOL.save_string_xyz() )
f.close()
--------------------------------------------------------------------------

    Molecular point group: c1

    Geometry (in Angstrom), charge = 0, multiplicity = 1:

       Center              X                  Y                   Z               Mass
    ------------   -----------------  -----------------  -----------------  -----------------
           O          1.646171562443     1.060031079323    -1.162719596695    15.994914619560
           C          1.590930562443    -0.018410920677    -0.665698596695    12.000000000000
           C          0.388410562443    -0.602013920677     0.035171403305    12.000000000000
           O          2.607185562443    -0.871849920677    -0.667711596695    15.994914619560
           C         -0.812090437557     0.339039079323     0.064509403305    12.000000000000
           H          0.144189562443    -1.536413920677    -0.462791596695     1.007825032070
           H          0.699154562443    -0.875282920677     1.039901403305     1.007825032070
           C         -2.015526437557    -0.277491920677     0.779136403305    12.000000000000
           H         -1.083137437557     0.604663079323    -0.952430596695     1.007825032070
           H         -0.528029437557     1.265989079323     0.552753403305     1.007825032070
           C         -3.229226437557     0.652751079323     0.817066403305    12.000000000000
           H         -2.293243437557    -1.208459920677     0.287029403305     1.007825032070
           H         -1.736675437557    -0.543856920677     1.797554403305     1.007825032070
           C         -4.430946437557     0.036656079323     1.532290403305    12.000000000000
           H         -3.510643437557     0.917730079323    -0.199659596695     1.007825032070
           H         -2.953632437557     1.582832079323     1.309138403305     1.007825032070
           H         -4.752465437557    -0.878152920677     1.042428403305     1.007825032070
           H         -5.274563437557     0.719773079323     1.542860403305     1.007825032070
           H         -4.190852437557    -0.208201920677     2.563168403305     1.007825032070
           C          3.910727562443    -0.318920920677    -0.669444596695    12.000000000000
           H          4.064869562443     0.288107079323    -1.549947596695     1.007825032070
           H          4.587621562443    -1.158972920677    -0.671137596695     1.007825032070
           H          4.067820562443     0.286820079323     0.211410403305     1.007825032070

  Charge       = 0
  Multiplicity = 1
  Basis Set: 6-31G*
  Basis Set:

    Orbital Energies (a.u.)
    -----------------------

    Doubly Occupied:

       1A    -20.599015     2A    -20.547168     3A    -11.372681
       4A    -11.283173     5A    -11.235672     6A    -11.219204
       7A    -11.217961     8A    -11.216564     9A    -11.209757
      10A     -1.467916    11A     -1.363205    12A     -1.093182
      13A     -1.043220    14A     -0.986847    15A     -0.933611
      16A     -0.844449    17A     -0.795198    18A     -0.767390
      19A     -0.696783    20A     -0.682501    21A     -0.671763
      22A     -0.651278    23A     -0.609745    24A     -0.601565
      25A     -0.573896    26A     -0.562750    27A     -0.554831
      28A     -0.529090    29A     -0.514192    30A     -0.507803
      31A     -0.484686    32A     -0.470123    33A     -0.466661
      34A     -0.463764    35A     -0.453225    36A     -0.433143

  @DF-RHF Final Energy:  -422.97108500085329

   => Energetics <=

    Nuclear Repulsion Energy =            452.2520363878874718
    One-Electron Energy =               -1472.1982053783899573
    Two-Electron Energy =                 596.9750839896502157
    DFT Exchange-Correlation Energy =       0.0000000000000000
    Empirical Dispersion Energy =           0.0000000000000000
    PCM Polarization Energy =               0.0000000000000000
    EFP Energy =                            0.0000000000000000
    Total Energy =                       -422.9710850008522129

  Mulliken Charges: (a.u.)
   Center  Symbol    Alpha    Beta     Spin     Total
       1     O     4.28104  4.28104  0.00000 -0.56208
       2     C     2.60449  2.60449  0.00000  0.79101
       3     C     3.20946  3.20946  0.00000 -0.41891
       4     O     4.30871  4.30871  0.00000 -0.61741
       5     C     3.15283  3.15283  0.00000 -0.30566
       6     H     0.39962  0.39962  0.00000  0.20076
       7     H     0.40263  0.40263  0.00000  0.19474
       8     C     3.15323  3.15323  0.00000 -0.30645
       9     H     0.41119  0.41119  0.00000  0.17762
      10     H     0.41237  0.41237  0.00000  0.17525
      11     C     3.15153  3.15153  0.00000 -0.30307
      12     H     0.42379  0.42379  0.00000  0.15242
      13     H     0.42440  0.42440  0.00000  0.15119
      14     C     3.23958  3.23958  0.00000 -0.47916
      15     H     0.42116  0.42116  0.00000  0.15768
      16     H     0.42151  0.42151  0.00000  0.15699
      17     H     0.42172  0.42172  0.00000  0.15655
      18     H     0.41847  0.41847  0.00000  0.16307
      19     H     0.42195  0.42195  0.00000  0.15610
      20     C     3.09450  3.09450  0.00000 -0.18899
      21     H     0.40322  0.40322  0.00000  0.19356
      22     H     0.40730  0.40730  0.00000  0.18540
      23     H     0.41531  0.41531  0.00000  0.16939

   Total alpha = 36.00000, Total beta = 36.00000, Total charge = -0.00000
