  ==> Input File <==

--------------------------------------------------------------------------
set {
	reference rhf
	basis 6-31G*
}

set_num_threads( 4 )
memory 2 gb

molecule MOL {
0 1

H	 -3.420663	 1.227371	 -1.044276
O	 -3.452007	 0.283848	 -0.965577
C	 -3.181085	 -0.079926	 0.364119
C	 -1.765924	 0.277073	 0.805136
H	 -3.327791	 -1.152017	 0.410903
H	 -3.905698	 0.375695	 1.036898
C	 -1.534759	 1.781140	 0.956345
H	 -1.551507	 -0.224423	 1.749323
H	 -1.067087	 -0.133880	 0.078524
C	 -0.118558	 2.127178	 1.420901
H	 -2.259231	 2.184515	 1.657158
H	 -1.730207	 2.267300	 0.001965
C	 0.107032	 3.634708	 1.564247
H	 0.073691	 1.630928	 2.369160
H	 0.603775	 1.722897	 0.712808
C	 1.537454	 4.036321	 1.942074
H	 -0.584520	 4.032942	 2.305098
H	 -0.148789	 4.115770	 0.622466
C	 1.977930	 3.583906	 3.335526
H	 1.616924	 5.119321	 1.886524
H	 2.229238	 3.643670	 1.199468
H	 1.296792	 3.951666	 4.098377
H	 2.968592	 3.962294	 3.568443
H	 2.015549	 2.502801	 3.418948

	symmetry c1
}
set optking {
	frozen_dihedral = ("
		7 4 3 2
	")
}

ee = optimize('scf')
oeprop('DIPOLE', 'QUADRUPOLE', 'MULLIKEN_CHARGES')
f=open( 'psi4out.xyz', 'w' )
f.write( "24  " )
f.write( str(ee) + "\n" )
f.write( MOL.save_string_xyz() )
f.close()
--------------------------------------------------------------------------

    Molecular point group: c1
  Charge       = 0
  Multiplicity = 1
  Basis Set: 6-31G*
  Basis Set:
  @DF-RHF Final Energy:  -349.24681264128736
    Total Energy =                       -349.2468126412873062
    Molecular point group: c1
  Basis Set: 6-31G*
  Basis Set:
  Basis Set: 6-31G*
  Basis Set:
  @DF-RHF Final Energy:  -349.24700004301394
    Total Energy =                       -349.2470000430137134
  Basis Set: 6-31G*
  Basis Set:
  Basis Set: 6-31G*
  Basis Set:
  @DF-RHF Final Energy:  -349.24701777947411
    Total Energy =                       -349.2470177794739925
  Basis Set: 6-31G*
  Basis Set:
  Basis Set: 6-31G*
  Basis Set:
  @DF-RHF Final Energy:  -349.24700772040268
    Total Energy =                       -349.2470077204027348
  Basis Set: 6-31G*
  Basis Set:
  Basis Set: 6-31G*
  Basis Set:
  @DF-RHF Final Energy:  -349.24702281917035
    Total Energy =                       -349.2470228191704678
  Basis Set: 6-31G*
  Basis Set:
  Charge       = 0
  Multiplicity = 1
  Basis Set: 6-31G*
  Basis Set:

    Orbital Energies (a.u.)
    -----------------------

    Doubly Occupied:

       1A    -20.552123     2A    -11.266961     3A    -11.220918
       4A    -11.217078     5A    -11.216898     6A    -11.215886
       7A    -11.215397     8A    -11.209621     9A     -1.358760
      10A     -1.092883    11A     -1.050754    12A     -0.987924
      13A     -0.918994    14A     -0.853153    15A     -0.798020
      16A     -0.780486    17A     -0.693480    18A     -0.653876
      19A     -0.624056    20A     -0.614580    21A     -0.597621
      22A     -0.588046    23A     -0.563413    24A     -0.536384
      25A     -0.527271    26A     -0.509786    27A     -0.491159
      28A     -0.486330    29A     -0.475130    30A     -0.462791
      31A     -0.458032    32A     -0.445909    33A     -0.422277

  @DF-RHF Final Energy:  -349.24702349602978

   => Energetics <=

    Nuclear Repulsion Energy =            383.8596856948717004
    One-Electron Energy =               -1234.0014156454449221
    Two-Electron Energy =                 500.8947064545432113
    DFT Exchange-Correlation Energy =       0.0000000000000000
    Empirical Dispersion Energy =           0.0000000000000000
    PCM Polarization Energy =               0.0000000000000000
    EFP Energy =                            0.0000000000000000
    Total Energy =                       -349.2470234960300104
    Molecular point group: c1
  Basis Set: 6-31G*
  Basis Set:

  -Total Gradient:
     Atom            X                  Y                   Z
    ------   -----------------  -----------------  -----------------
       1        0.000011081413    -0.000005666271     0.000062439849
       2        0.000372990839    -0.001227150204    -0.000412536375
       3       -0.000718915782     0.001634834525     0.000891372314
       4        0.000586266348    -0.000290534924    -0.001574286620
       5       -0.000037454731     0.000016896150    -0.000086957730
       6       -0.000022526265    -0.000043907283     0.000031885716
       7       -0.000334974342    -0.000012472673     0.001175808417
       8        0.000088201905    -0.000037113436    -0.000001302416
       9        0.000045368015    -0.000046056399    -0.000001772826
      10       -0.000021455572    -0.000010404961    -0.000016297215
      11        0.000032977261    -0.000018301941    -0.000070738293
      12        0.000026827831     0.000015816316     0.000046755772
      13        0.000000560540     0.000016671033    -0.000042342980
      14       -0.000030191106    -0.000005844089     0.000006011003
      15       -0.000002980786    -0.000031328236     0.000002160482
      16       -0.000010014043     0.000043329340    -0.000000327932
      17        0.000011904413     0.000010863489    -0.000015539302
      18       -0.000003494215     0.000006108952     0.000000946279
      19       -0.000003380347    -0.000014633798    -0.000004884003
      20        0.000007891963     0.000005729279     0.000012999365
      21        0.000001548570     0.000013655356    -0.000005552069
      22        0.000005217651     0.000004123887    -0.000003105117
      23        0.000003452210    -0.000008397599    -0.000001267497
      24       -0.000008901770    -0.000016216512     0.000006531180

  **** Optimization is complete! (in 6 steps) ****
    Final optimized geometry and variables:
    Molecular point group: c1

    Geometry (in Angstrom), charge = 0, multiplicity = 1:

    H           -2.684401107068    -0.720993796383    -2.189323724670
    O           -2.604050327259    -1.661371459756    -2.120594757271
    C           -2.333196904194    -2.017804600548    -0.788733403730
    C           -0.920850307570    -1.650681312654    -0.346029985832
    H           -2.461515781604    -3.091717308165    -0.745161642073
    H           -3.067399197769    -1.577067108014    -0.115546743269
    C           -0.687551983607    -0.145306532190    -0.197230794772
    H           -0.725787818700    -2.136626533836     0.608646436795
    H           -0.218184528697    -2.067343478795    -1.062602251224
    C            0.726721265357     0.201052624456     0.272964369182
    H           -1.410974068758     0.263039498430     0.507273134807
    H           -0.870428177455     0.349779569347    -1.149597393260
    C            0.955791648656     1.708205044928     0.414532369835
    H            0.912379865493    -0.295227921193     1.222010344801
    H            1.448001251357    -0.207379770428    -0.432904650891
    C            2.385980476001     2.105434130284     0.797935152747
    H            0.262906079319     2.110408894686     1.152188301642
    H            0.706106876629     2.188739935965    -0.529340521698
    C            2.819953659300     1.650026859481     2.192416316049
    H            2.468435953005     3.188184755042     0.743691764227
    H            3.078870065258     1.711549236663     0.057192661290
    H            2.137904185987     2.019762597415     2.953490726689
    H            3.811183677868     2.024619302568     2.428614009069
    H            2.853458577687     0.568781487221     2.275065248834

  Mulliken Charges: (a.u.)
   Center  Symbol    Alpha    Beta     Spin     Total
       1     H     0.28033  0.28033  0.00000  0.43934
       2     O     4.37098  4.37098  0.00000 -0.74195
       3     C     2.99717  2.99717  0.00000  0.00566
       4     C     3.16245  3.16245  0.00000 -0.32491
       5     H     0.41442  0.41442  0.00000  0.17117
       6     H     0.43183  0.43183  0.00000  0.13635
       7     C     3.15971  3.15971  0.00000 -0.31942
       8     H     0.42412  0.42412  0.00000  0.15177
       9     H     0.41398  0.41398  0.00000  0.17205
      10     C     3.15263  3.15263  0.00000 -0.30526
      11     H     0.42377  0.42377  0.00000  0.15245
      12     H     0.42765  0.42765  0.00000  0.14470
      13     C     3.15270  3.15270  0.00000 -0.30540
      14     H     0.42081  0.42081  0.00000  0.15838
      15     H     0.42188  0.42188  0.00000  0.15625
      16     C     3.15252  3.15252  0.00000 -0.30504
      17     H     0.42447  0.42447  0.00000  0.15105
      18     H     0.42253  0.42253  0.00000  0.15495
      19     C     3.24135  3.24135  0.00000 -0.48270
      20     H     0.42077  0.42077  0.00000  0.15847
      21     H     0.42278  0.42278  0.00000  0.15444
      22     H     0.42239  0.42239  0.00000  0.15522
      23     H     0.41886  0.41886  0.00000  0.16228
      24     H     0.41993  0.41993  0.00000  0.16014

   Total alpha = 33.00000, Total beta = 33.00000, Total charge = -0.00000
