  ==> Input File <==

--------------------------------------------------------------------------
set {
	reference rhf
	basis 6-31G*
}

set_num_threads( 4 )
memory 2 gb

molecule MOL {
0 1

O	 0.247891	 -0.006476	 2.073878
C	 -0.161389	 -0.564418	 1.108184
C	 -1.531182	 -1.170946	 0.972691
O	 0.550821	 -0.724572	 0.000672
H	 -2.054312	 -0.711715	 0.141952
H	 -2.085170	 -1.021691	 1.887410
H	 -1.442857	 -2.229999	 0.760122
C	 1.863949	 -0.193559	 -0.000319
H	 2.028859	 0.409284	 -0.881648
H	 2.526261	 -1.045082	 -0.000003
H	 2.029520	 0.410555	 0.880008

	symmetry c1
}
set optking {
	frozen_dihedral = ("
		2 4 8 9
	")
}

ee = optimize('scf')
oeprop('DIPOLE', 'QUADRUPOLE', 'MULLIKEN_CHARGES')
f=open( 'psi4out.xyz', 'w' )
f.write( "11  " )
f.write( str(ee) + "\n" )
f.write( MOL.save_string_xyz() )
f.close()
--------------------------------------------------------------------------

    Molecular point group: c1
  Charge       = 0
  Multiplicity = 1
  Basis Set: 6-31G*
  Basis Set:
  @DF-RHF Final Energy:  -266.83322987468455
    Total Energy =                       -266.8332298746844913
    Molecular point group: c1
  Basis Set: 6-31G*
  Basis Set:
  Basis Set: 6-31G*
  Basis Set:
  @DF-RHF Final Energy:  -266.83378931626521
    Total Energy =                       -266.8337893162651540
  Basis Set: 6-31G*
  Basis Set:
  Basis Set: 6-31G*
  Basis Set:
  @DF-RHF Final Energy:  -266.83421661252976
    Total Energy =                       -266.8342166125293602
  Basis Set: 6-31G*
  Basis Set:
  Basis Set: 6-31G*
  Basis Set:
  @DF-RHF Final Energy:  -266.83434533600359
    Total Energy =                       -266.8343453360035937
  Basis Set: 6-31G*
  Basis Set:
  Basis Set: 6-31G*
  Basis Set:
  @DF-RHF Final Energy:  -266.83439840099072
    Total Energy =                       -266.8343984009907786
  Basis Set: 6-31G*
  Basis Set:
  Basis Set: 6-31G*
  Basis Set:
  @DF-RHF Final Energy:  -266.83439924092056
    Total Energy =                       -266.8343992409202770
  Basis Set: 6-31G*
  Basis Set:
  Charge       = 0
  Multiplicity = 1
  Basis Set: 6-31G*
  Basis Set:

    Orbital Energies (a.u.)
    -----------------------

    Doubly Occupied:

       1A    -20.604835     2A    -20.545734     3A    -11.377828
       4A    -11.280664     5A    -11.233998     6A     -1.468410
       7A     -1.364989     8A     -1.035960     9A     -0.953413
      10A     -0.777198    11A     -0.696855    12A     -0.678845
      13A     -0.676950    14A     -0.597514    15A     -0.590962
      16A     -0.560411    17A     -0.528874    18A     -0.518703
      19A     -0.454179    20A     -0.442535

  @DF-RHF Final Energy:  -266.83440261219909

   => Energetics <=

    Nuclear Repulsion Energy =            182.8491851770706376
    One-Electron Energy =                -726.5894616026777157
    Two-Electron Energy =                 276.9058738134082773
    DFT Exchange-Correlation Energy =       0.0000000000000000
    Empirical Dispersion Energy =           0.0000000000000000
    PCM Polarization Energy =               0.0000000000000000
    EFP Energy =                            0.0000000000000000
    Total Energy =                       -266.8344026121988577
    Molecular point group: c1
  Basis Set: 6-31G*
  Basis Set:

  -Total Gradient:
     Atom            X                  Y                   Z
    ------   -----------------  -----------------  -----------------
       1       -0.000009133604     0.000004298710     0.000013353025
       2       -0.000192958518     0.000528389042    -0.000232354829
       3        0.000003363334    -0.000000548451    -0.000001217986
       4        0.000258713571    -0.000635073353     0.000381625252
       5        0.000005746331     0.000002322758     0.000004758131
       6       -0.000000025695     0.000000663567     0.000001550802
       7        0.000000312458    -0.000003349585    -0.000001261802
       8        0.000136942510    -0.000458540384    -0.000501797660
       9       -0.000208260275     0.000556414258     0.000332539066
      10        0.000004446610     0.000002383369     0.000000728354
      11        0.000000853279     0.000003040067     0.000002077647

  **** Optimization is complete! (in 7 steps) ****
    Final optimized geometry and variables:
    Molecular point group: c1

    Geometry (in Angstrom), charge = 0, multiplicity = 1:

    O            0.003797181421     0.513172253899     1.277053790283
    C           -0.377951473734    -0.033067359100     0.293913655812
    C           -1.744254205103    -0.639260460031     0.122607089011
    O            0.350154763354    -0.190533546805    -0.805173543669
    H           -2.249472664583    -0.171474569838    -0.714375850468
    H           -2.317790395938    -0.500388465258     1.026755928784
    H           -1.649977355862    -1.695847274708    -0.099661628705
    C            1.669607193503     0.327573567305    -0.844475429820
    H            1.762635572737     0.903154320387    -1.754049675849
    H            2.363580479842    -0.501367607251    -0.864857698918
    H            1.862562770988     0.950342996418     0.012690094989

  Mulliken Charges: (a.u.)
   Center  Symbol    Alpha    Beta     Spin     Total
       1     O     4.28168  4.28168  0.00000 -0.56335
       2     C     2.62207  2.62207  0.00000  0.75586
       3     C     3.28211  3.28211  0.00000 -0.56422
       4     O     4.30155  4.30155  0.00000 -0.60311
       5     H     0.40015  0.40015  0.00000  0.19970
       6     H     0.39682  0.39682  0.00000  0.20636
       7     H     0.40003  0.40003  0.00000  0.19994
       8     C     3.09838  3.09838  0.00000 -0.19676
       9     H     0.41121  0.41121  0.00000  0.17758
      10     H     0.41239  0.41239  0.00000  0.17521
      11     H     0.39360  0.39360  0.00000  0.21281

   Total alpha = 20.00000, Total beta = 20.00000, Total charge = -0.00000
