  ==> Input File <==

--------------------------------------------------------------------------
set {
	reference rhf
	basis 6-31G*
}

set_num_threads( 4 )
memory 2 gb

molecule MOL {
0 1

H	 1.917963	 2.231423	 0.875088
N	 1.060855	 1.720851	 0.784561
C	 1.267428	 0.496480	 0.024474
H	 0.413894	 2.322933	 0.311431
C	 -0.016086	 -0.325158	 -0.029487
H	 2.039652	 -0.077632	 0.527564
H	 1.624504	 0.677714	 -0.992399
C	 -1.282277	 0.529072	 0.046735
H	 -0.012495	 -0.908639	 -0.945788
H	 -0.015903	 -1.041248	 0.791956
C	 -2.563920	 -0.301775	 -0.006060
H	 -1.284084	 1.244622	 -0.773004
H	 -1.271387	 1.115393	 0.963286
H	 -2.621848	 -0.873522	 -0.927727
H	 -3.445135	 0.329952	 0.047812
H	 -2.609542	 -1.004582	 0.821105

	symmetry c1
}
set optking {
	frozen_dihedral = ("
		6 3 5 9
	")
}

ee = optimize('scf')
oeprop('DIPOLE', 'QUADRUPOLE', 'MULLIKEN_CHARGES')
f=open( 'psi4out.xyz', 'w' )
f.write( "16  " )
f.write( str(ee) + "\n" )
f.write( MOL.save_string_xyz() )
f.close()
--------------------------------------------------------------------------

    Molecular point group: c1
  Charge       = 0
  Multiplicity = 1
  Basis Set: 6-31G*
  Basis Set:
  @DF-RHF Final Energy:  -212.30938528436980
    Total Energy =                       -212.3093852843697391
    Molecular point group: c1
  Basis Set: 6-31G*
  Basis Set:
  Basis Set: 6-31G*
  Basis Set:
  @DF-RHF Final Energy:  -212.30987736075849
    Total Energy =                       -212.3098773607583780
  Basis Set: 6-31G*
  Basis Set:
  Basis Set: 6-31G*
  Basis Set:
  @DF-RHF Final Energy:  -212.31145466482121
    Total Energy =                       -212.3114546648212126
  Basis Set: 6-31G*
  Basis Set:
  Basis Set: 6-31G*
  Basis Set:
  @DF-RHF Final Energy:  -212.31156102942876
    Total Energy =                       -212.3115610294286739
  Basis Set: 6-31G*
  Basis Set:
  Basis Set: 6-31G*
  Basis Set:
  @DF-RHF Final Energy:  -212.31154951588474
    Total Energy =                       -212.3115495158847352
  Basis Set: 6-31G*
  Basis Set:
  Basis Set: 6-31G*
  Basis Set:
  @DF-RHF Final Energy:  -212.31157589574136
    Total Energy =                       -212.3115758957414414
  Basis Set: 6-31G*
  Basis Set:
  Charge       = 0
  Multiplicity = 1
  Basis Set: 6-31G*
  Basis Set:

    Orbital Energies (a.u.)
    -----------------------

    Doubly Occupied:

       1A    -15.532057     2A    -11.240904     3A    -11.210532
       4A    -11.209762     5A    -11.205636     6A     -1.175856
       7A     -1.053387     8A     -0.957769     9A     -0.851838
      10A     -0.776155    11A     -0.664809    12A     -0.646027
      13A     -0.596152    14A     -0.582772    15A     -0.546704
      16A     -0.523860    17A     -0.509283    18A     -0.470901
      19A     -0.464402    20A     -0.451532    21A     -0.379082

  @DF-RHF Final Energy:  -212.31157674992303

   => Energetics <=

    Nuclear Repulsion Energy =            189.4458364696058936
    One-Electron Energy =                -661.4159843391805680
    Two-Electron Energy =                 259.6585711196514126
    DFT Exchange-Correlation Energy =       0.0000000000000000
    Empirical Dispersion Energy =           0.0000000000000000
    PCM Polarization Energy =               0.0000000000000000
    EFP Energy =                            0.0000000000000000
    Total Energy =                       -212.3115767499232902
    Molecular point group: c1
  Basis Set: 6-31G*
  Basis Set:

  -Total Gradient:
     Atom            X                  Y                   Z
    ------   -----------------  -----------------  -----------------
       1       -0.000001643154    -0.000013179253    -0.000005423330
       2       -0.000000276343    -0.000032390468    -0.000011486587
       3        0.001260362481    -0.002081178735    -0.007705676843
       4       -0.000002125392    -0.000011896791    -0.000007371495
       5        0.003396099507    -0.005276785940     0.004980775156
       6       -0.001586484979     0.002602997804     0.005758799434
       7        0.000005160661     0.000000711970     0.000000124546
       8        0.000012119121     0.000011025420    -0.000010673971
       9       -0.003084211955     0.004819255671    -0.003015282975
      10       -0.000000591608    -0.000000223818     0.000003033516
      11       -0.000006143432    -0.000014447141     0.000014079977
      12        0.000020583508    -0.000002289122    -0.000000780707
      13       -0.000012689375    -0.000002193566     0.000004769624
      14       -0.000004760753     0.000006735346    -0.000005627003
      15        0.000004572006     0.000001126444     0.000005756425
      16        0.000000029707    -0.000007267818    -0.000005015765

  **** Optimization is complete! (in 7 steps) ****
    Final optimized geometry and variables:
    Molecular point group: c1

    Geometry (in Angstrom), charge = 0, multiplicity = 1:

    H            2.348422737819     1.704191566065     0.745039178068
    N            1.444944601967     1.287658475389     0.629026870048
    C            1.553147090769     0.068290847176    -0.166914538915
    H            0.871868172663     1.969325621088     0.171188530351
    C            0.253947958539    -0.757062579623    -0.151960833232
    H            2.335303475088    -0.511806339286     0.310264879959
    H            1.856626225576     0.262329700119    -1.196330300907
    C           -1.035133155737     0.072234871823    -0.119392900942
    H            0.220654572007    -1.350837621384    -1.062971354767
    H            0.256588049013    -1.436823033443     0.694434909141
    C           -2.286796608038    -0.801595872446    -0.198669364444
    H           -1.039913462273     0.773924702912    -0.953240479451
    H           -1.064512609038     0.664048184306     0.788358520905
    H           -2.308733600776    -1.379166053188    -1.118695355750
    H           -3.189309128327    -0.198946478210    -0.164996598606
    H           -2.326683420542    -1.501954628620     0.630935742728

  Mulliken Charges: (a.u.)
   Center  Symbol    Alpha    Beta     Spin     Total
       1     H     0.33212  0.33212  0.00000  0.33576
       2     N     3.92381  3.92381  0.00000 -0.84763
       3     C     3.06556  3.06556  0.00000 -0.13113
       4     H     0.33327  0.33327  0.00000  0.33347
       5     C     3.14881  3.14881  0.00000 -0.29763
       6     H     0.41869  0.41869  0.00000  0.16261
       7     H     0.43199  0.43199  0.00000  0.13602
       8     C     3.16023  3.16023  0.00000 -0.32046
       9     H     0.42548  0.42548  0.00000  0.14904
      10     H     0.41862  0.41862  0.00000  0.16275
      11     C     3.23882  3.23882  0.00000 -0.47764
      12     H     0.42977  0.42977  0.00000  0.14046
      13     H     0.40849  0.40849  0.00000  0.18302
      14     H     0.42332  0.42332  0.00000  0.15336
      15     H     0.41994  0.41994  0.00000  0.16013
      16     H     0.42108  0.42108  0.00000  0.15784

   Total alpha = 21.00000, Total beta = 21.00000, Total charge = -0.00000
