  ==> Input File <==

--------------------------------------------------------------------------
set {
	reference rhf
	basis cc-pvtz
}

set_num_threads( 4 )
memory 2 gb

molecule MOL {
0 1

H	 -2.123894	 -0.667238	 -0.609809
O	 -2.041679	 -0.058866	 0.103463
C	 -0.959304	 0.780994	 -0.094939
C	 0.354905	 0.037902	 -0.006215
H	 -0.985899	 1.279578	 -1.057596
H	 -0.969809	 1.529522	 0.682889
F	 1.070628	 0.209723	 -1.103489
F	 1.066198	 0.486037	 1.007113
F	 0.191668	 -1.253104	 0.156970

	symmetry c1
}
set optking {
	frozen_dihedral = ("
		7 4 3 5
	")
}

ee = optimize('scf')
oeprop('DIPOLE', 'QUADRUPOLE', 'MULLIKEN_CHARGES')
f=open( 'psi4out.xyz', 'w' )
f.write( "9  " )
f.write( str(ee) + "\n" )
f.write( MOL.save_string_xyz() )
f.close()
--------------------------------------------------------------------------

    Molecular point group: c1
  Charge       = 0
  Multiplicity = 1
  Basis Set: CC-PVTZ
  Basis Set:
  @DF-RHF Final Energy:  -450.83916936100724
    Total Energy =                       -450.8391693610070092
    Molecular point group: c1
  Basis Set: CC-PVTZ
  Basis Set:
  Basis Set: CC-PVTZ
  Basis Set:
  @DF-RHF Final Energy:  -450.83962444367410
    Total Energy =                       -450.8396244436736424
  Basis Set: CC-PVTZ
  Basis Set:
  Basis Set: CC-PVTZ
  Basis Set:
  @DF-RHF Final Energy:  -450.84005650869165
    Total Energy =                       -450.8400565086917027
  Basis Set: CC-PVTZ
  Basis Set:
  Basis Set: CC-PVTZ
  Basis Set:
  @DF-RHF Final Energy:  -450.84007805469298
    Total Energy =                       -450.8400780546930378
  Basis Set: CC-PVTZ
  Basis Set:
  Basis Set: CC-PVTZ
  Basis Set:
  @DF-RHF Final Energy:  -450.84008296141388
    Total Energy =                       -450.8400829614139411
  Basis Set: CC-PVTZ
  Basis Set:
  Charge       = 0
  Multiplicity = 1
  Basis Set: CC-PVTZ
  Basis Set:

    Orbital Energies (a.u.)
    -----------------------

    Doubly Occupied:

       1A    -26.338834     2A    -26.336954     3A    -26.336659
       4A    -20.582798     5A    -11.495739     6A    -11.309924
       7A     -1.747983     8A     -1.644279     9A     -1.641889
      10A     -1.406107    11A     -1.044716    12A     -0.930189
      13A     -0.836627    14A     -0.834902    15A     -0.814033
      16A     -0.729339    17A     -0.719387    18A     -0.704806
      19A     -0.670805    20A     -0.665664    21A     -0.648066
      22A     -0.631161    23A     -0.616196    24A     -0.528978
      25A     -0.483933

  @DF-RHF Final Energy:  -450.84008385411391

   => Energetics <=

    Nuclear Repulsion Energy =            276.5436062653227509
    One-Electron Energy =               -1175.3674472537611564
    Two-Electron Energy =                 447.9837571343244349
    DFT Exchange-Correlation Energy =       0.0000000000000000
    Empirical Dispersion Energy =           0.0000000000000000
    PCM Polarization Energy =               0.0000000000000000
    EFP Energy =                            0.0000000000000000
    Total Energy =                       -450.8400838541139706
    Molecular point group: c1
  Basis Set: CC-PVTZ
  Basis Set:

  -Total Gradient:
     Atom            X                  Y                   Z
    ------   -----------------  -----------------  -----------------
       1       -0.000014504585    -0.000003090645     0.000005158157
       2        0.000077365086     0.000023020088    -0.000016524760
       3       -0.001254369010    -0.002333265672    -0.001120841260
       4        0.001073913270     0.001967572828     0.001057529811
       5        0.000826710989     0.001565440656     0.000791896951
       6        0.000013029935     0.000015196217    -0.000000487988
       7       -0.000624437848    -0.001232720611    -0.000707460533
       8       -0.000071217108    -0.000023070683    -0.000071043459
       9       -0.000026490734     0.000020917818     0.000061773088

  **** Optimization is complete! (in 6 steps) ****
    Final optimized geometry and variables:
    Molecular point group: c1

    Geometry (in Angstrom), charge = 0, multiplicity = 1:

    H           -2.138055528079    -0.700119306742    -0.570736138127
    O           -2.081901162052    -0.033540759240     0.090553669840
    C           -0.980100516739     0.776811579830    -0.110664098284
    C            0.360641379508     0.032871572434    -0.006855802023
    H           -0.998441704429     1.281242097756    -1.069101426529
    H           -0.994111921864     1.528592473431     0.662579224827
    F            1.089795925254     0.217941002752    -1.092171618751
    F            1.076143718361     0.451035255472     1.014699430310
    F            0.197220657507    -1.264075749881     0.127305113483

  Mulliken Charges: (a.u.)
   Center  Symbol    Alpha    Beta     Spin     Total
       1     H     0.38796  0.38796  0.00000  0.22407
       2     O     4.18439  4.18439  0.00000 -0.36877
       3     C     3.00813  3.00813  0.00000 -0.01626
       4     C     2.67775  2.67775  0.00000  0.64450
       5     H     0.46110  0.46110  0.00000  0.07781
       6     H     0.44830  0.44830  0.00000  0.10341
       7     F     4.61301  4.61301  0.00000 -0.22601
       8     F     4.60959  4.60959  0.00000 -0.21918
       9     F     4.60978  4.60978  0.00000 -0.21957

   Total alpha = 25.00000, Total beta = 25.00000, Total charge = -0.00000
