  ==> Input File <==

--------------------------------------------------------------------------
set {
	reference rhf
	basis 6-31G*
}

set_num_threads( 4 )
memory 2 gb

molecule MOL {
0 1

H	 -1.227050	 0.537072	 -0.994127
C	 -0.790252	 0.431209	 0.000000
N	 0.538815	 0.649616	 0.000000
O	 -1.452535	 0.151684	 0.955226
C	 1.521968	 -0.411503	 0.000000
H	 0.852804	 1.592852	 0.000000
H	 2.150599	 -0.357004	 -0.881901
H	 0.999455	 -1.354525	 0.000000
H	 2.150599	 -0.357004	 0.881901

	symmetry c1
}
set optking {
	frozen_dihedral = ("
		1 2 3 6
	")
}

ee = optimize('scf')
oeprop('DIPOLE', 'QUADRUPOLE', 'MULLIKEN_CHARGES')
f=open( 'psi4out.xyz', 'w' )
f.write( "9  " )
f.write( str(ee) + "\n" )
f.write( MOL.save_string_xyz() )
f.close()
--------------------------------------------------------------------------

    Molecular point group: c1
  Charge       = 0
  Multiplicity = 1
  Basis Set: 6-31G*
  Basis Set:
  @DF-RHF Final Energy:  -207.91803879312192
    Total Energy =                       -207.9180387931220366
    Molecular point group: c1
  Basis Set: 6-31G*
  Basis Set:
  Basis Set: 6-31G*
  Basis Set:
  @DF-RHF Final Energy:  -207.92340224503766
    Total Energy =                       -207.9234022450376926
  Basis Set: 6-31G*
  Basis Set:
  Basis Set: 6-31G*
  Basis Set:
  @DF-RHF Final Energy:  -207.92879263086718
    Total Energy =                       -207.9287926308671786
  Basis Set: 6-31G*
  Basis Set:
  Basis Set: 6-31G*
  Basis Set:
  @DF-RHF Final Energy:  -207.88827379942762
    Total Energy =                       -207.8882737994277079
  Basis Set: 6-31G*
  Basis Set:
  @DF-RHF Final Energy:  -207.93043775529719
    Total Energy =                       -207.9304377552972198
  @DF-RHF Final Energy:  -207.94092261024949
    Total Energy =                       -207.9409226102495722
  @DF-RHF Final Energy:  -207.94208142209041
    Total Energy =                       -207.9420814220904106
  @DF-RHF Final Energy:  -207.93615653294907
    Total Energy =                       -207.9361565329491555
  @DF-RHF Final Energy:  -207.94290496614960
    Total Energy =                       -207.9429049661495981
  Basis Set: 6-31G*
  Basis Set:
  @DF-RHF Final Energy:  -207.94342853668581
    Total Energy =                       -207.9434285366858717
  Basis Set: 6-31G*
  Basis Set:
  Basis Set: 6-31G*
  Basis Set:
  @DF-RHF Final Energy:  -207.94350009362563
    Total Energy =                       -207.9435000936255733
  Basis Set: 6-31G*
  Basis Set:
  Basis Set: 6-31G*
  Basis Set:
  @DF-RHF Final Energy:  -207.94350442286813
    Total Energy =                       -207.9435044228682159
  Basis Set: 6-31G*
  Basis Set:
  Charge       = 0
  Multiplicity = 1
  Basis Set: 6-31G*
  Basis Set:

    Orbital Energies (a.u.)
    -----------------------

    Doubly Occupied:

       1A    -20.559817     2A    -15.579533     3A    -11.352483
       4A    -11.252080     5A     -1.414816     6A     -1.226425
       7A     -0.949505     8A     -0.809329     9A     -0.725528
      10A     -0.655993    11A     -0.644283    12A     -0.569825
      13A     -0.547756    14A     -0.529917    15A     -0.441721
      16A     -0.410826

  @DF-RHF Final Energy:  -207.94350484810664

   => Energetics <=

    Nuclear Repulsion Energy =            122.6076842736685819
    One-Electron Energy =                -525.7627004963684385
    Two-Electron Energy =                 195.2115113745932717
    DFT Exchange-Correlation Energy =       0.0000000000000000
    Empirical Dispersion Energy =           0.0000000000000000
    PCM Polarization Energy =               0.0000000000000000
    EFP Energy =                            0.0000000000000000
    Total Energy =                       -207.9435048481065564
    Molecular point group: c1
  Basis Set: 6-31G*
  Basis Set:

  -Total Gradient:
     Atom            X                  Y                   Z
    ------   -----------------  -----------------  -----------------
       1       -0.002050455810    -0.011738488798    -0.006095361348
       2        0.003883184760     0.014187882285     0.010959976506
       3       -0.007342381845     0.002004929437    -0.017155372713
       4        0.000044719007     0.000043076631     0.000025958160
       5       -0.000094479810    -0.000069215337     0.000029242604
       6        0.005541785815    -0.004485775262     0.012294452347
       7       -0.000043823787     0.000050152801    -0.000028913231
       8        0.000015537033    -0.000019910761    -0.000052827616
       9        0.000045914640     0.000027349004     0.000022845290

  **** Optimization is complete! (in 13 steps) ****
    Final optimized geometry and variables:
    Molecular point group: c1

    Geometry (in Angstrom), charge = 0, multiplicity = 1:

    H           -1.577577653726     0.842081121513    -0.737935864788
    C           -0.814916745835     0.383130099136    -0.109292753320
    N            0.465919226877     0.448362398999    -0.666244822772
    O           -1.112007594142    -0.258414468610     0.844546897695
    C            1.399847971608    -0.543765171498    -0.130583355007
    H            0.865266182242     1.357124495065    -0.512692376182
    H            2.341388512197    -0.434178885651    -0.652948982735
    H            1.013657024168    -1.534563664205    -0.323413116341
    H            1.567312586175    -0.446287854754     0.936620860262

  Mulliken Charges: (a.u.)
   Center  Symbol    Alpha    Beta     Spin     Total
       1     H     0.41535  0.41535  0.00000  0.16929
       2     C     2.77348  2.77348  0.00000  0.45303
       3     N     3.86404  3.86404  0.00000 -0.72808
       4     O     4.24568  4.24568  0.00000 -0.49136
       5     C     3.15378  3.15378  0.00000 -0.30757
       6     H     0.31690  0.31690  0.00000  0.36619
       7     H     0.41362  0.41362  0.00000  0.17276
       8     H     0.40439  0.40439  0.00000  0.19122
       9     H     0.41274  0.41274  0.00000  0.17452

   Total alpha = 16.00000, Total beta = 16.00000, Total charge = -0.00000
