  ==> Input File <==

--------------------------------------------------------------------------
set {
	reference rhf
	basis 6-31G*
}

set_num_threads( 1 )
memory 2 gb

molecule MOL {
0 1

H	 3.089270	 -1.380733	 0.000000
O	 2.178328	 -1.639175	 0.000000
C	 1.368216	 -0.558384	 0.000000
C	 1.242850	 0.277671	 -1.102089
C	 0.647885	 -0.296717	 1.152425
H	 1.804325	 0.072251	 -1.997961
C	 0.398089	 1.373780	 -1.051157
H	 0.743797	 -0.941700	 2.004408
C	 -0.195617	 0.802709	 1.195123
H	 0.309340	 2.013567	 -1.910327
C	 -0.325595	 1.642837	 0.096459
C	 -0.972418	 1.089625	 2.430085
H	 -0.982344	 2.493685	 0.138211
O	 -0.930743	 0.432836	 3.420760
H	 -1.612236	 1.975642	 2.376660

	symmetry c1
}
set optking {
	frozen_dihedral = ("
		11 9 12 14
	")
}

ee = energy('scf')
oeprop('DIPOLE', 'QUADRUPOLE', 'MULLIKEN_CHARGES')
f=open( 'psi4out.xyz', 'w' )
f.write( "15  " )
f.write( str(ee) + "\n" )
f.write( MOL.save_string_xyz() )
f.close()
--------------------------------------------------------------------------

    Molecular point group: c1

    Geometry (in Angstrom), charge = 0, multiplicity = 1:

       Center              X                  Y                   Z               Mass
    ------------   -----------------  -----------------  -----------------  -----------------
           H          2.685339984130    -1.683500706359    -0.720935840556     1.007825032070
           O          1.774397984130    -1.941942706359    -0.720935840556    15.994914619560
           C          0.964285984130    -0.861151706359    -0.720935840556    12.000000000000
           C          0.838919984130    -0.025096706359    -1.823024840556    12.000000000000
           C          0.243954984130    -0.599484706359     0.431489159444    12.000000000000
           H          1.400394984130    -0.230516706359    -2.718896840556     1.007825032070
           C         -0.005841015870     1.071012293641    -1.772092840556    12.000000000000
           H          0.339866984130    -1.244467706359     1.283472159444     1.007825032070
           C         -0.599547015870     0.499941293641     0.474187159444    12.000000000000
           H         -0.094590015870     1.710799293641    -2.631262840556     1.007825032070
           C         -0.729525015870     1.340069293641    -0.624476840556    12.000000000000
           C         -1.376348015870     0.786857293641     1.709149159444    12.000000000000
           H         -1.386274015870     2.190917293641    -0.582724840556     1.007825032070
           O         -1.334673015870     0.130068293641     2.699824159444    15.994914619560
           H         -2.016166015870     1.672874293641     1.655724159444     1.007825032070

  Charge       = 0
  Multiplicity = 1
  Basis Set: 6-31G*
  Basis Set:

    Orbital Energies (a.u.)
    -----------------------

    Doubly Occupied:

       1A    -20.589113     2A    -20.564190     3A    -11.332627
       4A    -11.304060     5A    -11.251939     6A    -11.250747
       7A    -11.249897     8A    -11.249262     9A    -11.241511
      10A     -1.412391    11A     -1.405116    12A     -1.169297
      13A     -1.048096    14A     -1.025444    15A     -0.896780
      16A     -0.846304    17A     -0.804874    18A     -0.740844
      19A     -0.698682    20A     -0.683091    21A     -0.647144
      22A     -0.635685    23A     -0.618890    24A     -0.606832
      25A     -0.555116    26A     -0.546089    27A     -0.533674
      28A     -0.498480    29A     -0.485958    30A     -0.422553
      31A     -0.351905    32A     -0.338270

  @DF-RHF Final Energy:  -418.28235874823400

   => Energetics <=

    Nuclear Repulsion Energy =            403.1735024037903372
    One-Electron Energy =               -1368.9020135062132795
    Two-Electron Energy =                 547.4461523541892802
    DFT Exchange-Correlation Energy =       0.0000000000000000
    Empirical Dispersion Energy =           0.0000000000000000
    PCM Polarization Energy =               0.0000000000000000
    EFP Energy =                            0.0000000000000000
    Total Energy =                       -418.2823587482337189

  Mulliken Charges: (a.u.)
   Center  Symbol    Alpha    Beta     Spin     Total
       1     H     0.26923  0.26923  0.00000  0.46154
       2     O     4.38330  4.38330  0.00000 -0.76660
       3     C     2.81581  2.81581  0.00000  0.36838
       4     C     3.11488  3.11488  0.00000 -0.22977
       5     C     3.10806  3.10806  0.00000 -0.21612
       6     H     0.39134  0.39134  0.00000  0.21733
       7     C     3.10070  3.10070  0.00000 -0.20141
       8     H     0.37143  0.37143  0.00000  0.25714
       9     C     3.05119  3.05119  0.00000 -0.10238
      10     H     0.39321  0.39321  0.00000  0.21358
      11     C     3.10820  3.10820  0.00000 -0.21639
      12     C     2.83212  2.83212  0.00000  0.33576
      13     H     0.39195  0.39195  0.00000  0.21610
      14     O     4.24619  4.24619  0.00000 -0.49238
      15     H     0.42239  0.42239  0.00000  0.15522

   Total alpha = 32.00000, Total beta = 32.00000, Total charge = -0.00000
