  ==> Input File <==

--------------------------------------------------------------------------
set {
	reference rhf
	basis cc-pvtz
}

set_num_threads( 4 )
memory 2 gb

molecule MOL {
0 1

H	 -2.255759	 -0.112687	 1.018288
O	 -2.041679	 -0.058866	 0.103463
C	 -0.959304	 0.780994	 -0.094939
C	 0.354905	 0.037902	 -0.006215
H	 -0.985899	 1.279578	 -1.057596
H	 -0.969809	 1.529522	 0.682889
F	 0.412060	 -0.931028	 -0.902708
F	 1.359641	 0.856111	 -0.239961
F	 0.545380	 -0.506387	 1.171682

	symmetry c1
}
set optking {
	frozen_dihedral = ("
		1 2 3 5
	")
}

ee = optimize('scf')
oeprop('DIPOLE', 'QUADRUPOLE', 'MULLIKEN_CHARGES')
f=open( 'psi4out.xyz', 'w' )
f.write( "9  " )
f.write( str(ee) + "\n" )
f.write( MOL.save_string_xyz() )
f.close()
--------------------------------------------------------------------------

    Molecular point group: c1
  Charge       = 0
  Multiplicity = 1
  Basis Set: CC-PVTZ
  Basis Set:
  @DF-RHF Final Energy:  -450.84484003159321
    Total Energy =                       -450.8448400315932645
    Molecular point group: c1
  Basis Set: CC-PVTZ
  Basis Set:
  Basis Set: CC-PVTZ
  Basis Set:
  @DF-RHF Final Energy:  -450.84622177141273
    Total Energy =                       -450.8462217714125586
  Basis Set: CC-PVTZ
  Basis Set:
  Basis Set: CC-PVTZ
  Basis Set:
  @DF-RHF Final Energy:  -450.84648928195060
    Total Energy =                       -450.8464892819506531
  Basis Set: CC-PVTZ
  Basis Set:
  Basis Set: CC-PVTZ
  Basis Set:
  @DF-RHF Final Energy:  -450.84649920876797
    Total Energy =                       -450.8464992087681935
  Basis Set: CC-PVTZ
  Basis Set:
  Charge       = 0
  Multiplicity = 1
  Basis Set: CC-PVTZ
  Basis Set:

    Orbital Energies (a.u.)
    -----------------------

    Doubly Occupied:

       1A    -26.336494     2A    -26.335575     3A    -26.332611
       4A    -20.583651     5A    -11.490727     6A    -11.310176
       7A     -1.744597     8A     -1.641429     9A     -1.639732
      10A     -1.407053    11A     -1.049922    12A     -0.927290
      13A     -0.834972    14A     -0.833532    15A     -0.803753
      16A     -0.737628    17A     -0.715756    18A     -0.704760
      19A     -0.669641    20A     -0.662050    21A     -0.645947
      22A     -0.634535    23A     -0.609637    24A     -0.535769
      25A     -0.484558

  @DF-RHF Final Energy:  -450.84650065997482

   => Energetics <=

    Nuclear Repulsion Energy =            277.4825872099346498
    One-Electron Energy =               -1177.3145888839387680
    Two-Electron Energy =                 448.9855010140291256
    DFT Exchange-Correlation Energy =       0.0000000000000000
    Empirical Dispersion Energy =           0.0000000000000000
    PCM Polarization Energy =               0.0000000000000000
    EFP Energy =                            0.0000000000000000
    Total Energy =                       -450.8465006599749927
    Molecular point group: c1
  Basis Set: CC-PVTZ
  Basis Set:

  -Total Gradient:
     Atom            X                  Y                   Z
    ------   -----------------  -----------------  -----------------
       1       -0.001213969616     0.001535642756    -0.000231487031
       2        0.001354826118    -0.001518542239     0.000429440497
       3        0.000762882843    -0.001323125954    -0.000868880485
       4       -0.000073947623     0.000043543738     0.000170391292
       5       -0.000896078856     0.001278329948     0.000661503939
       6       -0.000009127226    -0.000030913696     0.000013538536
       7        0.000047853474     0.000039851000     0.000076910706
       8        0.000091782892    -0.000008751270    -0.000105569865
       9       -0.000064222007    -0.000016034284    -0.000145847585

  **** Optimization is complete! (in 5 steps) ****
    Final optimized geometry and variables:
    Molecular point group: c1

    Geometry (in Angstrom), charge = 0, multiplicity = 1:

    H           -2.261711241447    -0.118666325966     1.001349379161
    O           -2.035411306610    -0.069473136238     0.090845231371
    C           -0.957135966296     0.778764738167    -0.102442010216
    C            0.353837684266     0.028699495788    -0.034121796616
    H           -1.040030537237     1.229914702848    -1.080528899698
    H           -0.912189981970     1.573625033127     0.632801998098
    F            0.439092796126    -0.911728780617    -0.944149565351
    F            1.361057364746     0.859219010559    -0.218734735789
    F            0.518082315922    -0.541447333730     1.143290516115

  Mulliken Charges: (a.u.)
   Center  Symbol    Alpha    Beta     Spin     Total
       1     H     0.38599  0.38599  0.00000  0.22801
       2     O     4.19226  4.19226  0.00000 -0.38452
       3     C     2.99475  2.99475  0.00000  0.01050
       4     C     2.68027  2.68027  0.00000  0.63946
       5     H     0.44849  0.44849  0.00000  0.10302
       6     H     0.46125  0.46125  0.00000  0.07751
       7     F     4.60771  4.60771  0.00000 -0.21543
       8     F     4.61381  4.61381  0.00000 -0.22762
       9     F     4.61547  4.61547  0.00000 -0.23093

   Total alpha = 25.00000, Total beta = 25.00000, Total charge = -0.00000
