                              Psi4 1.0.54 Driver

  ==> Input File <==

--------------------------------------------------------------------------
set {
	reference rhf
	basis cc-pvtz
}

set_num_threads( 4 )
memory 2 gb

molecule MOL {
0 1

O	 1.360407	 0.106959	 -0.890290
C	 0.576499	 0.134701	 -0.003900
C	 -0.765656	 -0.550508	 -0.002152
O	 0.780128	 0.795267	 1.124001
C	 -1.945526	 0.411052	 0.000603
H	 -0.794329	 -1.203792	 -0.868145
H	 -0.791555	 -1.205429	 0.862701
C	 -3.282915	 -0.321280	 0.002596
H	 -1.880300	 1.059126	 -0.864925
H	 -1.877207	 1.057892	 0.866807
H	 -3.388495	 -0.952755	 -0.873419
H	 -4.107811	 0.380864	 0.004116
H	 -3.385717	 -0.953283	 0.878571
C	 2.003088	 1.491551	 1.256550
H	 2.838387	 0.810303	 1.191496
H	 1.976382	 1.956282	 2.228661
H	 2.099557	 2.242447	 0.486556

	symmetry c1
}
set optking {
	frozen_dihedral = ("
		1 2 3 6
	")
}

ee,wfn = optimize('scf', return_wfn=True)
oeprop( wfn, 'DIPOLE', 'QUADRUPOLE', 'MULLIKEN_CHARGES')
f=open( 'psi4out.xyz', 'w' )
f.write( "17  " )
f.write( str(ee) + "\n" )
f.write( MOL.save_string_xyz() )
f.close()
--------------------------------------------------------------------------

    Molecular point group: c1
  Charge       = 0
  Multiplicity = 1
  Basis Set: CC-PVTZ
  Basis Set:
  @DF-RHF Final Energy:  -345.03382330610719
    Total Energy =                       -345.0338233061071946
    Molecular point group: c1
  Basis Set: CC-PVTZ
  Basis Set:
  Basis Set: CC-PVTZ
  Basis Set:
  @DF-RHF Final Energy:  -345.03411500098014
    Total Energy =                       -345.0341150009801368
  Basis Set: CC-PVTZ
  Basis Set:
  Basis Set: CC-PVTZ
  Basis Set:
  @DF-RHF Final Energy:  -345.03317247484114
    Total Energy =                       -345.0331724748410807
  Basis Set: CC-PVTZ
  Basis Set:
  Basis Set: CC-PVTZ
  Basis Set:
  @DF-RHF Final Energy:  -345.03416173099805
    Total Energy =                       -345.0341617309980506
  Basis Set: CC-PVTZ
  Basis Set:
  Basis Set: CC-PVTZ
  Basis Set:
  @DF-RHF Final Energy:  -345.03420779120097
    Total Energy =                       -345.0342077912006857
  Basis Set: CC-PVTZ
  Basis Set:
  Charge       = 0
  Multiplicity = 1
  Basis Set: CC-PVTZ
  Basis Set:

    Orbital Energies (a.u.)
    -----------------------

    Doubly Occupied:

       1A    -20.597249     2A    -20.533097     3A    -11.363740
       4A    -11.278816     5A    -11.232994     6A    -11.229834
       7A    -11.216767     8A     -1.472085     9A     -1.364915
      10A     -1.085665    11A     -1.000197    12A     -0.942486
      13A     -0.831618    14A     -0.776301    15A     -0.699413
      16A     -0.683507    17A     -0.676404    18A     -0.638564
      19A     -0.597180    20A     -0.580597    21A     -0.549432
      22A     -0.548491    23A     -0.527328    24A     -0.510377
      25A     -0.489827    26A     -0.484767    27A     -0.458763
      28A     -0.435044

  @DF-RHF Final Energy:  -345.03420839932352

   => Energetics <=

    Nuclear Repulsion Energy =            314.6929219754087512
    One-Electron Energy =               -1093.8433436122618332
    Two-Electron Energy =                 434.1162132375295641
    DFT Exchange-Correlation Energy =       0.0000000000000000
    Empirical Dispersion Energy =           0.0000000000000000
    PCM Polarization Energy =               0.0000000000000000
    EFP Energy =                            0.0000000000000000
    Total Energy =                       -345.0342083993234610
    Molecular point group: c1
  Basis Set: CC-PVTZ
  Basis Set:

  -Total Gradient:
     Atom            X                  Y                   Z
    ------   -----------------  -----------------  -----------------
       1        0.000070639601    -0.000256983959     0.000164935117
       2       -0.000176071543     0.000291977422    -0.000382931532
       3        0.000187963155    -0.000299258875     0.000231712288
       4       -0.000007151809     0.000034982135     0.000091373787
       5        0.000026567158    -0.000010547403     0.000063122720
       6       -0.000102769757     0.000177226349    -0.000153342547
       7        0.000006055073     0.000020462214    -0.000035211354
       8       -0.000030607951     0.000000704876    -0.000029363645
       9       -0.000012692969    -0.000026457132     0.000041242771
      10       -0.000008748823     0.000005515525    -0.000015381521
      11        0.000004897066     0.000000290003     0.000016444414
      12        0.000005128055    -0.000013788787    -0.000006208618
      13        0.000012091753     0.000027157580    -0.000018247052
      14        0.000013201365     0.000046602003     0.000003538607
      15       -0.000019758486     0.000019252818    -0.000001043883
      16        0.000019073677     0.000003967165    -0.000003781188
      17        0.000012184437    -0.000021101935     0.000033141635

  **** Optimization is complete! (in 6 steps) ****
    Final optimized geometry and variables:
    Molecular point group: c1

    Geometry (in Angstrom), charge = 0, multiplicity = 1:

    O            1.530628230574    -0.259066594629    -1.052361141367
    C            0.735957574433    -0.186700139193    -0.177557314413
    C           -0.593083951771    -0.895155716371    -0.162369849003
    O            0.921710874574     0.543634163688     0.910187318135
    C           -1.775497741490     0.071532666819    -0.282477964172
    H           -0.591310542446    -1.594316786413    -0.986225795465
    H           -0.670622032318    -1.452918461236     0.764088207414
    C           -3.112849422251    -0.659659253911    -0.303650989539
    H           -1.666826870712     0.654391299500    -1.191563031997
    H           -1.752756133180     0.771084977579     0.544085149999
    H           -3.169704112508    -1.349895318587    -1.138147601162
    H           -3.934724599058     0.040177450295    -0.395743623539
    H           -3.261947449218    -1.228261191021     0.607963988737
    C            2.129029544847     1.272372416697     1.004349590193
    H            2.978421490611     0.605948600838     0.984015282992
    H            2.088658063521     1.795595914842     1.945917752217
    H            2.213961391595     1.976174149660     0.189784447657

  Mulliken Charges: (a.u.)
   Center  Symbol    Alpha    Beta     Spin     Total
       1     O     4.20007  4.20007  0.00000 -0.40013
       2     C     2.80740  2.80740  0.00000  0.38520
       3     C     3.07804  3.07804  0.00000 -0.15609
       4     O     4.15027  4.15027  0.00000 -0.30055
       5     C     3.09300  3.09300  0.00000 -0.18601
       6     H     0.43786  0.43786  0.00000  0.12428
       7     H     0.44701  0.44701  0.00000  0.10599
       8     C     3.15117  3.15117  0.00000 -0.30235
       9     H     0.44773  0.44773  0.00000  0.10454
      10     H     0.44432  0.44432  0.00000  0.11135
      11     H     0.45290  0.45290  0.00000  0.09421
      12     H     0.44615  0.44615  0.00000  0.10771
      13     H     0.45423  0.45423  0.00000  0.09155
      14     C     3.03718  3.03718  0.00000 -0.07436
      15     H     0.45271  0.45271  0.00000  0.09458
      16     H     0.44554  0.44554  0.00000  0.10891
      17     H     0.45441  0.45441  0.00000  0.09117

   Total alpha = 28.00000, Total beta = 28.00000, Total charge =  0.00000

*** Psi4 exiting successfully. Buy a developer a beer!
