                              Psi4 1.0.54 Driver

  ==> Input File <==

--------------------------------------------------------------------------
set {
	reference rhf
	basis cc-pvtz
}

set_num_threads( 4 )
memory 2 gb

molecule MOL {
0 1

H	 -1.478824	 -1.548350	 1.258117
C	 -2.125953	 -1.081668	 0.518986
O	 -1.401606	 -0.295183	 -0.366624
H	 -2.616656	 -1.856355	 -0.051943
H	 -2.883073	 -0.500829	 1.042703
C	 -0.718530	 0.758693	 0.228682
C	 0.718529	 0.758687	 -0.228709
H	 -1.176498	 1.708665	 -0.046615
H	 -0.748705	 0.673525	 1.312779
O	 1.401606	 -0.295166	 0.366636
H	 0.748705	 0.673477	 -1.312803
H	 1.176496	 1.708671	 0.046552
C	 2.714315	 -0.441627	 -0.061017
H	 2.765292	 -0.641548	 -1.128869
H	 3.305661	 0.447341	 0.150952
H	 3.143725	 -1.278506	 0.470147

	symmetry c1
}
set optking {
	frozen_dihedral = ("
		2 3 6 7
	")
}

ee,wfn = optimize('scf', return_wfn=True)
oeprop( wfn, 'DIPOLE', 'QUADRUPOLE', 'MULLIKEN_CHARGES')
f=open( 'psi4out.xyz', 'w' )
f.write( "16  " )
f.write( str(ee) + "\n" )
f.write( MOL.save_string_xyz() )
f.close()
--------------------------------------------------------------------------

    Molecular point group: c1
  Charge       = 0
  Multiplicity = 1
  Basis Set: CC-PVTZ
  Basis Set:
  @DF-RHF Final Energy:  -307.09575387609186
    Total Energy =                       -307.0957538760922034
    Molecular point group: c1
  Basis Set: CC-PVTZ
  Basis Set:
  Basis Set: CC-PVTZ
  Basis Set:
  @DF-RHF Final Energy:  -307.09600059245844
    Total Energy =                       -307.0960005924586085
  Basis Set: CC-PVTZ
  Basis Set:
  Basis Set: CC-PVTZ
  Basis Set:
  @DF-RHF Final Energy:  -307.09605892289949
    Total Energy =                       -307.0960589228996014
  Basis Set: CC-PVTZ
  Basis Set:
  Basis Set: CC-PVTZ
  Basis Set:
  @DF-RHF Final Energy:  -307.09606006128496
    Total Energy =                       -307.0960600612849589
  Basis Set: CC-PVTZ
  Basis Set:
  Charge       = 0
  Multiplicity = 1
  Basis Set: CC-PVTZ
  Basis Set:

    Orbital Energies (a.u.)
    -----------------------

    Doubly Occupied:

       1A    -20.549752     2A    -20.543687     3A    -11.266592
       4A    -11.265913     5A    -11.263065     6A    -11.258728
       7A     -1.390432     8A     -1.370987     9A     -1.030875
      10A     -0.939222    11A     -0.890424    12A     -0.823654
      13A     -0.684260    14A     -0.681903    15A     -0.658950
      16A     -0.634356    17A     -0.629847    18A     -0.602614
      19A     -0.545412    20A     -0.538657    21A     -0.513792
      22A     -0.478144    23A     -0.466788    24A     -0.420324
      25A     -0.410756

  @DF-RHF Final Energy:  -307.09606017543325

   => Energetics <=

    Nuclear Repulsion Energy =            260.9777711160830336
    One-Electron Energy =                -936.4293942215513198
    Two-Electron Energy =                 368.3555629300346936
    DFT Exchange-Correlation Energy =       0.0000000000000000
    Empirical Dispersion Energy =           0.0000000000000000
    PCM Polarization Energy =               0.0000000000000000
    EFP Energy =                            0.0000000000000000
    Total Energy =                       -307.0960601754336494
    Molecular point group: c1
  Basis Set: CC-PVTZ
  Basis Set:

  -Total Gradient:
     Atom            X                  Y                   Z
    ------   -----------------  -----------------  -----------------
       1       -0.000001466726     0.000001369562     0.000000035315
       2        0.000263049330    -0.000185826323     0.000031321919
       3       -0.000343064250     0.000220888510     0.000019965681
       4        0.000000082600    -0.000000896908     0.000005465411
       5       -0.000001851472    -0.000003132001     0.000005300691
       6        0.000003841625     0.000119001384    -0.000290334561
       7        0.000075425229    -0.000192668403     0.000227317539
       8        0.000007757421     0.000004029970    -0.000002043471
       9        0.000001568874     0.000005091330     0.000009077844
      10       -0.000012124713     0.000025178072    -0.000009431754
      11        0.000000180688     0.000003379456    -0.000000620593
      12        0.000006570977     0.000001443670     0.000001895086
      13        0.000003177095     0.000002980420     0.000003671867
      14       -0.000002000643     0.000000339087    -0.000000087411
      15       -0.000000174981    -0.000000705208    -0.000000890191
      16       -0.000000971050    -0.000000472618    -0.000000643372

  **** Optimization is complete! (in 5 steps) ****
    Final optimized geometry and variables:
    Molecular point group: c1

    Geometry (in Angstrom), charge = 0, multiplicity = 1:

    H           -1.600027027807    -1.440208124022     1.192685995952
    C           -2.239797736645    -0.978814324837     0.446351399088
    O           -1.507484293884    -0.179887632045    -0.425239920271
    H           -2.708047217253    -1.756265816350    -0.140125676037
    H           -3.018037448254    -0.412972217902     0.954032376252
    C           -0.812235261137     0.882088666843     0.152990566048
    C            0.624613185662     0.885779592839    -0.309251479469
    H           -1.280971308787     1.819825061554    -0.134167294521
    H           -0.830248597015     0.817662852157     1.236251603121
    O            1.299713557048    -0.179388514663     0.278012730642
    H            0.653019481803     0.806408938808    -1.393765487679
    H            1.089991024810     1.830913081326    -0.028529651598
    C            2.604852026846    -0.348353562917    -0.165454859043
    H            2.638951548268    -0.549220531727    -1.233655645323
    H            3.213206496273     0.530567045602     0.039002646267
    H            3.026980433347    -1.192080950312     0.360858419031

  Mulliken Charges: (a.u.)
   Center  Symbol    Alpha    Beta     Spin     Total
       1     H     0.46678  0.46678  0.00000  0.06645
       2     C     3.02981  3.02981  0.00000 -0.05962
       3     O     4.18043  4.18043  0.00000 -0.36085
       4     H     0.45038  0.45038  0.00000  0.09924
       5     H     0.47203  0.47203  0.00000  0.05595
       6     C     2.96587  2.96587  0.00000  0.06825
       7     C     2.96383  2.96383  0.00000  0.07234
       8     H     0.46085  0.46085  0.00000  0.07831
       9     H     0.46839  0.46839  0.00000  0.06321
      10     O     4.17401  4.17401  0.00000 -0.34802
      11     H     0.47160  0.47160  0.00000  0.05680
      12     H     0.47493  0.47493  0.00000  0.05015
      13     C     3.03114  3.03114  0.00000 -0.06228
      14     H     0.46964  0.46964  0.00000  0.06073
      15     H     0.47290  0.47290  0.00000  0.05420
      16     H     0.44743  0.44743  0.00000  0.10514

   Total alpha = 25.00000, Total beta = 25.00000, Total charge = -0.00000

*** Psi4 exiting successfully. Buy a developer a beer!
