  ==> Input File <==

--------------------------------------------------------------------------
set {
	reference rhf
	basis 6-31G*
}

set_num_threads( 4 )
memory 2 gb

molecule MOL {
0 1

H	 -3.892951	 0.981613	 -0.358725
C	 -3.196921	 0.361773	 0.172313
C	 -2.076860	 -0.007332	 -0.404944
H	 -3.439953	 0.057760	 1.173024
O	 -2.057451	 -0.875593	 -1.450223
H	 -1.115407	 0.367201	 -0.100761
C	 -0.830301	 -1.349467	 -1.887710
C	 -0.392992	 -2.570724	 -1.110803
H	 -0.048411	 -0.602238	 -1.810300
H	 -0.938285	 -1.636899	 -2.923185
F	 0.763418	 -3.006547	 -1.588905
F	 -0.220541	 -2.300197	 0.172515
F	 -1.265514	 -3.553086	 -1.200590

	symmetry c1
}
set optking {
	frozen_dihedral = ("
		6 3 2 1
	")
}

ee = optimize('scf')
oeprop('DIPOLE', 'QUADRUPOLE', 'MULLIKEN_CHARGES')
f=open( 'psi4out.xyz', 'w' )
f.write( "13  " )
f.write( str(ee) + "\n" )
f.write( MOL.save_string_xyz() )
f.close()
--------------------------------------------------------------------------

    Molecular point group: c1
  Charge       = 0
  Multiplicity = 1
  Basis Set: 6-31G*
  Basis Set:
  @DF-RHF Final Energy:  -527.43092032411641
    Total Energy =                       -527.4309203241160731
    Molecular point group: c1
  Basis Set: 6-31G*
  Basis Set:
  Basis Set: 6-31G*
  Basis Set:
  @DF-RHF Final Energy:  -527.46235321088477
    Total Energy =                       -527.4623532108844302
  Basis Set: 6-31G*
  Basis Set:
  Basis Set: 6-31G*
  Basis Set:
  @DF-RHF Final Energy:  -527.48909464506778
    Total Energy =                       -527.4890946450676665
  Basis Set: 6-31G*
  Basis Set:
  Basis Set: 6-31G*
  Basis Set:
  @DF-RHF Final Energy:  -527.49283249025484
    Total Energy =                       -527.4928324902548411
  Basis Set: 6-31G*
  Basis Set:
  @DF-RHF Final Energy:  -527.49321055381188
    Total Energy =                       -527.4932105538118776
  @DF-RHF Final Energy:  -527.49327726085869
    Total Energy =                       -527.4932772608583491
  @DF-RHF Final Energy:  -527.49326843908966
    Total Energy =                       -527.4932684390895474
  @DF-RHF Final Energy:  -527.47500253054795
    Total Energy =                       -527.4750025305480676
  @DF-RHF Final Energy:  -527.43294636282985
    Total Energy =                       -527.4329463628295116
  @DF-RHF Final Energy:  -527.48424841987708
    Total Energy =                       -527.4842484198773036
  @DF-RHF Final Energy:  -527.44209102790683
    Total Energy =                       -527.4420910279069403
  @DF-RHF Final Energy:  -527.48736535143621
    Total Energy =                       -527.4873653514365515
  @DF-RHF Final Energy:  -527.44823246015790
    Total Energy =                       -527.4482324601583514
  @DF-RHF Final Energy:  -527.48934608562740
    Total Energy =                       -527.4893460856271759
  @DF-RHF Final Energy:  -527.45308124893756
    Total Energy =                       -527.4530812489379059
  @DF-RHF Final Energy:  -527.48965003118406
    Total Energy =                       -527.4896500311841692
  @DF-RHF Final Energy:  -527.37332821067059
    Total Energy =                       -527.3733282106704792
  @DF-RHF Final Energy:  -527.42909114389909
    Total Energy =                       -527.4290911438993135
  @DF-RHF Final Energy:  -527.47777220778801
    Total Energy =                       -527.4777722077878934
  @DF-RHF Final Energy:  -527.44692739714378
    Total Energy =                       -527.4469273971440089
  @DF-RHF Final Energy:  -527.48897622023583
    Total Energy =                       -527.4889762202357133
  @DF-RHF Final Energy:  -527.46429574343779
    Total Energy =                       -527.4642957434380151
  @DF-RHF Final Energy:  -527.48842379753432
    Total Energy =                       -527.4884237975339829
  @DF-RHF Final Energy:  -527.46415333329651
    Total Energy =                       -527.4641533332969630
  @DF-RHF Final Energy:  -527.48834559201441
    Total Energy =                       -527.4883455920146389
  @DF-RHF Final Energy:  -527.46681262481695
    Total Energy =                       -527.4668126248168392
  @DF-RHF Final Energy:  -527.48852105719277
    Total Energy =                       -527.4885210571926564
  @DF-RHF Final Energy:  -527.46622650067923
    Total Energy =                       -527.4662265006791131
  @DF-RHF Final Energy:  -527.48839504534703
    Total Energy =                       -527.4883950453470334
  @DF-RHF Final Energy:  -527.46639914003617
    Total Energy =                       -527.4663991400362875
  @DF-RHF Final Energy:  -527.48750924624028
    Total Energy =                       -527.4875092462407338
  @DF-RHF Final Energy:  -527.46680792843483
    Total Energy =                       -527.4668079284347186
  @DF-RHF Final Energy:  -527.48762681883750
    Total Energy =                       -527.4876268188374979
  @DF-RHF Final Energy:  -527.46780838254563
    Total Energy =                       -527.4678083825457406
  @DF-RHF Final Energy:  -527.48771858786631
    Total Energy =                       -527.4877185878661976
  @DF-RHF Final Energy:  -527.46012888779478
    Total Energy =                       -527.4601288877945535
  Basis Set: 6-31G*
  Basis Set:
  @DF-RHF Final Energy:  -527.48135168685440
    Total Energy =                       -527.4813516868543957
  Basis Set: 6-31G*
  Basis Set:
  Basis Set: 6-31G*
  Basis Set:
  @DF-RHF Final Energy:  -527.46449033616602
    Total Energy =                       -527.4644903361659090
  Basis Set: 6-31G*
  Basis Set:
  Basis Set: 6-31G*
  Basis Set:
  @DF-RHF Final Energy:  -527.48506354156257
    Total Energy =                       -527.4850635415625675
  Basis Set: 6-31G*
  Basis Set:
  Charge       = 0
  Multiplicity = 1
  Basis Set: 6-31G*
  Basis Set:

    Orbital Energies (a.u.)
    -----------------------

    Doubly Occupied:

       1A    -26.336957     2A    -26.335231     3A    -26.332667
       4A    -20.587123     5A    -11.494221     6A    -11.306193
       7A    -11.289216     8A    -11.248373     9A     -1.731304
      10A     -1.631288    11A     -1.629490    12A     -1.421464
      13A     -1.081153    14A     -1.006538    15A     -0.913055
      16A     -0.828741    17A     -0.821904    18A     -0.813556
      19A     -0.783554    20A     -0.707262    21A     -0.704132
      22A     -0.676599    23A     -0.672013    24A     -0.655907
      25A     -0.647530    26A     -0.635625    27A     -0.633257
      28A     -0.571396    29A     -0.561458    30A     -0.528342
      31A     -0.475280    32A     -0.340997

  @DF-RHF Final Energy:  -527.46798841351983

   => Energetics <=

    Nuclear Repulsion Energy =            413.1041686509019542
    One-Electron Energy =               -1550.3406607866886588
    Two-Electron Energy =                 609.7685037222663595
    DFT Exchange-Correlation Energy =       0.0000000000000000
    Empirical Dispersion Energy =           0.0000000000000000
    PCM Polarization Energy =               0.0000000000000000
    EFP Energy =                            0.0000000000000000
    Total Energy =                       -527.4679884135202883
    Molecular point group: c1
  Basis Set: 6-31G*
  Basis Set:

  -Total Gradient:
     Atom            X                  Y                   Z
    ------   -----------------  -----------------  -----------------
       1       -0.002363287468     0.023779748681    -0.007928014426
       2        0.003316260238    -0.000927191122    -0.019764580192
       3        0.054657359007    -0.043960803792     0.051766247528
       4       -0.014599704538    -0.010816359278     0.005722109100
       5       -0.013713031142     0.025403743983     0.016007563082
       6       -0.029838944670     0.007209010550    -0.044921922355
       7        0.002173673927    -0.001875618252    -0.003171317245
       8        0.001889320091    -0.003834256953     0.002178903779
       9        0.001104345122     0.000757752116     0.000521059014
      10       -0.000302165014    -0.000239675424     0.001743442819
      11        0.000562304337     0.001315247798    -0.002676845429
      12        0.000974053750     0.003072753935     0.002950143898
      13       -0.003860183634     0.000115647746    -0.002426789576

    Molecular point group: c1

    Geometry (in Angstrom), charge = 0, multiplicity = 1:

    H           -3.021147771717     2.029589062913     0.648333799198
    C           -2.110029386758     1.984440335576     1.209410804440
    C           -0.950879623794     1.808083647655     0.667858799524
    H           -2.044730071717     2.650069180468     2.049840936027
    O           -0.875572719031     1.059779025683    -0.527369150669
    H           -0.113271921787     2.476648910352     0.549108795750
    C            0.358387190413     0.559287017583    -0.873287664410
    C            0.638148474278    -0.780301765276    -0.227480179549
    H            1.166899123145     1.227659164521    -0.599224686694
    H            0.375075223621     0.418394372701    -1.946437098049
    F            1.776709271417    -1.269345357216    -0.695418591550
    F            0.762221557563    -0.685630860455     1.080968156122
    F           -0.304910055403    -1.660086821771    -0.469235994546

  Mulliken Charges: (a.u.)
   Center  Symbol    Alpha    Beta     Spin     Total
       1     H     0.39661  0.39661  0.00000  0.20677
       2     C     3.18391  3.18391  0.00000 -0.36782
       3     C     2.95530  2.95530  0.00000  0.08939
       4     H     0.40249  0.40249  0.00000  0.19501
       5     O     4.30610  4.30610  0.00000 -0.61221
       6     H     0.39887  0.39887  0.00000  0.20226
       7     C     3.05218  3.05218  0.00000 -0.10436
       8     C     2.45634  2.45634  0.00000  1.08732
       9     H     0.41155  0.41155  0.00000  0.17691
      10     H     0.39546  0.39546  0.00000  0.20908
      11     F     4.68468  4.68468  0.00000 -0.36935
      12     F     4.67919  4.67919  0.00000 -0.35837
      13     F     4.67732  4.67732  0.00000 -0.35465

   Total alpha = 32.00000, Total beta = 32.00000, Total charge = -0.00000
