                              Psi4 1.0.54 Driver

  ==> Input File <==

--------------------------------------------------------------------------
set {
	reference rhf
	basis cc-pvtz
}

set_num_threads( 4 )
memory 2 gb

molecule MOL {
0 1

H	 -3.016445	 0.182379	 0.540103
O	 -2.346257	 -0.289210	 0.080372
C	 -1.183935	 0.486039	 -0.009831
C	 0.062853	 -0.375310	 0.027457
H	 -1.178881	 1.094526	 -0.908634
H	 -1.184406	 1.155156	 0.838676
O	 1.172093	 0.457955	 -0.054438
H	 0.052476	 -1.081302	 -0.804627
H	 0.076323	 -0.955658	 0.947560
C	 2.395478	 -0.199028	 -0.000366
H	 2.505946	 -0.901710	 -0.823354
H	 3.174616	 0.545641	 -0.071768
H	 2.513730	 -0.742241	 0.934223

	symmetry c1
}
set optking {
	frozen_dihedral = ("
		1 2 3 5
	")
}

ee,wfn = optimize('scf', return_wfn=True)
oeprop( wfn, 'DIPOLE', 'QUADRUPOLE', 'MULLIKEN_CHARGES')
f=open( 'psi4out.xyz', 'w' )
f.write( "13  " )
f.write( str(ee) + "\n" )
f.write( MOL.save_string_xyz() )
f.close()
--------------------------------------------------------------------------

    Molecular point group: c1
  Charge       = 0
  Multiplicity = 1
  Basis Set: CC-PVTZ
  Basis Set:
  @DF-RHF Final Energy:  -268.06067319319880
    Total Energy =                       -268.0606731931989088
    Molecular point group: c1
  Basis Set: CC-PVTZ
  Basis Set:
  Basis Set: CC-PVTZ
  Basis Set:
  @DF-RHF Final Energy:  -268.06191626262478
    Total Energy =                       -268.0619162626247771
  Basis Set: CC-PVTZ
  Basis Set:
  Basis Set: CC-PVTZ
  Basis Set:
  @DF-RHF Final Energy:  -268.06217364153997
    Total Energy =                       -268.0621736415400846
  Basis Set: CC-PVTZ
  Basis Set:
  Charge       = 0
  Multiplicity = 1
  Basis Set: CC-PVTZ
  Basis Set:

    Orbital Energies (a.u.)
    -----------------------

    Doubly Occupied:

       1A    -20.552503     2A    -20.551583     3A    -11.267530
       4A    -11.264884     5A    -11.264780     6A     -1.388657
       7A     -1.367929     8A     -1.019498     9A     -0.911885
      10A     -0.832394    11A     -0.713867    12A     -0.683966
      13A     -0.643827    14A     -0.640305    15A     -0.615543
      16A     -0.554506    17A     -0.541574    18A     -0.496256
      19A     -0.473835    20A     -0.443215    21A     -0.421076

  @DF-RHF Final Energy:  -268.06217797333750

   => Energetics <=

    Nuclear Repulsion Energy =            190.6569191851539529
    One-Electron Energy =                -744.1389729978088781
    Two-Electron Energy =                 285.4198758393172852
    DFT Exchange-Correlation Energy =       0.0000000000000000
    Empirical Dispersion Energy =           0.0000000000000000
    PCM Polarization Energy =               0.0000000000000000
    EFP Energy =                            0.0000000000000000
    Total Energy =                       -268.0621779733376684
    Molecular point group: c1
  Basis Set: CC-PVTZ
  Basis Set:

  -Total Gradient:
     Atom            X                  Y                   Z
    ------   -----------------  -----------------  -----------------
       1        0.000418754251    -0.000456779608     0.001073918346
       2       -0.000151813344     0.000477069132    -0.001591648845
       3       -0.000628653545     0.000979691891     0.001145532772
       4       -0.000036114595    -0.000147225980    -0.000107067249
       5        0.000489101135    -0.000922463177    -0.000492350746
       6       -0.000044260467     0.000022997692     0.000023986542
       7        0.000006405623     0.000163433611    -0.000024919967
       8        0.000096923169    -0.000061508119     0.000002228071
       9       -0.000087293756     0.000015822566    -0.000009006896
      10       -0.000012414025    -0.000117440664    -0.000024375518
      11        0.000025532479     0.000006937166     0.000004786271
      12       -0.000071631015     0.000025237320    -0.000002268161
      13       -0.000004535905     0.000014228172     0.000001185380

  **** Optimization is complete! (in 4 steps) ****
    Final optimized geometry and variables:
    Molecular point group: c1

    Geometry (in Angstrom), charge = 0, multiplicity = 1:

    H           -3.033602928874     0.078561765174     0.379673637448
    O           -2.299852165652    -0.347910613460    -0.019756718811
    C           -1.181384121733     0.497798450161    -0.017635290421
    C            0.055878473197    -0.370122448359     0.036556761199
    H           -1.151609691266     1.098933037589    -0.920346438072
    H           -1.188616060354     1.167304122039     0.835776407399
    O            1.170397251181     0.459939038150    -0.025589839243
    H            0.044577950387    -1.069327903752    -0.797067166719
    H            0.054521598151    -0.952395938952     0.955594626571
    C            2.387969714424    -0.208671104207     0.001398541704
    H            2.487808924749    -0.887118765354    -0.842712611707
    H            3.173015037617     0.531424676500    -0.051786400677
    H            2.507230935620    -0.780958581555     0.918603821781

  Mulliken Charges: (a.u.)
   Center  Symbol    Alpha    Beta     Spin     Total
       1     H     0.39098  0.39098  0.00000  0.21805
       2     O     4.20249  4.20249  0.00000 -0.40498
       3     C     2.96617  2.96617  0.00000  0.06766
       4     C     2.96242  2.96242  0.00000  0.07516
       5     H     0.46884  0.46884  0.00000  0.06232
       6     H     0.47058  0.47058  0.00000  0.05884
       7     O     4.17647  4.17647  0.00000 -0.35294
       8     H     0.47032  0.47032  0.00000  0.05935
       9     H     0.47253  0.47253  0.00000  0.05494
      10     C     3.03099  3.03099  0.00000 -0.06198
      11     H     0.47030  0.47030  0.00000  0.05939
      12     H     0.44705  0.44705  0.00000  0.10591
      13     H     0.47086  0.47086  0.00000  0.05829

   Total alpha = 21.00000, Total beta = 21.00000, Total charge = -0.00000

*** Psi4 exiting successfully. Buy a developer a beer!
