  ==> Input File <==

--------------------------------------------------------------------------
set {
	reference rhf
	basis 6-31G*
}

set_num_threads( 1 )
memory 2 gb

molecule MOL {
0 1

H	 -1.198626	 0.364101	 -1.009463
C	 -0.790252	 0.431209	 0.000000
N	 0.538815	 0.649616	 0.000000
O	 -1.479848	 0.317887	 0.969961
C	 1.521968	 -0.411503	 0.000000
H	 0.852804	 1.592852	 0.000000
H	 2.150599	 -0.357004	 -0.881901
H	 0.999455	 -1.354525	 0.000000
H	 2.150599	 -0.357004	 0.881901

	symmetry c1
}
set optking {
	frozen_dihedral = ("
		6 3 5 7
	")
}

ee = energy('scf')
oeprop('DIPOLE', 'QUADRUPOLE', 'MULLIKEN_CHARGES')
f=open( 'psi4out.xyz', 'w' )
f.write( "9  " )
f.write( str(ee) + "\n" )
f.write( MOL.save_string_xyz() )
f.close()
--------------------------------------------------------------------------

    Molecular point group: c1

    Geometry (in Angstrom), charge = 0, multiplicity = 1:

       Center              X                  Y                   Z               Mass
    ------------   -----------------  -----------------  -----------------  -----------------
           H         -1.158807295665     0.121792148632    -1.255021774296     1.007825032070
           C         -0.750433295665     0.188900148632    -0.245558774296    12.000000000000
           N          0.578633704335     0.407307148632    -0.245558774296    14.003074004780
           O         -1.440029295665     0.075578148632     0.724402225704    15.994914619560
           C          1.561786704335    -0.653811851368    -0.245558774296    12.000000000000
           H          0.892622704335     1.350543148632    -0.245558774296     1.007825032070
           H          2.190417704335    -0.599312851368    -1.127459774296     1.007825032070
           H          1.039273704335    -1.596833851368    -0.245558774296     1.007825032070
           H          2.190417704335    -0.599312851368     0.636342225704     1.007825032070

  Charge       = 0
  Multiplicity = 1
  Basis Set: 6-31G*
  Basis Set:

    Orbital Energies (a.u.)
    -----------------------

    Doubly Occupied:

       1A    -20.563138     2A    -15.549191     3A    -11.349581
       4A    -11.265439     5A     -1.406388     6A     -1.224772
       7A     -0.957903     8A     -0.821081     9A     -0.718186
      10A     -0.666028    11A     -0.640968    12A     -0.596902
      13A     -0.563543    14A     -0.508651    15A     -0.440693
      16A     -0.376135

  @DF-RHF Final Energy:  -207.91653815074162

   => Energetics <=

    Nuclear Repulsion Energy =            121.0895094101123561
    One-Electron Energy =                -522.7149009456973090
    Two-Electron Energy =                 193.7088533848433940
    DFT Exchange-Correlation Energy =       0.0000000000000000
    Empirical Dispersion Energy =           0.0000000000000000
    PCM Polarization Energy =               0.0000000000000000
    EFP Energy =                            0.0000000000000000
    Total Energy =                       -207.9165381507415873

  Mulliken Charges: (a.u.)
   Center  Symbol    Alpha    Beta     Spin     Total
       1     H     0.43181  0.43181  0.00000  0.13639
       2     C     2.76603  2.76603  0.00000  0.46794
       3     N     3.89963  3.89963  0.00000 -0.79926
       4     O     4.22438  4.22438  0.00000 -0.44877
       5     C     3.13132  3.13132  0.00000 -0.26265
       6     H     0.30782  0.30782  0.00000  0.38436
       7     H     0.41781  0.41781  0.00000  0.16439
       8     H     0.41002  0.41002  0.00000  0.17996
       9     H     0.41118  0.41118  0.00000  0.17764

   Total alpha = 16.00000, Total beta = 16.00000, Total charge = -0.00000
