  ==> Input File <==

--------------------------------------------------------------------------
set {
	reference rhf
	basis 6-31G*
}

set_num_threads( 1 )
memory 2 gb

molecule MOL {
0 1

O	 0.161643	 0.835271	 -0.929108
C	 0.486307	 0.169203	 0.000779
C	 1.608116	 -0.841643	 0.000302
O	 -0.108845	 0.227430	 1.184000
C	 2.990107	 -0.200498	 -0.000684
H	 1.468623	 -1.481519	 -0.865924
H	 1.469683	 -1.481289	 0.866878
H	 3.129736	 0.423364	 -0.875135
H	 3.757882	 -0.966877	 -0.001197
H	 3.130964	 0.423383	 0.873533
C	 -1.190702	 1.141266	 1.331951
C	 -1.696153	 1.019758	 2.753945
H	 -1.959788	 0.896574	 0.612079
H	 -0.839614	 2.141214	 1.116467
H	 -2.038978	 0.011303	 2.955559
H	 -2.525182	 1.702195	 2.910913
H	 -0.912755	 1.262797	 3.462801

	symmetry c1
}
set optking {
	frozen_dihedral = ("
		2 4 11 13,
		11 4 2 3
	")
}

ee = energy('scf')
oeprop('DIPOLE', 'QUADRUPOLE', 'MULLIKEN_CHARGES')
f=open( 'psi4out.xyz', 'w' )
f.write( "17  " )
f.write( str(ee) + "\n" )
f.write( MOL.save_string_xyz() )
f.close()
--------------------------------------------------------------------------

    Molecular point group: c1

    Geometry (in Angstrom), charge = 0, multiplicity = 1:

       Center              X                  Y                   Z               Mass
    ------------   -----------------  -----------------  -----------------  -----------------
           O         -0.151224610109     0.488356222947    -1.558638597670    15.994914619560
           C          0.173439389891    -0.177711777053    -0.628751597670    12.000000000000
           C          1.295248389891    -1.188557777053    -0.629228597670    12.000000000000
           O         -0.421712610109    -0.119484777053     0.554469402330    15.994914619560
           C          2.677239389891    -0.547412777053    -0.630214597670    12.000000000000
           H          1.155755389891    -1.828433777053    -1.495454597670     1.007825032070
           H          1.156815389891    -1.828203777053     0.237347402330     1.007825032070
           H          2.816868389891     0.076449222947    -1.504665597670     1.007825032070
           H          3.445014389891    -1.313791777053    -0.630727597670     1.007825032070
           H          2.818096389891     0.076468222947     0.244002402330     1.007825032070
           C         -1.503569610109     0.794351222947     0.702420402330    12.000000000000
           C         -2.009020610109     0.672843222947     2.124414402330    12.000000000000
           H         -2.272655610109     0.549659222947    -0.017451597670     1.007825032070
           H         -1.152481610109     1.794299222947     0.486936402330     1.007825032070
           H         -2.351845610109    -0.335611777053     2.326028402330     1.007825032070
           H         -2.838049610109     1.355280222947     2.281382402330     1.007825032070
           H         -1.225622610109     0.915882222947     2.833270402330     1.007825032070

  Charge       = 0
  Multiplicity = 1
  Basis Set: 6-31G*
  Basis Set:

    Orbital Energies (a.u.)
    -----------------------

    Doubly Occupied:

       1A    -20.602161     2A    -20.542111     3A    -11.370517
       4A    -11.284298     5A    -11.235582     6A    -11.225569
       7A    -11.222269     8A     -1.467291     9A     -1.360783
      10A     -1.072335    11A     -1.032101    12A     -0.910974
      13A     -0.852038    14A     -0.776252    15A     -0.693370
      16A     -0.683950    17A     -0.667093    18A     -0.614414
      19A     -0.598488    20A     -0.575620    21A     -0.555039
      22A     -0.536689    23A     -0.528953    24A     -0.508802
      25A     -0.500519    26A     -0.495273    27A     -0.451180
      28A     -0.431739

  @DF-RHF Final Energy:  -344.90930124651265

   => Energetics <=

    Nuclear Repulsion Energy =            315.3977020775406572
    One-Electron Energy =               -1095.0230163943901971
    Two-Electron Energy =                 434.7160130703356913
    DFT Exchange-Correlation Energy =       0.0000000000000000
    Empirical Dispersion Energy =           0.0000000000000000
    PCM Polarization Energy =               0.0000000000000000
    EFP Energy =                            0.0000000000000000
    Total Energy =                       -344.9093012465138486

  Mulliken Charges: (a.u.)
   Center  Symbol    Alpha    Beta     Spin     Total
       1     O     4.28584  4.28584  0.00000 -0.57169
       2     C     2.61160  2.61160  0.00000  0.77681
       3     C     3.19963  3.19963  0.00000 -0.39925
       4     O     4.30931  4.30931  0.00000 -0.61863
       5     C     3.24759  3.24759  0.00000 -0.49518
       6     H     0.40124  0.40124  0.00000  0.19751
       7     H     0.40198  0.40198  0.00000  0.19604
       8     H     0.40529  0.40529  0.00000  0.18942
       9     H     0.41237  0.41237  0.00000  0.17526
      10     H     0.41323  0.41323  0.00000  0.17354
      11     C     3.00313  3.00313  0.00000 -0.00626
      12     C     3.24845  3.24845  0.00000 -0.49691
      13     H     0.40990  0.40990  0.00000  0.18020
      14     H     0.41026  0.41026  0.00000  0.17948
      15     H     0.41186  0.41186  0.00000  0.17628
      16     H     0.41627  0.41627  0.00000  0.16745
      17     H     0.41204  0.41204  0.00000  0.17593

   Total alpha = 28.00000, Total beta = 28.00000, Total charge =  0.00000
