  ==> Input File <==

--------------------------------------------------------------------------
set {
	reference rhf
	basis 6-31G*
}

set_num_threads( 4 )
memory 2 gb

molecule MOL {
0 1

O	 -2.476295	 -0.965155	 -0.256495
C	 -1.921153	 0.064240	 -0.045697
C	 -2.572637	 1.420077	 -0.085956
O	 -0.632575	 0.154573	 0.251549
H	 -2.080862	 2.040863	 -0.826044
H	 -3.618979	 1.312446	 -0.329716
H	 -2.463523	 1.907386	 0.876011
C	 0.160891	 -1.019931	 0.106212
C	 1.589627	 -0.672828	 0.480843
H	 0.089836	 -1.367806	 -0.916050
H	 -0.238459	 -1.792301	 0.749618
C	 2.246377	 0.346236	 -0.452210
H	 2.163194	 -1.597435	 0.473358
H	 1.604769	 -0.303424	 1.502885
C	 3.691736	 0.652107	 -0.061850
H	 2.219579	 -0.032311	 -1.472055
H	 1.666466	 1.263317	 -0.447249
H	 4.134505	 1.377213	 -0.737283
H	 4.305508	 -0.243868	 -0.089969
H	 3.748266	 1.059562	 0.943567

	symmetry c1
}
set optking {
	frozen_dihedral = ("
		1 2 4 8
	")
}

ee = optimize('scf')
oeprop('DIPOLE', 'QUADRUPOLE', 'MULLIKEN_CHARGES')
f=open( 'psi4out.xyz', 'w' )
f.write( "20  " )
f.write( str(ee) + "\n" )
f.write( MOL.save_string_xyz() )
f.close()
--------------------------------------------------------------------------

    Molecular point group: c1
  Charge       = 0
  Multiplicity = 1
  Basis Set: 6-31G*
  Basis Set:
  @DF-RHF Final Energy:  -383.94504462367803
    Total Energy =                       -383.9450446236782000
    Molecular point group: c1
  Basis Set: 6-31G*
  Basis Set:
  Basis Set: 6-31G*
  Basis Set:
  @DF-RHF Final Energy:  -383.94340814185301
    Total Energy =                       -383.9434081418528422
  Basis Set: 6-31G*
  Basis Set:
  Basis Set: 6-31G*
  Basis Set:
  @DF-RHF Final Energy:  -383.94512929368085
    Total Energy =                       -383.9451292936809068
  Basis Set: 6-31G*
  Basis Set:
  Basis Set: 6-31G*
  Basis Set:
  @DF-RHF Final Energy:  -383.94514382883943
    Total Energy =                       -383.9451438288392637
  Basis Set: 6-31G*
  Basis Set:
  Basis Set: 6-31G*
  Basis Set:
  @DF-RHF Final Energy:  -383.94514653661673
    Total Energy =                       -383.9451465366166758
  Basis Set: 6-31G*
  Basis Set:
  Charge       = 0
  Multiplicity = 1
  Basis Set: 6-31G*
  Basis Set:

    Orbital Energies (a.u.)
    -----------------------

    Doubly Occupied:

       1A    -20.601339     2A    -20.544398     3A    -11.374628
       4A    -11.282680     5A    -11.233498     6A    -11.225656
       7A    -11.220983     8A    -11.213699     9A     -1.467728
      10A     -1.362352    11A     -1.086160    12A     -1.028319
      13A     -0.981657    14A     -0.880399    15A     -0.811349
      16A     -0.775632    17A     -0.689916    18A     -0.683105
      19A     -0.666458    20A     -0.632164    21A     -0.601416
      22A     -0.592991    23A     -0.572136    24A     -0.552878
      25A     -0.544502    26A     -0.528669    27A     -0.512853
      28A     -0.482972    29A     -0.475082    30A     -0.474034
      31A     -0.448398    32A     -0.438647

  @DF-RHF Final Energy:  -383.94514695606915

   => Energetics <=

    Nuclear Repulsion Energy =            385.3477952460458482
    One-Electron Energy =               -1286.6124864438438635
    Two-Electron Energy =                 517.3195442417292043
    DFT Exchange-Correlation Energy =       0.0000000000000000
    Empirical Dispersion Energy =           0.0000000000000000
    PCM Polarization Energy =               0.0000000000000000
    EFP Energy =                            0.0000000000000000
    Total Energy =                       -383.9451469560688111
    Molecular point group: c1
  Basis Set: 6-31G*
  Basis Set:

  -Total Gradient:
     Atom            X                  Y                   Z
    ------   -----------------  -----------------  -----------------
       1       -0.000835553894    -0.000315387811     0.003159828874
       2        0.001594333515     0.000814277132    -0.005769811480
       3        0.000070005517     0.000004025856    -0.000164668514
       4       -0.001427947151    -0.001237301093     0.005155755725
       5        0.000000867660     0.000007324034     0.000039917897
       6       -0.000000535304    -0.000001559109     0.000004522866
       7       -0.000015173222    -0.000014495117     0.000029730773
       8        0.000620186260     0.000721940293    -0.002451820667
       9        0.000012295298     0.000008259999    -0.000013942131
      10       -0.000005542220     0.000011388323     0.000000300823
      11       -0.000005313460    -0.000014063749    -0.000003178756
      12       -0.000003315228     0.000022324163     0.000009586087
      13        0.000010112078     0.000004356942     0.000013230192
      14       -0.000024625341     0.000005483862    -0.000005725899
      15        0.000010397038    -0.000019485524    -0.000019687390
      16       -0.000009662734     0.000006011432     0.000003466721
      17        0.000008120423     0.000002825406     0.000016986992
      18        0.000004179817    -0.000007825786    -0.000006212698
      19        0.000005499631    -0.000002535328     0.000008128475
      20       -0.000008328674     0.000004436076    -0.000006407890

  **** Optimization is complete! (in 6 steps) ****
    Final optimized geometry and variables:
    Molecular point group: c1

    Geometry (in Angstrom), charge = 0, multiplicity = 1:

    O           -2.461424150183    -0.955254123673    -0.331045913622
    C           -1.914879818110     0.066388240918    -0.067443890749
    C           -2.572129084156     1.420009742350    -0.062376281639
    O           -0.640725910344     0.144630151863     0.291067807984
    H           -2.076084737344     2.070071056673    -0.774017342981
    H           -3.615659108633     1.317659137583    -0.320130715786
    H           -2.473690822833     1.871085201322     0.918240974041
    C            0.156489623767    -1.028069775124     0.150789788693
    C            1.586286409851    -0.672698210774     0.513493776085
    H            0.080140810497    -1.382838236251    -0.869050741558
    H           -0.234693931552    -1.798092468234     0.801646919426
    C            2.233872577109     0.341876456504    -0.430625311639
    H            2.163226875182    -1.595251763397     0.509851430062
    H            1.605967211835    -0.295687029782     1.532613465490
    C            3.682436046900     0.651035572087    -0.054875484328
    H            2.198726961603    -0.042582142415    -1.448052392857
    H            1.653180459497     1.258495613958    -0.425794066477
    H            4.119592124788     1.370471877583    -0.739973287470
    H            4.296179074860    -0.245068988852    -0.080390131985
    H            3.747125126723     1.066961903565     0.946548190451

  Mulliken Charges: (a.u.)
   Center  Symbol    Alpha    Beta     Spin     Total
       1     O     4.28263  4.28263  0.00000 -0.56525
       2     C     2.61918  2.61918  0.00000  0.76164
       3     C     3.28180  3.28180  0.00000 -0.56361
       4     O     4.30883  4.30883  0.00000 -0.61765
       5     H     0.40141  0.40141  0.00000  0.19718
       6     H     0.39690  0.39690  0.00000  0.20620
       7     H     0.40001  0.40001  0.00000  0.19997
       8     C     3.00265  3.00265  0.00000 -0.00530
       9     C     3.16478  3.16478  0.00000 -0.32956
      10     H     0.41202  0.41202  0.00000  0.17597
      11     H     0.40717  0.40717  0.00000  0.18567
      12     C     3.15508  3.15508  0.00000 -0.31016
      13     H     0.41823  0.41823  0.00000  0.16355
      14     H     0.41404  0.41404  0.00000  0.17192
      15     C     3.24037  3.24037  0.00000 -0.48074
      16     H     0.42317  0.42317  0.00000  0.15366
      17     H     0.41212  0.41212  0.00000  0.17575
      18     H     0.41760  0.41760  0.00000  0.16481
      19     H     0.42160  0.42160  0.00000  0.15680
      20     H     0.42042  0.42042  0.00000  0.15916

   Total alpha = 32.00000, Total beta = 32.00000, Total charge =  0.00000
