                              Psi4 1.0.54 Driver

  ==> Input File <==

--------------------------------------------------------------------------
set {
	reference rhf
	basis cc-pvtz
}

set_num_threads( 4 )
memory 2 gb

molecule MOL {
0 1

H	 2.765073	 -0.508314	 0.448512
O	 2.012307	 -0.863440	 0.000222
C	 1.050374	 0.054877	 0.000135
C	 -0.318151	 -0.570512	 0.000144
O	 1.286319	 1.213453	 -0.000040
C	 -1.454884	 0.441630	 -0.000560
H	 -0.371613	 -1.223646	 -0.864985
H	 -0.371920	 -1.222758	 0.865929
C	 -2.822577	 -0.232186	 0.000063
H	 -1.359760	 1.084704	 -0.867077
H	 -1.359641	 1.085996	 0.864983
H	 -2.954352	 -0.858985	 -0.875745
H	 -3.615886	 0.505352	 0.000019
H	 -2.953878	 -0.858359	 0.876394

	symmetry c1
}
set optking {
	frozen_dihedral = ("
		1 2 3 5
	")
}

ee,wfn = optimize('scf', return_wfn=True)
oeprop( wfn, 'DIPOLE', 'QUADRUPOLE', 'MULLIKEN_CHARGES')
f=open( 'psi4out.xyz', 'w' )
f.write( "14  " )
f.write( str(ee) + "\n" )
f.write( MOL.save_string_xyz() )
f.close()
--------------------------------------------------------------------------

    Molecular point group: c1
  Charge       = 0
  Multiplicity = 1
  Basis Set: CC-PVTZ
  Basis Set:
  @DF-RHF Final Energy:  -305.99604214394122
    Total Energy =                       -305.9960421439412244
    Molecular point group: c1
  Basis Set: CC-PVTZ
  Basis Set:
  Basis Set: CC-PVTZ
  Basis Set:
  @DF-RHF Final Energy:  -305.99238461115016
    Total Energy =                       -305.9923846111501007
  Basis Set: CC-PVTZ
  Basis Set:
  Basis Set: CC-PVTZ
  Basis Set:
  @DF-RHF Final Energy:  -305.99642499976335
    Total Energy =                       -305.9964249997631782
  Basis Set: CC-PVTZ
  Basis Set:
  Basis Set: CC-PVTZ
  Basis Set:
  @DF-RHF Final Energy:  -305.99650378996398
    Total Energy =                       -305.9965037899640379
  Basis Set: CC-PVTZ
  Basis Set:
  Basis Set: CC-PVTZ
  Basis Set:
  @DF-RHF Final Energy:  -305.99651490488543
    Total Energy =                       -305.9965149048855437
  Basis Set: CC-PVTZ
  Basis Set:
  Charge       = 0
  Multiplicity = 1
  Basis Set: CC-PVTZ
  Basis Set:

    Orbital Energies (a.u.)
    -----------------------

    Doubly Occupied:

       1A    -20.600617     2A    -20.543170     3A    -11.374179
       4A    -11.239587     5A    -11.223748     6A    -11.215423
       7A     -1.474158     8A     -1.370415     9A     -1.084113
      10A     -0.980257    11A     -0.858274    12A     -0.793695
      13A     -0.705687    14A     -0.689993    15A     -0.667614
      16A     -0.623734    17A     -0.587230    18A     -0.573918
      19A     -0.546396    20A     -0.506850    21A     -0.492978
      22A     -0.485029    23A     -0.482554    24A     -0.447491

  @DF-RHF Final Energy:  -305.99651899856292

   => Energetics <=

    Nuclear Repulsion Energy =            240.2761526981825000
    One-Electron Energy =                -893.4111198195846555
    Two-Electron Energy =                 347.1384481228393497
    DFT Exchange-Correlation Energy =       0.0000000000000000
    Empirical Dispersion Energy =           0.0000000000000000
    PCM Polarization Energy =               0.0000000000000000
    EFP Energy =                            0.0000000000000000
    Total Energy =                       -305.9965189985628058
    Molecular point group: c1
  Basis Set: CC-PVTZ
  Basis Set:

  -Total Gradient:
     Atom            X                  Y                   Z
    ------   -----------------  -----------------  -----------------
       1       -0.002674109047    -0.003900707510     0.008111948520
       2        0.002906258831     0.004876862648    -0.014036834413
       3        0.000504882836    -0.001314575465     0.014486356614
       4        0.000049622002     0.000003206462     0.000009531632
       5       -0.000806816470     0.000349901130    -0.008487190069
       6        0.000005172018    -0.000021906885    -0.000016169560
       7       -0.000002960062     0.000011212390    -0.000049384232
       8        0.000017785879    -0.000019448387    -0.000033020438
       9       -0.000002082375     0.000004286336     0.000004821847
      10        0.000003700889    -0.000001045873     0.000001463029
      11       -0.000008243690     0.000012674000     0.000009650536
      12        0.000002143263    -0.000001592939    -0.000002026098
      13        0.000001342991     0.000002135626     0.000000815755
      14        0.000003302936    -0.000001001531     0.000000036877

  **** Optimization is complete! (in 6 steps) ****
    Final optimized geometry and variables:
    Molecular point group: c1

    Geometry (in Angstrom), charge = 0, multiplicity = 1:

    H            2.809055274682    -0.539458823922     0.298144611339
    O            2.015640697372    -0.858177371957    -0.103008032365
    C            1.051524690359     0.058766442644     0.029638276703
    C           -0.316204386177    -0.567307877892     0.014918304341
    O            1.282692329283     1.215265266195     0.078161500606
    C           -1.455881143164     0.440827112753    -0.011002783114
    H           -0.354569617502    -1.231464514952    -0.842432476614
    H           -0.379985490831    -1.210638531668     0.887388036871
    C           -2.821649576653    -0.236839410027    -0.020500620355
    H           -1.351755602295     1.074380345892    -0.883770855818
    H           -1.373435091572     1.095292279276     0.848131248545
    H           -2.940219139865    -0.874234923414    -0.890496100606
    H           -3.616982722028     0.498284039027    -0.039428051342
    H           -2.962553704337    -0.853134765973     0.861374128156

  Mulliken Charges: (a.u.)
   Center  Symbol    Alpha    Beta     Spin     Total
       1     H     0.38097  0.38097  0.00000  0.23806
       2     O     4.16582  4.16582  0.00000 -0.33163
       3     C     2.80577  2.80577  0.00000  0.38846
       4     C     3.10509  3.10509  0.00000 -0.21018
       5     O     4.18411  4.18411  0.00000 -0.36821
       6     C     3.07989  3.07989  0.00000 -0.15978
       7     H     0.43813  0.43813  0.00000  0.12374
       8     H     0.44163  0.44163  0.00000  0.11674
       9     C     3.15003  3.15003  0.00000 -0.30006
      10     H     0.44643  0.44643  0.00000  0.10713
      11     H     0.44596  0.44596  0.00000  0.10807
      12     H     0.45528  0.45528  0.00000  0.08944
      13     H     0.44515  0.44515  0.00000  0.10971
      14     H     0.45574  0.45574  0.00000  0.08852

   Total alpha = 24.00000, Total beta = 24.00000, Total charge = -0.00000

*** Psi4 exiting successfully. Buy a developer a beer!
