                              Psi4 1.0.54 Driver

  ==> Input File <==

--------------------------------------------------------------------------
set {
	reference rhf
	basis cc-pvtz
}

set_num_threads( 4 )
memory 2 gb

molecule MOL {
0 1

H	 -2.752176	 0.406662	 0.508569
O	 -2.041679	 -0.058866	 0.103463
C	 -0.959304	 0.780994	 -0.094939
C	 0.354905	 0.037902	 -0.006215
H	 -0.985899	 1.279578	 -1.057596
H	 -0.969809	 1.529522	 0.682889
F	 0.412060	 -0.931028	 -0.902708
F	 1.359641	 0.856111	 -0.239961
F	 0.545380	 -0.506387	 1.171682

	symmetry c1
}
set optking {
	frozen_dihedral = ("
		1 2 3 5
	")
}

ee,wfn = optimize('scf', return_wfn=True)
oeprop( wfn, 'DIPOLE', 'QUADRUPOLE', 'MULLIKEN_CHARGES')
f=open( 'psi4out.xyz', 'w' )
f.write( "9  " )
f.write( str(ee) + "\n" )
f.write( MOL.save_string_xyz() )
f.close()
--------------------------------------------------------------------------

    Molecular point group: c1
  Charge       = 0
  Multiplicity = 1
  Basis Set: CC-PVTZ
  Basis Set:
  @DF-RHF Final Energy:  -450.84294617447733
    Total Energy =                       -450.8429461744775608
    Molecular point group: c1
  Basis Set: CC-PVTZ
  Basis Set:
  Basis Set: CC-PVTZ
  Basis Set:
  @DF-RHF Final Energy:  -450.81782156820663
    Total Energy =                       -450.8178215682067957
  Basis Set: CC-PVTZ
  Basis Set:
  Basis Set: CC-PVTZ
  Basis Set:
  @DF-RHF Final Energy:  -450.84404938801492
    Total Energy =                       -450.8440493880147528
  Basis Set: CC-PVTZ
  Basis Set:
  Basis Set: CC-PVTZ
  Basis Set:
  @DF-RHF Final Energy:  -450.84443365817242
    Total Energy =                       -450.8444336581721927
  Basis Set: CC-PVTZ
  Basis Set:
  Basis Set: CC-PVTZ
  Basis Set:
  @DF-RHF Final Energy:  -450.84445008631519
    Total Energy =                       -450.8444500863150779
  Basis Set: CC-PVTZ
  Basis Set:
  Charge       = 0
  Multiplicity = 1
  Basis Set: CC-PVTZ
  Basis Set:

    Orbital Energies (a.u.)
    -----------------------

    Doubly Occupied:

       1A    -26.333726     2A    -26.330426     3A    -26.329973
       4A    -20.582493     5A    -11.490367     6A    -11.310142
       7A     -1.741819     8A     -1.638165     9A     -1.636585
      10A     -1.406120    11A     -1.050634    12A     -0.923619
      13A     -0.833109    14A     -0.831458    15A     -0.789159
      16A     -0.740294    17A     -0.713760    18A     -0.703814
      19A     -0.671962    20A     -0.657564    21A     -0.642585
      22A     -0.641442    23A     -0.600308    24A     -0.532073
      25A     -0.483270

  @DF-RHF Final Energy:  -450.84445365511806

   => Energetics <=

    Nuclear Repulsion Energy =            277.7361132364551395
    One-Electron Energy =               -1177.9314011936833140
    Two-Electron Energy =                 449.3508343021099449
    DFT Exchange-Correlation Energy =       0.0000000000000000
    Empirical Dispersion Energy =           0.0000000000000000
    PCM Polarization Energy =               0.0000000000000000
    EFP Energy =                            0.0000000000000000
    Total Energy =                       -450.8444536551182296
    Molecular point group: c1
  Basis Set: CC-PVTZ
  Basis Set:

  -Total Gradient:
     Atom            X                  Y                   Z
    ------   -----------------  -----------------  -----------------
       1        0.000042485380    -0.000085493170     0.000201541696
       2       -0.000029803553     0.000173594996    -0.000235980440
       3       -0.000111239961    -0.000006307442     0.000211908148
       4        0.000194532539     0.000193095626     0.000133908894
       5        0.000101113382    -0.000123167503    -0.000118878467
       6       -0.000061265870    -0.000028303183     0.000011189548
       7       -0.000067762760    -0.000207165214    -0.000194837450
       8        0.000043253364     0.000085255391     0.000027744175
       9       -0.000111312521    -0.000001509495    -0.000036596103

  **** Optimization is complete! (in 6 steps) ****
    Final optimized geometry and variables:
    Molecular point group: c1

    Geometry (in Angstrom), charge = 0, multiplicity = 1:

    H           -2.626073005663    -0.190801118339     0.946866927009
    O           -1.930185073509    -0.400929588257     0.352903572238
    C           -1.022495947288     0.645036113827     0.272368070579
    C            0.336941110807     0.080288221386    -0.065705625512
    H           -1.283665572656     1.349517161709    -0.509164026167
    H           -0.918726139450     1.181163789945     1.207943370565
    F            0.328626542513    -0.581116093397    -1.199346293009
    F            1.205867592424     1.066602620560    -0.183368163885
    F            0.779703041486    -0.730204301766     0.867769319737

  Mulliken Charges: (a.u.)
   Center  Symbol    Alpha    Beta     Spin     Total
       1     H     0.38831  0.38831  0.00000  0.22338
       2     O     4.18742  4.18742  0.00000 -0.37485
       3     C     2.98638  2.98638  0.00000  0.02725
       4     C     2.67652  2.67652  0.00000  0.64695
       5     H     0.46425  0.46425  0.00000  0.07151
       6     H     0.46451  0.46451  0.00000  0.07099
       7     F     4.60858  4.60858  0.00000 -0.21717
       8     F     4.61442  4.61442  0.00000 -0.22885
       9     F     4.60961  4.60961  0.00000 -0.21922

   Total alpha = 25.00000, Total beta = 25.00000, Total charge =  0.00000

*** Psi4 exiting successfully. Buy a developer a beer!
