  ==> Input File <==

--------------------------------------------------------------------------
set {
	reference rhf
	basis 6-31G*
}

set_num_threads( 1 )
memory 2 gb

molecule MOL {
0 1

H	 -3.892951	 0.981613	 -0.358725
C	 -3.196921	 0.361773	 0.172313
C	 -2.076860	 -0.007332	 -0.404944
H	 -3.439953	 0.057760	 1.173024
O	 -1.241145	 0.887938	 -0.993954
H	 -1.745422	 -1.030435	 -0.429525
C	 -0.172597	 0.402160	 -1.731567
C	 -0.565798	 0.114299	 -3.162938
H	 0.243245	 -0.504665	 -1.306784
H	 0.592079	 1.164768	 -1.745215
F	 0.494441	 -0.311140	 -3.834280
F	 -1.492458	 -0.826746	 -3.237548
F	 -1.030223	 1.184775	 -3.773496

	symmetry c1
}
set optking {
	frozen_dihedral = ("
		11 8 7 9,
		3 5 7 9,
		6 3 5 7
	")
}

ee = energy('scf')
oeprop('DIPOLE', 'QUADRUPOLE', 'MULLIKEN_CHARGES')
f=open( 'psi4out.xyz', 'w' )
f.write( "13  " )
f.write( str(ee) + "\n" )
f.write( MOL.save_string_xyz() )
f.close()
--------------------------------------------------------------------------

    Molecular point group: c1

    Geometry (in Angstrom), charge = 0, multiplicity = 1:

       Center              X                  Y                   Z               Mass
    ------------   -----------------  -----------------  -----------------  -----------------
           H         -2.791310341031     0.773578872942     1.911825504572     1.007825032070
           C         -2.095280341031     0.153738872942     2.442863504572    12.000000000000
           C         -0.975219341031    -0.215366127058     1.865606504572    12.000000000000
           H         -2.338312341031    -0.150274127058     3.443574504572     1.007825032070
           O         -0.139504341031     0.679903872942     1.276596504572    15.994914619560
           H         -0.643781341031    -1.238469127058     1.841025504572     1.007825032070
           C          0.929043658969     0.194125872942     0.538983504572    12.000000000000
           C          0.535842658969    -0.093735127058    -0.892387495428    12.000000000000
           H          1.344885658969    -0.712699127058     0.963766504572     1.007825032070
           H          1.693719658969     0.956733872942     0.525335504572     1.007825032070
           F          1.596081658969    -0.519174127058    -1.563729495428    18.998403224000
           F         -0.390817341031    -1.034780127058    -0.966997495428    18.998403224000
           F          0.071417658969     0.976740872942    -1.502945495428    18.998403224000

  Charge       = 0
  Multiplicity = 1
  Basis Set: 6-31G*
  Basis Set:

    Orbital Energies (a.u.)
    -----------------------

    Doubly Occupied:

       1A    -26.347952     2A    -26.346595     3A    -26.343374
       4A    -20.618077     5A    -11.506045     6A    -11.320148
       7A    -11.310472     8A    -11.206566     9A     -1.744731
      10A     -1.642920    11A     -1.641173    12A     -1.444950
      13A     -1.086735    14A     -1.017590    15A     -0.927988
      16A     -0.839474    17A     -0.834025    18A     -0.823587
      19A     -0.794432    20A     -0.723777    21A     -0.713925
      22A     -0.696947    23A     -0.677510    24A     -0.662998
      25A     -0.657349    26A     -0.646078    27A     -0.640746
      28A     -0.585168    29A     -0.577567    30A     -0.526431
      31A     -0.508628    32A     -0.317781

  @DF-RHF Final Energy:  -527.48226528155044

   => Energetics <=

    Nuclear Repulsion Energy =            413.5504205258813499
    One-Electron Energy =               -1550.6020553574981022
    Two-Electron Energy =                 609.5693695500676768
    DFT Exchange-Correlation Energy =       0.0000000000000000
    Empirical Dispersion Energy =           0.0000000000000000
    PCM Polarization Energy =               0.0000000000000000
    EFP Energy =                            0.0000000000000000
    Total Energy =                       -527.4822652815491892

  Mulliken Charges: (a.u.)
   Center  Symbol    Alpha    Beta     Spin     Total
       1     H     0.40336  0.40336  0.00000  0.19327
       2     C     3.25504  3.25504  0.00000 -0.51008
       3     C     2.89348  2.89348  0.00000  0.21303
       4     H     0.40314  0.40314  0.00000  0.19372
       5     O     4.28537  4.28537  0.00000 -0.57073
       6     H     0.40717  0.40717  0.00000  0.18566
       7     C     3.06662  3.06662  0.00000 -0.13324
       8     C     2.45650  2.45650  0.00000  1.08699
       9     H     0.40433  0.40433  0.00000  0.19133
      10     H     0.38843  0.38843  0.00000  0.22313
      11     F     4.68248  4.68248  0.00000 -0.36496
      12     F     4.67988  4.67988  0.00000 -0.35976
      13     F     4.67418  4.67418  0.00000 -0.34835

   Total alpha = 32.00000, Total beta = 32.00000, Total charge =  0.00000
