  ==> Input File <==

--------------------------------------------------------------------------
set {
	reference rhf
	basis cc-pvtz
}

set_num_threads( 4 )
memory 2 gb

molecule MOL {
0 1

H	 -3.268214	 -0.875720	 0.463107
C	 -2.806015	 0.000007	 0.024886
N	 -1.391133	 0.000016	 0.301321
H	 -3.029448	 0.000055	 -1.045738
H	 -3.268126	 0.875758	 0.463150
C	 -0.609820	 0.457753	 -0.827219
C	 -0.920909	 -1.287518	 0.764653
H	 -0.737647	 -0.198451	 -1.693191
H	 -0.951264	 1.445760	 -1.112427
C	 0.863207	 0.521710	 -0.469291
H	 -1.489452	 -1.573631	 1.641573
H	 -1.069939	 -2.062695	 0.007197
C	 0.552118	 -1.223561	 1.122581
H	 1.431750	 0.807823	 -1.346212
H	 1.012237	 1.296887	 0.288165
N	 1.333431	 -0.765824	 -0.005959
H	 0.893562	 -2.211568	 1.407789
H	 0.679945	 -0.567357	 1.988553
C	 2.748313	 -0.765815	 0.270476
H	 3.298223	 -0.477451	 -0.616659
H	 3.069501	 -1.760449	 0.553502
H	 3.023432	 -0.079710	 1.076532

	symmetry c1
}
set optking {
	frozen_dihedral = ("
		6 3 2 4
	")
}

ee = optimize('scf')
oeprop('DIPOLE', 'QUADRUPOLE', 'MULLIKEN_CHARGES')
f=open( 'psi4out.xyz', 'w' )
f.write( "22  " )
f.write( str(ee) + "\n" )
f.write( MOL.save_string_xyz() )
f.close()
--------------------------------------------------------------------------

    Molecular point group: c1
  Charge       = 0
  Multiplicity = 1
  Basis Set: CC-PVTZ
  Basis Set:
  @DF-RHF Final Energy:  -344.34527351439010
    Total Energy =                       -344.3452735143898735
    Molecular point group: c1
  Basis Set: CC-PVTZ
  Basis Set:
  Basis Set: CC-PVTZ
  Basis Set:
  @DF-RHF Final Energy:  -344.34556206936617
    Total Energy =                       -344.3455620693662240
  Basis Set: CC-PVTZ
  Basis Set:
  Basis Set: CC-PVTZ
  Basis Set:
  @DF-RHF Final Energy:  -344.34562972683017
    Total Energy =                       -344.3456297268301114
  Basis Set: CC-PVTZ
  Basis Set:
  Charge       = 0
  Multiplicity = 1
  Basis Set: CC-PVTZ
  Basis Set:

    Orbital Energies (a.u.)
    -----------------------

    Doubly Occupied:

       1A    -15.537130     2A    -15.535942     3A    -11.237322
       4A    -11.237289     5A    -11.236488     6A    -11.236416
       7A    -11.233968     8A    -11.233961     9A     -1.255650
      10A     -1.204059    11A     -1.025275    12A     -0.992029
      13A     -0.912534    14A     -0.867296    15A     -0.836727
      16A     -0.755497    17A     -0.666102    18A     -0.636148
      19A     -0.631718    20A     -0.625447    21A     -0.620843
      22A     -0.580923    23A     -0.551803    24A     -0.548972
      25A     -0.541967    26A     -0.519409    27A     -0.498552
      28A     -0.488260    29A     -0.465247    30A     -0.456087
      31A     -0.351236    32A     -0.345614

  @DF-RHF Final Energy:  -344.34563088211087

   => Energetics <=

    Nuclear Repulsion Energy =            421.5655564100673018
    One-Electron Energy =               -1302.0905485676357785
    Two-Electron Energy =                 536.1793612754577225
    DFT Exchange-Correlation Energy =       0.0000000000000000
    Empirical Dispersion Energy =           0.0000000000000000
    PCM Polarization Energy =               0.0000000000000000
    EFP Energy =                            0.0000000000000000
    Total Energy =                       -344.3456308821107541
    Molecular point group: c1
  Basis Set: CC-PVTZ
  Basis Set:

  -Total Gradient:
     Atom            X                  Y                   Z
    ------   -----------------  -----------------  -----------------
       1       -0.000035311959    -0.000023018494    -0.000017744954
       2        0.000067227660    -0.006097366123    -0.000416079965
       3       -0.000298336377     0.004926154385     0.001347489659
       4        0.000027849099     0.003939239214     0.000044301568
       5       -0.000004526007     0.000005098630     0.000010115201
       6        0.000158063476    -0.002825129713    -0.000940775424
       7        0.000024850667     0.000082981992    -0.000001100050
       8       -0.000006452259     0.000002669689    -0.000004402672
       9       -0.000003134400    -0.000017279042     0.000015701707
      10        0.000032214140     0.000024729085    -0.000016672882
      11       -0.000004547879     0.000018021559    -0.000017319398
      12        0.000000912040     0.000004607882     0.000004538701
      13        0.000013522490    -0.000017243400     0.000015809103
      14        0.000035940257    -0.000004204702    -0.000001233006
      15       -0.000001013342    -0.000008496176    -0.000003543728
      16       -0.000007145861    -0.000010257825    -0.000016916893
      17        0.000034054913    -0.000011350160     0.000004640128
      18       -0.000002881903    -0.000003567796    -0.000013794804
      19       -0.000007390945     0.000015725463     0.000012740739
      20       -0.000010317385     0.000000585071    -0.000003687855
      21       -0.000012998802    -0.000000558127    -0.000001094932
      22       -0.000000577624    -0.000001341412    -0.000000970244

  **** Optimization is complete! (in 4 steps) ****
    Final optimized geometry and variables:
    Molecular point group: c1

    Geometry (in Angstrom), charge = 0, multiplicity = 1:

    H           -3.284524516372    -0.459544638684     0.324341631908
    C           -2.791676799550     0.398092120083    -0.113833699391
    N           -1.364090183375     0.374597640737     0.153169363364
    H           -3.010618750874     0.410546149848    -1.179585417570
    H           -3.243209278244     1.289918926330     0.308728380044
    C           -0.581333781660     0.830120801012    -0.975997427465
    C           -0.887188229015    -0.915255937509     0.609452749626
    H           -0.706985520242     0.169334506846    -1.838251122905
    H           -0.924841745152     1.816061471271    -1.267667530469
    C            0.891137084741     0.903779218340    -0.618635437791
    H           -1.450357877568    -1.207761862998     1.487160008310
    H           -1.028850186458    -1.690585767032    -0.149119220447
    C            0.584887942334    -0.843311288480     0.970649283179
    H            1.457787878708     1.191883741727    -1.496392508783
    H            1.035726570871     1.681168211684     0.137489296839
    N            1.368277973083    -0.380334078992    -0.153948432504
    H            0.930804863401    -1.829783233258     1.256588399479
    H            0.705340778304    -0.186957869551     1.837722158324
    C            2.781701763351    -0.371506810939     0.128235809713
    H            3.333393021175    -0.078717169126    -0.756439045985
    H            3.108218347949    -1.364347633673     0.411742014871
    H            3.049363713708     0.315650731070     0.936040288249

  Mulliken Charges: (a.u.)
   Center  Symbol    Alpha    Beta     Spin     Total
       1     H     0.45700  0.45700  0.00000  0.08600
       2     C     3.09404  3.09404  0.00000 -0.18809
       3     N     3.61617  3.61617  0.00000 -0.23234
       4     H     0.46433  0.46433  0.00000  0.07134
       5     H     0.44991  0.44991  0.00000  0.10018
       6     C     3.03624  3.03624  0.00000 -0.07247
       7     C     3.03510  3.03510  0.00000 -0.07019
       8     H     0.46752  0.46752  0.00000  0.06496
       9     H     0.45334  0.45334  0.00000  0.09331
      10     C     3.03724  3.03724  0.00000 -0.07449
      11     H     0.45374  0.45374  0.00000  0.09252
      12     H     0.46832  0.46832  0.00000  0.06336
      13     C     3.03684  3.03684  0.00000 -0.07368
      14     H     0.45401  0.45401  0.00000  0.09198
      15     H     0.46835  0.46835  0.00000  0.06329
      16     N     3.61283  3.61283  0.00000 -0.22565
      17     H     0.45402  0.45402  0.00000  0.09196
      18     H     0.46851  0.46851  0.00000  0.06297
      19     C     3.09841  3.09841  0.00000 -0.19683
      20     H     0.45200  0.45200  0.00000  0.09600
      21     H     0.45200  0.45200  0.00000  0.09599
      22     H     0.47006  0.47006  0.00000  0.05988

   Total alpha = 32.00000, Total beta = 32.00000, Total charge =  0.00000
