                              Psi4 1.0.54 Driver

  ==> Input File <==

--------------------------------------------------------------------------
set {
	reference rhf
	basis cc-pvtz
}

set_num_threads( 4 )
memory 2 gb

molecule MOL {
0 1

H	 2.448820	 -2.171582	 -0.542045
O	 2.767125	 -1.296321	 -0.410432
C	 1.757923	 -0.429693	 -0.212827
C	 2.088836	 0.901609	 -0.004853
C	 0.435853	 -0.820191	 -0.211588
H	 3.123015	 1.183753	 -0.009760
C	 1.098031	 1.833552	 0.202846
H	 0.152041	 -1.839926	 -0.369347
C	 -0.532034	 0.141680	 0.000000
H	 1.363200	 2.860137	 0.362709
C	 -0.237083	 1.465610	 0.208556
N	 -1.937041	 -0.281114	 0.000000
H	 -1.016748	 2.177850	 0.368431
O	 -2.159542	 -1.446261	 0.000000
O	 -2.764978	 0.565773	 0.000000

	symmetry c1
}
set optking {
	frozen_dihedral = ("
		11 9 12 14
	")
}

ee,wfn = optimize('scf', return_wfn=True)
oeprop( wfn, 'DIPOLE', 'QUADRUPOLE', 'MULLIKEN_CHARGES')
f=open( 'psi4out.xyz', 'w' )
f.write( "15  " )
f.write( str(ee) + "\n" )
f.write( MOL.save_string_xyz() )
f.close()
--------------------------------------------------------------------------

    Molecular point group: c1
  Charge       = 0
  Multiplicity = 1
  Basis Set: CC-PVTZ
  Basis Set:
  @DF-RHF Final Energy:  -509.21895552137983
    Total Energy =                       -509.2189555213795984
    Molecular point group: c1
  Basis Set: CC-PVTZ
  Basis Set:
  Basis Set: CC-PVTZ
  Basis Set:
  @DF-RHF Final Energy:  -509.21713591574348
    Total Energy =                       -509.2171359157432562
  Basis Set: CC-PVTZ
  Basis Set:
  Basis Set: CC-PVTZ
  Basis Set:
  @DF-RHF Final Energy:  -509.21886318418876
    Total Energy =                       -509.2188631841893312
  Basis Set: CC-PVTZ
  Basis Set:
  Basis Set: CC-PVTZ
  Basis Set:
  @DF-RHF Final Energy:  -509.21896871938560
    Total Energy =                       -509.2189687193852023
  Basis Set: CC-PVTZ
  Basis Set:
  Basis Set: CC-PVTZ
  Basis Set:
  @DF-RHF Final Energy:  -509.21896982805328
    Total Energy =                       -509.2189698280536732
  Basis Set: CC-PVTZ
  Basis Set:
  Charge       = 0
  Multiplicity = 1
  Basis Set: CC-PVTZ
  Basis Set:

    Orbital Energies (a.u.)
    -----------------------

    Doubly Occupied:

       1A    -20.608485     2A    -20.595177     3A    -20.594651
       4A    -15.850572     5A    -11.327785     6A    -11.309084
       7A    -11.263224     8A    -11.262854     9A    -11.258545
      10A    -11.256447    11A     -1.644338    12A     -1.441109
      13A     -1.426790    14A     -1.202600    15A     -1.095588
      16A     -1.048008    17A     -0.966874    18A     -0.881572
      19A     -0.832012    20A     -0.795367    21A     -0.756722
      22A     -0.743221    23A     -0.729181    24A     -0.709621
      25A     -0.677062    26A     -0.636070    27A     -0.621721
      28A     -0.598483    29A     -0.560762    30A     -0.546760
      31A     -0.520726    32A     -0.494907    33A     -0.493562
      34A     -0.460157    35A     -0.380087    36A     -0.346177

  @DF-RHF Final Energy:  -509.21897034261275

   => Energetics <=

    Nuclear Repulsion Energy =            504.7330179162850641
    One-Electron Energy =               -1696.0313787983636757
    Two-Electron Energy =                 682.0793905394662033
    DFT Exchange-Correlation Energy =       0.0000000000000000
    Empirical Dispersion Energy =           0.0000000000000000
    PCM Polarization Energy =               0.0000000000000000
    EFP Energy =                            0.0000000000000000
    Total Energy =                       -509.2189703426124652
    Molecular point group: c1
  Basis Set: CC-PVTZ
  Basis Set:

  -Total Gradient:
     Atom            X                  Y                   Z
    ------   -----------------  -----------------  -----------------
       1       -0.000001203110     0.000001044853    -0.000007012832
       2        0.000002046955    -0.000002651166     0.000017764687
       3       -0.000008139627     0.000001476235    -0.000022785879
       4       -0.000001880456     0.000006116740    -0.000003319072
       5        0.000017619356    -0.000004416995     0.000001453382
       6       -0.000000440920     0.000001216897    -0.000000168724
       7        0.000006564573    -0.000002079071     0.000015335161
       8        0.000003060315     0.000004990773     0.000000332029
       9       -0.000069338929     0.000187034220    -0.000717322335
      10        0.000000510101     0.000001089980    -0.000002107194
      11        0.000052025266    -0.000127722608     0.000708278658
      12        0.000019056153    -0.000065747954    -0.000830164711
      13       -0.000000644337     0.000001354934    -0.000001036397
      14       -0.000021396470     0.000020735702     0.000840143249
      15        0.000002161131    -0.000022442547     0.000000609977

  **** Optimization is complete! (in 6 steps) ****
    Final optimized geometry and variables:
    Molecular point group: c1

    Geometry (in Angstrom), charge = 0, multiplicity = 1:

    H            2.448467922919    -2.171369457412    -0.519985987108
    O            2.766074591108    -1.294755354822    -0.396096642694
    C            1.757618016175    -0.430390416300    -0.185529119412
    C            2.088261199006     0.901348425263     0.020116314724
    C            0.436447734661    -0.823833491656    -0.166974259828
    H            3.121836702529     1.185272574516     0.004945378738
    C            1.098159681907     1.831305797841     0.239858565664
    H            0.153026729622    -1.845295245961    -0.314500169052
    C           -0.530753949271     0.137286300253     0.049824332255
    H            1.363532808824     2.857671236163     0.400800771893
    C           -0.236405599253     1.461616237961     0.255826063703
    N           -1.933964089371    -0.289231143386     0.073903713499
    H           -1.016070824175     2.172731591037     0.421189182588
    O           -2.152939223725    -1.455064110417     0.075500287246
    O           -2.763617632722     0.555741660054     0.096479371299

  Mulliken Charges: (a.u.)
   Center  Symbol    Alpha    Beta     Spin     Total
       1     H     0.38410  0.38410  0.00000  0.23180
       2     O     4.16864  4.16864  0.00000 -0.33729
       3     C     2.84379  2.84379  0.00000  0.31242
       4     C     3.09753  3.09753  0.00000 -0.19506
       5     C     3.13407  3.13407  0.00000 -0.26814
       6     H     0.41316  0.41316  0.00000  0.17369
       7     C     3.05664  3.05664  0.00000 -0.11328
       8     H     0.40791  0.40791  0.00000  0.18418
       9     C     2.97913  2.97913  0.00000  0.04174
      10     H     0.41597  0.41597  0.00000  0.16806
      11     C     3.09617  3.09617  0.00000 -0.19234
      12     N     3.25092  3.25092  0.00000  0.49816
      13     H     0.40001  0.40001  0.00000  0.19998
      14     O     4.17783  4.17783  0.00000 -0.35567
      15     O     4.17413  4.17413  0.00000 -0.34825

   Total alpha = 36.00000, Total beta = 36.00000, Total charge = -0.00000

*** Psi4 exiting successfully. Buy a developer a beer!
