  ==> Input File <==

--------------------------------------------------------------------------
set {
	reference rhf
	basis 6-31G*
}

set_num_threads( 4 )
memory 2 gb

molecule MOL {
0 1

H	 -1.836216	 1.387520	 -0.000064
C	 -1.301823	 0.443321	 -0.000031
O	 -0.003969	 0.658512	 0.000451
O	 -1.829879	 -0.616434	 -0.000857
C	 0.850537	 -0.484732	 0.000380
C	 0.108423	 -1.606239	 0.694506
H	 1.769119	 -0.233356	 0.512566
H	 1.095618	 -0.737259	 -1.022098
H	 -0.135793	 -1.332611	 1.714564
H	 0.726096	 -2.497997	 0.716413
H	 -0.812596	 -1.839074	 0.172587

	symmetry c1
}
set optking {
	frozen_dihedral = ("
		7 5 3 2
	")
}

ee = optimize('scf')
oeprop('DIPOLE', 'QUADRUPOLE', 'MULLIKEN_CHARGES')
f=open( 'psi4out.xyz', 'w' )
f.write( "11  " )
f.write( str(ee) + "\n" )
f.write( MOL.save_string_xyz() )
f.close()
--------------------------------------------------------------------------

    Molecular point group: c1
  Charge       = 0
  Multiplicity = 1
  Basis Set: 6-31G*
  Basis Set:
  @DF-RHF Final Energy:  -266.77684141208374
    Total Energy =                       -266.7768414120836269
    Molecular point group: c1
  Basis Set: 6-31G*
  Basis Set:
  Basis Set: 6-31G*
  Basis Set:
  @DF-RHF Final Energy:  -266.80982794930480
    Total Energy =                       -266.8098279493048040
  Basis Set: 6-31G*
  Basis Set:
  Basis Set: 6-31G*
  Basis Set:
  @DF-RHF Final Energy:  -266.80798378264228
    Total Energy =                       -266.8079837826422818
  Basis Set: 6-31G*
  Basis Set:
  Basis Set: 6-31G*
  Basis Set:
  @DF-RHF Final Energy:  -266.81293017290193
    Total Energy =                       -266.8129301729020426
  Basis Set: 6-31G*
  Basis Set:
  @DF-RHF Final Energy:  -266.81938664890907
    Total Energy =                       -266.8193866489092443
  Basis Set: 6-31G*
  Basis Set:
  @DF-RHF Final Energy:  -266.82002975075858
    Total Energy =                       -266.8200297507587493
  Basis Set: 6-31G*
  Basis Set:
  Basis Set: 6-31G*
  Basis Set:
  @DF-RHF Final Energy:  -266.82019757951110
    Total Energy =                       -266.8201975795109320
  Basis Set: 6-31G*
  Basis Set:
  Basis Set: 6-31G*
  Basis Set:
  @DF-RHF Final Energy:  -266.82023776968435
    Total Energy =                       -266.8202377696843541
  Basis Set: 6-31G*
  Basis Set:
  Charge       = 0
  Multiplicity = 1
  Basis Set: 6-31G*
  Basis Set:

    Orbital Energies (a.u.)
    -----------------------

    Doubly Occupied:

       1A    -20.610325     2A    -20.554029     3A    -11.378946
       4A    -11.296990     5A    -11.220784     6A     -1.469863
       7A     -1.373433     8A     -1.049287     9A     -0.917678
      10A     -0.795431    11A     -0.725587    12A     -0.683535
      13A     -0.667297    14A     -0.617829    15A     -0.577148
      16A     -0.544437    17A     -0.528057    18A     -0.503158
      19A     -0.454477    20A     -0.445281

  @DF-RHF Final Energy:  -266.82024156745422

   => Energetics <=

    Nuclear Repulsion Energy =            182.4971775116680703
    One-Electron Energy =                -725.8076998078706765
    Two-Electron Energy =                 276.4902807287484734
    DFT Exchange-Correlation Energy =       0.0000000000000000
    Empirical Dispersion Energy =           0.0000000000000000
    PCM Polarization Energy =               0.0000000000000000
    EFP Energy =                            0.0000000000000000
    Total Energy =                       -266.8202415674541612
    Molecular point group: c1
  Basis Set: 6-31G*
  Basis Set:

  -Total Gradient:
     Atom            X                  Y                   Z
    ------   -----------------  -----------------  -----------------
       1       -0.000044766106    -0.000002413642     0.000007480305
       2       -0.000185689864     0.000147852980     0.005231871311
       3       -0.000437243925    -0.000453611616    -0.007136104028
       4        0.000067554899     0.000050174692     0.000010306420
       5        0.002701596525     0.001825834282    -0.002864567446
       6        0.000039327035    -0.000002057924    -0.000040058544
       7       -0.002170977962    -0.001570560069     0.004750512012
       8        0.000014883918    -0.000070146258     0.000039831549
       9        0.000002241370     0.000051566261     0.000007760928
      10       -0.000028346418    -0.000023401568    -0.000000180835
      11        0.000041420530     0.000046762862    -0.000006851671

  **** Optimization is complete! (in 9 steps) ****
    Final optimized geometry and variables:
    Molecular point group: c1

    Geometry (in Angstrom), charge = 0, multiplicity = 1:

    H           -1.225386105283     1.912137615944    -0.026591246418
    C           -0.860774296567     0.896025253994    -0.139842599670
    O            0.453807860663     0.910725907760    -0.137446170492
    O           -1.574040161802    -0.040071238959    -0.266027733317
    C            1.274077905928    -0.263593253029    -0.108000967634
    C            0.720328087533    -1.469553760560     0.638104102321
    H            2.159794437024     0.070187807830     0.412139337979
    H            1.527477823760    -0.514163353728    -1.129153038575
    H            0.386714038658    -1.190447035974     1.631431462560
    H            1.530546477533    -2.184807733902     0.747518842256
    H           -0.098205525385    -1.943363333664     0.121312957004

  Mulliken Charges: (a.u.)
   Center  Symbol    Alpha    Beta     Spin     Total
       1     H     0.41335  0.41335  0.00000  0.17330
       2     C     2.72511  2.72511  0.00000  0.54979
       3     O     4.29985  4.29985  0.00000 -0.59970
       4     O     4.26296  4.26296  0.00000 -0.52591
       5     C     2.99492  2.99492  0.00000  0.01015
       6     C     3.26117  3.26117  0.00000 -0.52234
       7     H     0.40847  0.40847  0.00000  0.18306
       8     H     0.41060  0.41060  0.00000  0.17880
       9     H     0.41334  0.41334  0.00000  0.17333
      10     H     0.41857  0.41857  0.00000  0.16287
      11     H     0.39167  0.39167  0.00000  0.21666

   Total alpha = 20.00000, Total beta = 20.00000, Total charge =  0.00000
