  ==> Input File <==

--------------------------------------------------------------------------
set {
	reference rhf
	basis 6-31G*
}

set_num_threads( 4 )
memory 2 gb

molecule MOL {
0 1

H	 2.733862	 -0.265597	 -0.891860
N	 2.332695	 -0.069570	 0.000000
C	 0.936681	 -0.007078	 0.000000
H	 2.715729	 -0.670684	 0.697655
C	 0.227108	 -0.002120	 -1.198267
C	 0.227108	 -0.002120	 1.198267
H	 0.761569	 -0.014657	 -2.132680
C	 -1.156334	 0.010459	 -1.192360
H	 0.761569	 -0.014657	 2.132680
C	 -1.156334	 0.010459	 1.192360
H	 -1.684791	 0.014915	 -2.129421
C	 -1.862085	 0.017996	 0.000000
H	 -1.684791	 0.014915	 2.129421
H	 -2.936703	 0.028387	 0.000000

	symmetry c1
}
set optking {
	frozen_dihedral = ("
		1 2 3 5
	")
}

ee = optimize('scf')
oeprop('DIPOLE', 'QUADRUPOLE', 'MULLIKEN_CHARGES')
f=open( 'psi4out.xyz', 'w' )
f.write( "14  " )
f.write( str(ee) + "\n" )
f.write( MOL.save_string_xyz() )
f.close()
--------------------------------------------------------------------------

    Molecular point group: c1
  Charge       = 0
  Multiplicity = 1
  Basis Set: 6-31G*
  Basis Set:
  @DF-RHF Final Energy:  -285.72951042739749
    Total Energy =                       -285.7295104273975426
    Molecular point group: c1
  Basis Set: 6-31G*
  Basis Set:
  Basis Set: 6-31G*
  Basis Set:
  @DF-RHF Final Energy:  -285.72980504054840
    Total Energy =                       -285.7298050405482854
  Basis Set: 6-31G*
  Basis Set:
  Basis Set: 6-31G*
  Basis Set:
  @DF-RHF Final Energy:  -285.72990740191381
    Total Energy =                       -285.7299074019136356
  Basis Set: 6-31G*
  Basis Set:
  Basis Set: 6-31G*
  Basis Set:
  @DF-RHF Final Energy:  -285.72990930356241
    Total Energy =                       -285.7299093035622946
  Basis Set: 6-31G*
  Basis Set:
  Charge       = 0
  Multiplicity = 1
  Basis Set: 6-31G*
  Basis Set:

    Orbital Energies (a.u.)
    -----------------------

    Doubly Occupied:

       1A    -15.559215     2A    -11.270307     3A    -11.228312
       4A    -11.228058     5A    -11.217761     6A    -11.216657
       7A    -11.213551     8A     -1.220698     9A     -1.124912
      10A     -1.008967    11A     -0.983525    12A     -0.828219
      13A     -0.808989    14A     -0.703095    15A     -0.683203
      16A     -0.651742    17A     -0.596825    18A     -0.590688
      19A     -0.578486    20A     -0.525106    21A     -0.502546
      22A     -0.484495    23A     -0.440159    24A     -0.330606
      25A     -0.290046

  @DF-RHF Final Energy:  -285.72990994241025

   => Energetics <=

    Nuclear Repulsion Energy =            273.0454874925238755
    One-Electron Energy =                -926.9784562717903782
    Two-Electron Energy =                 368.2030588368562576
    DFT Exchange-Correlation Energy =       0.0000000000000000
    Empirical Dispersion Energy =           0.0000000000000000
    PCM Polarization Energy =               0.0000000000000000
    EFP Energy =                            0.0000000000000000
    Total Energy =                       -285.7299099424102451
    Molecular point group: c1
  Basis Set: 6-31G*
  Basis Set:

  -Total Gradient:
     Atom            X                  Y                   Z
    ------   -----------------  -----------------  -----------------
       1        0.000045725226     0.001988378612    -0.000354592192
       2       -0.000013693493    -0.003350781179     0.000413230954
       3       -0.000057208317     0.002910481526    -0.000027976453
       4       -0.000012938358    -0.000022955076    -0.000004648415
       5        0.000009786657    -0.001537700482    -0.000024853039
       6        0.000056172036     0.000042218266    -0.000014526314
       7       -0.000001169938     0.000004779298     0.000002844110
       8        0.000030757006    -0.000017226313    -0.000016160640
       9       -0.000000074640    -0.000003762419     0.000001803099
      10       -0.000069990984    -0.000016763664    -0.000030903626
      11       -0.000007194672     0.000007255559     0.000010156715
      12        0.000020260081    -0.000022875279     0.000062953771
      13        0.000002030163     0.000002102561    -0.000004837118
      14       -0.000002460766     0.000016848588    -0.000012490853

  **** Optimization is complete! (in 5 steps) ****
    Final optimized geometry and variables:
    Molecular point group: c1

    Geometry (in Angstrom), charge = 0, multiplicity = 1:

    H            2.754955559476    -0.186953846244    -0.880451081703
    N            2.333495349378    -0.034445892377     0.009890925968
    C            0.935918960177    -0.024368361490    -0.002703226209
    H            2.742049294561    -0.613738469506     0.710962417067
    C            0.225164400306    -0.008658833160    -1.198598749785
    C            0.228595593728    -0.004080837897     1.197815580770
    H            0.756461096724    -0.030126283175    -2.134869950254
    C           -1.158854103585     0.041714318206    -1.190769379363
    H            0.767872444493    -0.005711640119     2.129198874371
    C           -1.153159170379     0.031461041619     1.194521259696
    H           -1.688772579177     0.058599980932    -2.126928625093
    C           -1.860884023744     0.058039437298     0.002092633653
    H           -1.680512050861     0.045087197061     2.132185562282
    H           -2.935151493657     0.090933231269     0.004397097341

  Mulliken Charges: (a.u.)
   Center  Symbol    Alpha    Beta     Spin     Total
       1     H     0.31989  0.31989  0.00000  0.36023
       2     N     3.94913  3.94913  0.00000 -0.89826
       3     C     2.85067  2.85067  0.00000  0.29866
       4     H     0.31926  0.31926  0.00000  0.36147
       5     C     3.12919  3.12919  0.00000 -0.25838
       6     C     3.12385  3.12385  0.00000 -0.24770
       7     H     0.40522  0.40522  0.00000  0.18956
       8     C     3.08992  3.08992  0.00000 -0.17984
       9     H     0.40231  0.40231  0.00000  0.19537
      10     C     3.09051  3.09051  0.00000 -0.18103
      11     H     0.40095  0.40095  0.00000  0.19810
      12     C     3.11542  3.11542  0.00000 -0.23085
      13     H     0.40085  0.40085  0.00000  0.19831
      14     H     0.40282  0.40282  0.00000  0.19436

   Total alpha = 25.00000, Total beta = 25.00000, Total charge =  0.00000
