  ==> Input File <==

--------------------------------------------------------------------------
set {
	reference rhf
	basis 6-31G*
}

set_num_threads( 4 )
memory 2 gb

molecule MOL {
0 1

H	 -3.301617	 0.570527	 0.000000
C	 -2.250981	 0.344174	 0.000000
C	 -1.813665	 -0.976045	 0.000000
C	 -1.315303	 1.358057	 0.000000
H	 -2.528860	 -1.779366	 0.000000
C	 -0.467298	 -1.270142	 0.000000
H	 -1.635074	 2.385107	 0.000000
C	 0.047081	 1.078114	 0.000000
H	 -0.115948	 -2.285222	 0.000000
C	 0.472063	 -0.241155	 0.000000
H	 0.749976	 1.888426	 0.000000
O	 1.765256	 -0.628444	 0.000000
C	 2.773129	 0.317516	 -0.210772
H	 2.679347	 0.787812	 -1.184096
H	 3.707513	 -0.221759	 -0.166948
H	 2.767523	 1.082240	 0.558967

	symmetry c1
}
set optking {
	frozen_dihedral = ("
		13 12 10 8
	")
}

ee = optimize('scf')
oeprop('DIPOLE', 'QUADRUPOLE', 'MULLIKEN_CHARGES')
f=open( 'psi4out.xyz', 'w' )
f.write( "16  " )
f.write( str(ee) + "\n" )
f.write( MOL.save_string_xyz() )
f.close()
--------------------------------------------------------------------------

    Molecular point group: c1
  Charge       = 0
  Multiplicity = 1
  Basis Set: 6-31G*
  Basis Set:
  @DF-RHF Final Energy:  -344.58248804383356
    Total Energy =                       -344.5824880438339051
    Molecular point group: c1
  Basis Set: 6-31G*
  Basis Set:
  Basis Set: 6-31G*
  Basis Set:
  @DF-RHF Final Energy:  -344.58249768049183
    Total Energy =                       -344.5824976804917696
  Basis Set: 6-31G*
  Basis Set:
  Basis Set: 6-31G*
  Basis Set:
  @DF-RHF Final Energy:  -344.58265078101522
    Total Energy =                       -344.5826507810152179
  Basis Set: 6-31G*
  Basis Set:
  Basis Set: 6-31G*
  Basis Set:
  @DF-RHF Final Energy:  -344.58265283102622
    Total Energy =                       -344.5826528310261665
  Basis Set: 6-31G*
  Basis Set:
  Charge       = 0
  Multiplicity = 1
  Basis Set: 6-31G*
  Basis Set:

    Orbital Energies (a.u.)
    -----------------------

    Doubly Occupied:

       1A    -20.584798     2A    -11.293787     3A    -11.279883
       4A    -11.232848     5A    -11.231332     6A    -11.223814
       7A    -11.219365     8A    -11.219218     9A     -1.413900
      10A     -1.145757    11A     -1.021608    12A     -1.012667
      13A     -0.941413    14A     -0.830392    15A     -0.804583
      16A     -0.721445    17A     -0.663902    18A     -0.661622
      19A     -0.655922    20A     -0.616683    21A     -0.586775
      22A     -0.575866    23A     -0.524411    24A     -0.519805
      25A     -0.508523    26A     -0.476005    27A     -0.461226
      28A     -0.334573    29A     -0.305168

  @DF-RHF Final Energy:  -344.58265367809531

   => Energetics <=

    Nuclear Repulsion Energy =            348.1205390409785423
    One-Electron Energy =               -1157.2718026776610714
    Two-Electron Energy =                 464.5686099585874445
    DFT Exchange-Correlation Energy =       0.0000000000000000
    Empirical Dispersion Energy =           0.0000000000000000
    PCM Polarization Energy =               0.0000000000000000
    EFP Energy =                            0.0000000000000000
    Total Energy =                       -344.5826536780950846
    Molecular point group: c1
  Basis Set: 6-31G*
  Basis Set:

  -Total Gradient:
     Atom            X                  Y                   Z
    ------   -----------------  -----------------  -----------------
       1        0.000000883232     0.000001273294    -0.000002219373
       2        0.000003206448     0.000015421364     0.000008131811
       3        0.000011806615    -0.000003766398    -0.000014000474
       4       -0.000018734353    -0.000001957664     0.000008657813
       5        0.000001425229     0.000000534960     0.000004116420
       6       -0.000009462853    -0.000004596264    -0.000005335063
       7       -0.000002465716     0.000000597267    -0.000006661640
       8       -0.000008814299     0.000008345519     0.000756073480
       9        0.000001858844    -0.000000497145     0.000003534684
      10        0.000021546227    -0.000062398879    -0.001534962457
      11       -0.000012489036    -0.000004198758    -0.000005498996
      12        0.000045884180     0.000174597885     0.001454675616
      13       -0.000033382215    -0.000113053935    -0.000652953009
      14       -0.000010573073    -0.000010740395    -0.000007208554
      15       -0.000009064384    -0.000008559958    -0.000000388216
      16        0.000018375149     0.000008999108    -0.000005962042

  **** Optimization is complete! (in 5 steps) ****
    Final optimized geometry and variables:
    Molecular point group: c1

    Geometry (in Angstrom), charge = 0, multiplicity = 1:

    H           -3.300798702871     0.572719238614     0.028619287963
    C           -2.250146792234     0.346314321984     0.027975034451
    C           -1.813168807745    -0.973995930078     0.040208531901
    C           -1.314430352990     1.360127973759     0.015251004700
    H           -2.528791860470    -1.776922468687     0.050457822363
    C           -0.466802430348    -1.268319029690     0.037413806102
    H           -1.633968360853     2.387224383615     0.007379982373
    C            0.047830819785     1.079658669936     0.014665533223
    H           -0.115364189801    -2.283329097157     0.046197849785
    C            0.472490831050    -0.239512951482     0.022898369899
    H            0.751595572014     1.889291922736     0.008344573504
    O            1.766308372464    -0.625185253492     0.037620751083
    C            2.774211789629     0.322884999895    -0.165446022023
    H            2.633853689196     0.855540568517    -1.100238996314
    H            3.702889824486    -0.226682828759    -0.204382622708
    H            2.820579444312     1.036838429377     0.650303040637

  Mulliken Charges: (a.u.)
   Center  Symbol    Alpha    Beta     Spin     Total
       1     H     0.40123  0.40123  0.00000  0.19754
       2     C     3.11192  3.11192  0.00000 -0.22385
       3     C     3.09196  3.09196  0.00000 -0.18391
       4     C     3.09111  3.09111  0.00000 -0.18222
       5     H     0.39878  0.39878  0.00000  0.20243
       6     C     3.12533  3.12533  0.00000 -0.25066
       7     H     0.39966  0.39966  0.00000  0.20069
       8     C     3.14426  3.14426  0.00000 -0.28852
       9     H     0.39295  0.39295  0.00000  0.21410
      10     C     2.78279  2.78279  0.00000  0.43442
      11     H     0.39743  0.39743  0.00000  0.20514
      12     O     4.32612  4.32612  0.00000 -0.65224
      13     C     3.09220  3.09220  0.00000 -0.18439
      14     H     0.41931  0.41931  0.00000  0.16138
      15     H     0.40480  0.40480  0.00000  0.19041
      16     H     0.42016  0.42016  0.00000  0.15967

   Total alpha = 29.00000, Total beta = 29.00000, Total charge = -0.00000
