                              Psi4 1.0.54 Driver

  ==> Input File <==

--------------------------------------------------------------------------
set {
	reference rhf
	basis cc-pvtz
}

set_num_threads( 4 )
memory 2 gb

molecule MOL {
0 1

H	 -3.859535	 0.508198	 -0.253635
O	 -3.017384	 0.831032	 -0.515544
C	 -2.021813	 0.336996	 0.342658
C	 -0.669613	 0.837286	 -0.127252
H	 -2.200512	 0.674539	 1.360428
H	 -2.032250	 -0.751224	 0.349803
C	 0.490865	 -0.082543	 0.241244
H	 -0.708709	 0.967192	 -1.204587
H	 -0.507562	 1.822272	 0.303070
C	 1.839800	 0.429565	 -0.255472
H	 0.305636	 -1.070211	 -0.165276
H	 0.527397	 -0.195943	 1.322876
C	 3.001144	 -0.485193	 0.119072
H	 1.804373	 0.541073	 -1.335756
H	 2.020437	 1.423114	 0.146921
H	 2.866892	 -1.477297	 -0.298806
H	 3.943543	 -0.095749	 -0.249061
H	 3.085064	 -0.590459	 1.195790

	symmetry c1
}
set optking {
	frozen_dihedral = ("
		2 3 4 8
	")
}

ee,wfn = optimize('scf', return_wfn=True)
oeprop( wfn, 'DIPOLE', 'QUADRUPOLE', 'MULLIKEN_CHARGES')
f=open( 'psi4out.xyz', 'w' )
f.write( "18  " )
f.write( str(ee) + "\n" )
f.write( MOL.save_string_xyz() )
f.close()
--------------------------------------------------------------------------

    Molecular point group: c1
  Charge       = 0
  Multiplicity = 1
  Basis Set: CC-PVTZ
  Basis Set:
  @DF-RHF Final Energy:  -271.28418707499259
    Total Energy =                       -271.2841870749926443
    Molecular point group: c1
  Basis Set: CC-PVTZ
  Basis Set:
  Basis Set: CC-PVTZ
  Basis Set:
  @DF-RHF Final Energy:  -271.28452491879972
    Total Energy =                       -271.2845249187998888
  Basis Set: CC-PVTZ
  Basis Set:
  Basis Set: CC-PVTZ
  Basis Set:
  @DF-RHF Final Energy:  -271.28459061054832
    Total Energy =                       -271.2845906105483209
  Basis Set: CC-PVTZ
  Basis Set:
  Basis Set: CC-PVTZ
  Basis Set:
  @DF-RHF Final Energy:  -271.28459473290070
    Total Energy =                       -271.2845947329007004
  Basis Set: CC-PVTZ
  Basis Set:
  Charge       = 0
  Multiplicity = 1
  Basis Set: CC-PVTZ
  Basis Set:

    Orbital Energies (a.u.)
    -----------------------

    Doubly Occupied:

       1A    -20.545587     2A    -11.265330     3A    -11.213815
       4A    -11.213070     5A    -11.208944     6A    -11.206575
       7A     -1.363169     8A     -1.081090     9A     -1.011450
      10A     -0.914236    11A     -0.820982    12A     -0.792894
      13A     -0.699983    14A     -0.656165    15A     -0.624133
      16A     -0.587572    17A     -0.573270    18A     -0.558224
      19A     -0.531888    20A     -0.496354    21A     -0.490345
      22A     -0.470067    23A     -0.463899    24A     -0.451944
      25A     -0.434731

  @DF-RHF Final Energy:  -271.28459529841587

   => Energetics <=

    Nuclear Repulsion Energy =            245.6052441261063848
    One-Electron Energy =                -854.4282435631619137
    Two-Electron Energy =                 337.5384041386395211
    DFT Exchange-Correlation Energy =       0.0000000000000000
    Empirical Dispersion Energy =           0.0000000000000000
    PCM Polarization Energy =               0.0000000000000000
    EFP Energy =                            0.0000000000000000
    Total Energy =                       -271.2845952984159794
    Molecular point group: c1
  Basis Set: CC-PVTZ
  Basis Set:

  -Total Gradient:
     Atom            X                  Y                   Z
    ------   -----------------  -----------------  -----------------
       1        0.000057438205     0.000022481922    -0.000034611876
       2        0.000216088346    -0.002867197130    -0.001814155496
       3       -0.000588370023     0.004549704224     0.002581324636
       4        0.001707096219    -0.005910551943    -0.001171409537
       5       -0.000037696610    -0.000007395906    -0.000005627610
       6       -0.000054529703     0.000010542227    -0.000027576334
       7       -0.000017995316     0.000045954883    -0.000018557613
       8       -0.001290509325     0.004147390656     0.000451207189
       9        0.000011041575    -0.000005785247     0.000012341238
      10        0.000022637580    -0.000000355995     0.000035398733
      11       -0.000011615607     0.000012016302     0.000013463410
      12       -0.000005894302     0.000012532555     0.000000364130
      13       -0.000005942124    -0.000010971937    -0.000030815721
      14        0.000001418679    -0.000001306317     0.000003935502
      15       -0.000001946583     0.000003968395     0.000007646975
      16        0.000002376667    -0.000009136990     0.000005994349
      17       -0.000000307823    -0.000002546541    -0.000008703302
      18       -0.000003289853     0.000010656842    -0.000000218673

  **** Optimization is complete! (in 5 steps) ****
    Final optimized geometry and variables:
    Molecular point group: c1

    Geometry (in Angstrom), charge = 0, multiplicity = 1:

    H           -3.744415487898     0.283579793096    -0.115361541025
    O           -2.900346001242     0.507070198202    -0.461500060030
    C           -1.889183105128     0.024362126970     0.384286045999
    C           -0.543227006382     0.508113207014    -0.136290254808
    H           -2.044734158458     0.361885943425     1.405730036441
    H           -1.908728229275    -1.063481037390     0.394753870296
    C            0.618545004431    -0.397180776800     0.254795554137
    H           -0.619646981177     0.610468542081    -1.213067478158
    H           -0.362633152569     1.512713703461     0.236025369770
    C            1.975012509754     0.132486726757    -0.200704585492
    H            0.460484355051    -1.386823900670    -0.166504105123
    H            0.631346989539    -0.525783499083     1.335427631013
    C            3.133418445092    -0.785329275383     0.174844147616
    H            1.959955253897     0.272095684967    -1.278007390478
    H            2.139585398540     1.115718331354     0.231024789502
    H            3.015414697456    -1.767380168398    -0.271031270767
    H            4.080452412645    -0.380862461120    -0.163435941305
    H            3.195683534683    -0.917347679273     1.250052275874

  Mulliken Charges: (a.u.)
   Center  Symbol    Alpha    Beta     Spin     Total
       1     H     0.39617  0.39617  0.00000  0.20765
       2     O     4.19610  4.19610  0.00000 -0.39220
       3     C     2.96296  2.96296  0.00000  0.07407
       4     C     3.08697  3.08697  0.00000 -0.17393
       5     H     0.47237  0.47237  0.00000  0.05526
       6     H     0.47738  0.47738  0.00000  0.04523
       7     C     3.09544  3.09544  0.00000 -0.19089
       8     H     0.44637  0.44637  0.00000  0.10726
       9     H     0.45553  0.45553  0.00000  0.08893
      10     C     3.08437  3.08437  0.00000 -0.16873
      11     H     0.45414  0.45414  0.00000  0.09172
      12     H     0.45638  0.45638  0.00000  0.08724
      13     C     3.14954  3.14954  0.00000 -0.29909
      14     H     0.45317  0.45317  0.00000  0.09366
      15     H     0.45402  0.45402  0.00000  0.09195
      16     H     0.45513  0.45513  0.00000  0.08975
      17     H     0.44825  0.44825  0.00000  0.10349
      18     H     0.45569  0.45569  0.00000  0.08861

   Total alpha = 25.00000, Total beta = 25.00000, Total charge = -0.00000

*** Psi4 exiting successfully. Buy a developer a beer!
