  ==> Input File <==

--------------------------------------------------------------------------
set {
	reference rhf
	basis 6-31G*
}

set_num_threads( 4 )
memory 2 gb

molecule MOL {
0 1

H	 3.729471	 -0.928294	 -0.070608
O	 2.826016	 -1.159218	 0.122261
C	 2.077727	 -0.067559	 -0.035091
C	 0.624473	 -0.343591	 0.253101
O	 2.542965	 0.974826	 -0.363729
C	 -0.265902	 0.883932	 0.072916
H	 0.324016	 -1.163849	 -0.390541
H	 0.565024	 -0.726111	 1.268924
C	 -1.728698	 0.646073	 0.462102
H	 -0.209144	 1.219470	 -0.958188
H	 0.135059	 1.692851	 0.673903
C	 -2.482460	 -0.343073	 -0.431425
H	 -2.245265	 1.602650	 0.432430
H	 -1.779332	 0.308348	 1.496285
C	 -3.979298	 -0.388207	 -0.124966
H	 -2.335612	 -0.067645	 -1.473835
H	 -2.069512	 -1.342012	 -0.317513
H	 -4.491238	 -1.096485	 -0.768840
H	 -4.438848	 0.584999	 -0.271634
H	 -4.159749	 -0.686370	 0.904001

	symmetry c1
}
set optking {
	frozen_dihedral = ("
		16 12 9 6
	")
}

ee = optimize('scf')
oeprop('DIPOLE', 'QUADRUPOLE', 'MULLIKEN_CHARGES')
f=open( 'psi4out.xyz', 'w' )
f.write( "20  " )
f.write( str(ee) + "\n" )
f.write( MOL.save_string_xyz() )
f.close()
--------------------------------------------------------------------------

    Molecular point group: c1
  Charge       = 0
  Multiplicity = 1
  Basis Set: 6-31G*
  Basis Set:
  @DF-RHF Final Energy:  -383.94869836064646
    Total Energy =                       -383.9486983606461763
    Molecular point group: c1
  Basis Set: 6-31G*
  Basis Set:
  Basis Set: 6-31G*
  Basis Set:
  @DF-RHF Final Energy:  -383.94864328606423
    Total Energy =                       -383.9486432860642822
  Basis Set: 6-31G*
  Basis Set:
  Basis Set: 6-31G*
  Basis Set:
  @DF-RHF Final Energy:  -383.94870852175700
    Total Energy =                       -383.9487085217572258
  Basis Set: 6-31G*
  Basis Set:
  Basis Set: 6-31G*
  Basis Set:
  @DF-RHF Final Energy:  -383.94870425484936
    Total Energy =                       -383.9487042548493605
  Basis Set: 6-31G*
  Basis Set:
  Charge       = 0
  Multiplicity = 1
  Basis Set: 6-31G*
  Basis Set:

    Orbital Energies (a.u.)
    -----------------------

    Doubly Occupied:

       1A    -20.612514     2A    -20.551599     3A    -11.381162
       4A    -11.240207     5A    -11.222942     6A    -11.220684
       7A    -11.220091     8A    -11.212439     9A     -1.474574
      10A     -1.365621    11A     -1.096270    12A     -1.040898
      13A     -0.961297    14A     -0.868885    15A     -0.816475
      16A     -0.776596    17A     -0.699548    18A     -0.689879
      19A     -0.664150    20A     -0.635930    21A     -0.602145
      22A     -0.594316    23A     -0.575166    24A     -0.556685
      25A     -0.539564    26A     -0.513373    27A     -0.495454
      28A     -0.479184    29A     -0.470658    30A     -0.467216
      31A     -0.457419    32A     -0.443656

  @DF-RHF Final Energy:  -383.94870418092205

   => Energetics <=

    Nuclear Repulsion Energy =            375.9673191697609127
    One-Electron Energy =               -1267.9388562619571985
    Two-Electron Energy =                 508.0228329112741790
    DFT Exchange-Correlation Energy =       0.0000000000000000
    Empirical Dispersion Energy =           0.0000000000000000
    PCM Polarization Energy =               0.0000000000000000
    EFP Energy =                            0.0000000000000000
    Total Energy =                       -383.9487041809221068
    Molecular point group: c1
  Basis Set: 6-31G*
  Basis Set:

  -Total Gradient:
     Atom            X                  Y                   Z
    ------   -----------------  -----------------  -----------------
       1        0.000000743522    -0.000002126600    -0.000000450461
       2       -0.000020494835    -0.000055166087    -0.000237259022
       3        0.000124378071     0.000145844563     0.000780161177
       4        0.000027386744    -0.000059130670    -0.000259398788
       5       -0.000044932485    -0.000066255810    -0.000282812421
       6       -0.000109432476     0.000317671829    -0.000247239841
       7       -0.000060419612    -0.000023198946     0.000013221800
       8        0.000062683651     0.000022389962    -0.000018270246
       9        0.000158912281    -0.000318544834     0.000098932369
      10       -0.000037724285     0.000015276077     0.000006624153
      11       -0.000018658235    -0.000031246189    -0.000008635420
      12       -0.000689596587     0.000319935511     0.000295281447
      13       -0.000116558788     0.000114212148     0.000104108460
      14        0.000020167184    -0.000103098633    -0.000157281036
      15        0.000041139006     0.000198280465    -0.000162217163
      16        0.000535068984    -0.000368423859     0.000082602537
      17        0.000077851397    -0.000139764997    -0.000001435349
      18        0.000008128104     0.000059983288    -0.000050394356
      19       -0.000037361233     0.000033915319     0.000087914002
      20        0.000078719585    -0.000060552539    -0.000043451841

  **** Optimization is complete! (in 5 steps) ****
    Final optimized geometry and variables:
    Molecular point group: c1

    Geometry (in Angstrom), charge = 0, multiplicity = 1:

    H            3.724578053665    -0.947989041330    -0.073005377477
    O            2.820556069754    -1.175505355384     0.121232058437
    C            2.077319223317    -0.079179953186    -0.027276733466
    C            0.623068382034    -0.350093893554     0.260551663753
    O            2.546493151509     0.962295448704    -0.353252456513
    C           -0.262280226379     0.882245841978     0.088041073775
    H            0.317790414948    -1.164973650435    -0.387804491341
    H            0.562561034411    -0.738475527062     1.274081698382
    C           -1.726825851978     0.646313863396     0.471203490042
    H           -0.202910220809     1.224742920619    -0.940552347696
    H            0.139946215229     1.685535540749     0.695656827870
    C           -2.473066346668    -0.352654230422    -0.418022199855
    H           -2.242962454680     1.602890615428     0.428850103462
    H           -1.784981306858     0.318331179631     1.507893789828
    C           -3.970572653042    -0.403353666390    -0.118063877077
    H           -2.320255473112    -0.087001653834    -1.462109934677
    H           -2.054594585942    -1.348528626631    -0.294213664836
    H           -4.477203122153    -1.113459636861    -0.764073618476
    H           -4.433318210682     0.568157169570    -0.265809001103
    H           -4.153417875798    -0.702785230515     0.910109339527

  Mulliken Charges: (a.u.)
   Center  Symbol    Alpha    Beta     Spin     Total
       1     H     0.26786  0.26786  0.00000  0.46429
       2     O     4.35158  4.35158  0.00000 -0.70316
       3     C     2.62221  2.62221  0.00000  0.75558
       4     C     3.21298  3.21298  0.00000 -0.42595
       5     O     4.27929  4.27929  0.00000 -0.55857
       6     C     3.15441  3.15441  0.00000 -0.30881
       7     H     0.39664  0.39664  0.00000  0.20672
       8     H     0.39915  0.39915  0.00000  0.20170
       9     C     3.15547  3.15547  0.00000 -0.31093
      10     H     0.41215  0.41215  0.00000  0.17571
      11     H     0.40813  0.40813  0.00000  0.18374
      12     C     3.15515  3.15515  0.00000 -0.31031
      13     H     0.41797  0.41797  0.00000  0.16406
      14     H     0.42340  0.42340  0.00000  0.15321
      15     C     3.23916  3.23916  0.00000 -0.47832
      16     H     0.42167  0.42167  0.00000  0.15665
      17     H     0.42263  0.42263  0.00000  0.15475
      18     H     0.41835  0.41835  0.00000  0.16330
      19     H     0.42058  0.42058  0.00000  0.15883
      20     H     0.42124  0.42124  0.00000  0.15751

   Total alpha = 32.00000, Total beta = 32.00000, Total charge = -0.00000
