  ==> Input File <==

--------------------------------------------------------------------------
set {
	reference rhf
	basis 6-31G*
}

set_num_threads( 4 )
memory 2 gb

molecule MOL {
0 1

H	 2.417805	 -0.883119	 -0.939946
N	 2.434251	 -0.367735	 -0.081097
C	 1.267428	 0.496480	 0.024474
H	 3.275556	 0.177324	 -0.086700
C	 -0.016086	 -0.325158	 -0.029487
H	 1.288818	 1.183521	 -0.816092
H	 1.267576	 1.109062	 0.929528
C	 -1.282277	 0.529072	 0.046735
H	 -0.012495	 -0.908639	 -0.945788
H	 -0.015903	 -1.041248	 0.791956
C	 -2.563920	 -0.301775	 -0.006060
H	 -1.284084	 1.244622	 -0.773004
H	 -1.271387	 1.115393	 0.963286
H	 -2.621848	 -0.873522	 -0.927727
H	 -3.445135	 0.329952	 0.047812
H	 -2.609542	 -1.004582	 0.821105

	symmetry c1
}
set optking {
	frozen_dihedral = ("
		1 2 3 6
	")
}

ee = optimize('scf')
oeprop('DIPOLE', 'QUADRUPOLE', 'MULLIKEN_CHARGES')
f=open( 'psi4out.xyz', 'w' )
f.write( "16  " )
f.write( str(ee) + "\n" )
f.write( MOL.save_string_xyz() )
f.close()
--------------------------------------------------------------------------

    Molecular point group: c1
  Charge       = 0
  Multiplicity = 1
  Basis Set: 6-31G*
  Basis Set:
  @DF-RHF Final Energy:  -212.31467198939231
    Total Energy =                       -212.3146719893923091
    Molecular point group: c1
  Basis Set: 6-31G*
  Basis Set:
  Basis Set: 6-31G*
  Basis Set:
  @DF-RHF Final Energy:  -212.31670361902445
    Total Energy =                       -212.3167036190242811
  Basis Set: 6-31G*
  Basis Set:
  Basis Set: 6-31G*
  Basis Set:
  @DF-RHF Final Energy:  -212.31699870047836
    Total Energy =                       -212.3169987004786776
  Basis Set: 6-31G*
  Basis Set:
  Basis Set: 6-31G*
  Basis Set:
  @DF-RHF Final Energy:  -212.31700018413750
    Total Energy =                       -212.3170001841374983
  Basis Set: 6-31G*
  Basis Set:
  Basis Set: 6-31G*
  Basis Set:
  @DF-RHF Final Energy:  -212.31700436388886
    Total Energy =                       -212.3170043638890547
  Basis Set: 6-31G*
  Basis Set:
  Charge       = 0
  Multiplicity = 1
  Basis Set: 6-31G*
  Basis Set:

    Orbital Energies (a.u.)
    -----------------------

    Doubly Occupied:

       1A    -15.532416     2A    -11.239811     3A    -11.215308
       4A    -11.210157     5A    -11.208097     6A     -1.176681
       7A     -1.059723     8A     -0.958759     9A     -0.843809
      10A     -0.792446    11A     -0.663299    12A     -0.638278
      13A     -0.605232    14A     -0.575339    15A     -0.565386
      16A     -0.524999    17A     -0.500916    18A     -0.470395
      19A     -0.465000    20A     -0.461585    21A     -0.380920

  @DF-RHF Final Energy:  -212.31700500744785

   => Energetics <=

    Nuclear Repulsion Energy =            186.2851977226491726
    One-Electron Energy =                -655.0272916815298458
    Two-Electron Energy =                 256.4250889514327696
    DFT Exchange-Correlation Energy =       0.0000000000000000
    Empirical Dispersion Energy =           0.0000000000000000
    PCM Polarization Energy =               0.0000000000000000
    EFP Energy =                            0.0000000000000000
    Total Energy =                       -212.3170050074479036
    Molecular point group: c1
  Basis Set: 6-31G*
  Basis Set:

  -Total Gradient:
     Atom            X                  Y                   Z
    ------   -----------------  -----------------  -----------------
       1       -0.000243518344    -0.000323964207     0.000176309570
       2        0.000299600786     0.000473557810    -0.000151968543
       3       -0.000356444381    -0.000378482930    -0.000306712523
       4       -0.000010923078     0.000024664530     0.000004693368
       5        0.000033235196    -0.000041410762     0.000000062471
       6        0.000251545190     0.000259663591     0.000227702986
       7        0.000006561393    -0.000020614374     0.000007893739
       8        0.000013478116     0.000019608680     0.000017754591
       9        0.000014466087    -0.000005027671     0.000004778339
      10       -0.000018215424    -0.000001657208     0.000002244513
      11        0.000007803033    -0.000010688770     0.000011972857
      12        0.000021826929    -0.000001417750     0.000004161641
      13       -0.000022587418     0.000003653578     0.000006021830
      14        0.000004621716     0.000002615844    -0.000000046843
      15        0.000004619026     0.000002916035    -0.000004082085
      16       -0.000006068826    -0.000003416396    -0.000000785911

  **** Optimization is complete! (in 6 steps) ****
    Final optimized geometry and variables:
    Molecular point group: c1

    Geometry (in Angstrom), charge = 0, multiplicity = 1:

    H            2.459804549295    -0.881861042099    -0.896481123688
    N            2.434654411597    -0.371649114499    -0.034035149463
    C            1.267609921519     0.497004877036     0.011713685538
    H            3.279759898320     0.164022715717     0.012806150106
    C           -0.015798567326    -0.325597893615    -0.019309176526
    H            1.248213362212     1.232980207462    -0.796030356742
    H            1.310991640772     1.057986128132     0.940492564612
    C           -1.281329083274     0.528859248360     0.064667301460
    H           -0.040260769660    -0.914488689518    -0.935966764488
    H            0.011082611959    -1.036023245990     0.802047682834
    C           -2.563143982971    -0.302762861212     0.031537226606
    H           -1.294016812999     1.242082093299    -0.756955078389
    H           -1.258650090851     1.117581204506     0.979376257615
    H           -2.633464272131    -0.877818784225    -0.887480250207
    H           -3.443814244161     0.328927475157     0.094511048550
    H           -2.597208209653    -1.002569623240     0.861523533560

  Mulliken Charges: (a.u.)
   Center  Symbol    Alpha    Beta     Spin     Total
       1     H     0.33536  0.33536  0.00000  0.32928
       2     N     3.92213  3.92213  0.00000 -0.84426
       3     C     3.05946  3.05946  0.00000 -0.11891
       4     H     0.33245  0.33245  0.00000  0.33510
       5     C     3.15136  3.15136  0.00000 -0.30272
       6     H     0.43493  0.43493  0.00000  0.13013
       7     H     0.42081  0.42081  0.00000  0.15839
       8     C     3.15548  3.15548  0.00000 -0.31095
       9     H     0.42802  0.42802  0.00000  0.14396
      10     H     0.41319  0.41319  0.00000  0.17363
      11     C     3.23874  3.23874  0.00000 -0.47747
      12     H     0.42369  0.42369  0.00000  0.15262
      13     H     0.42235  0.42235  0.00000  0.15529
      14     H     0.42197  0.42197  0.00000  0.15606
      15     H     0.41956  0.41956  0.00000  0.16088
      16     H     0.42051  0.42051  0.00000  0.15899

   Total alpha = 21.00000, Total beta = 21.00000, Total charge = -0.00000
