  ==> Input File <==

--------------------------------------------------------------------------
set {
	reference rhf
	basis 6-31G*
}

set_num_threads( 4 )
memory 2 gb

molecule MOL {
0 1

H	 0.919100	 2.147104	 4.493848
C	 0.355477	 1.211943	 4.600736
C	 -0.748929	 1.014847	 3.593735
O	 0.632348	 0.443015	 5.463199
C	 -0.264750	 1.188845	 2.147515
H	 -1.186085	 0.035894	 3.752653
H	 -1.513570	 1.760676	 3.807554
C	 0.715684	 0.102880	 1.697263
H	 -1.130805	 1.187088	 1.492358
H	 0.196607	 2.168933	 2.036451
C	 1.180775	 0.282413	 0.250794
H	 0.243736	 -0.871116	 1.808814
H	 1.583342	 0.093590	 2.354243
C	 2.148627	 -0.814315	 -0.201312
H	 0.309724	 0.301344	 -0.399318
H	 1.663341	 1.253158	 0.145116
C	 3.580890	 -0.659131	 0.322722
H	 2.166869	 -0.852443	 -1.289387
H	 1.762857	 -1.776509	 0.128956
C	 4.324889	 0.564933	 -0.213704
H	 4.142010	 -1.551473	 0.056605
H	 3.564836	 -0.624694	 1.410140
H	 4.342616	 0.565491	 -1.300421
H	 3.866655	 1.493402	 0.110242
H	 5.353900	 0.572371	 0.132816

	symmetry c1
}
set optking {
	frozen_dihedral = ("
		8 11 14 18
	")
}

ee = optimize('scf')
oeprop('DIPOLE', 'QUADRUPOLE', 'MULLIKEN_CHARGES')
f=open( 'psi4out.xyz', 'w' )
f.write( "25  " )
f.write( str(ee) + "\n" )
f.write( MOL.save_string_xyz() )
f.close()
--------------------------------------------------------------------------

    Molecular point group: c1
  Charge       = 0
  Multiplicity = 1
  Basis Set: 6-31G*
  Basis Set:
  @DF-RHF Final Energy:  -387.11954331303053
    Total Energy =                       -387.1195433130312722
    Molecular point group: c1
  Basis Set: 6-31G*
  Basis Set:
  Basis Set: 6-31G*
  Basis Set:
  @DF-RHF Final Energy:  -387.11956818128016
    Total Energy =                       -387.1195681812801013
  Basis Set: 6-31G*
  Basis Set:
  Basis Set: 6-31G*
  Basis Set:
  @DF-RHF Final Energy:  -387.11654083533568
    Total Energy =                       -387.1165408353361954
  Basis Set: 6-31G*
  Basis Set:
  Basis Set: 6-31G*
  Basis Set:
  @DF-RHF Final Energy:  -387.11987787387102
    Total Energy =                       -387.1198778738710189
  Basis Set: 6-31G*
  Basis Set:
  @DF-RHF Final Energy:  -387.11988816511752
    Total Energy =                       -387.1198881651166630
  @DF-RHF Final Energy:  -387.11991489060961
    Total Energy =                       -387.1199148906099481
  Basis Set: 6-31G*
  Basis Set:
  @DF-RHF Final Energy:  -387.11994882201736
    Total Energy =                       -387.1199488220175908
  Basis Set: 6-31G*
  Basis Set:
  Basis Set: 6-31G*
  Basis Set:
  @DF-RHF Final Energy:  -387.11987175209271
    Total Energy =                       -387.1198717520921946
  Basis Set: 6-31G*
  Basis Set:
  Basis Set: 6-31G*
  Basis Set:
  @DF-RHF Final Energy:  -387.11995843946443
    Total Energy =                       -387.1199584394645399
  Basis Set: 6-31G*
  Basis Set:
  Charge       = 0
  Multiplicity = 1
  Basis Set: 6-31G*
  Basis Set:

    Orbital Energies (a.u.)
    -----------------------

    Doubly Occupied:

       1A    -20.562204     2A    -11.326328     3A    -11.235438
       4A    -11.234757     5A    -11.223644     6A    -11.219891
       7A    -11.217544     8A    -11.216959     9A    -11.210432
      10A     -1.402133    11A     -1.103800    12A     -1.068556
      13A     -1.011737    14A     -0.943475    15A     -0.874746
      16A     -0.828599    17A     -0.788457    18A     -0.772362
      19A     -0.665403    20A     -0.660639    21A     -0.631958
      22A     -0.624026    23A     -0.610472    24A     -0.589224
      25A     -0.566560    26A     -0.559143    27A     -0.536878
      28A     -0.521710    29A     -0.513804    30A     -0.498885
      31A     -0.488145    32A     -0.480475    33A     -0.458930
      34A     -0.452538    35A     -0.445569    36A     -0.409688

  @DF-RHF Final Energy:  -387.11995850522061

   => Energetics <=

    Nuclear Repulsion Energy =            446.2652134046622336
    One-Electron Energy =               -1408.8601285844488302
    Two-Electron Energy =                 575.4749566745656466
    DFT Exchange-Correlation Energy =       0.0000000000000000
    Empirical Dispersion Energy =           0.0000000000000000
    PCM Polarization Energy =               0.0000000000000000
    EFP Energy =                            0.0000000000000000
    Total Energy =                       -387.1199585052208931
    Molecular point group: c1
  Basis Set: 6-31G*
  Basis Set:

  -Total Gradient:
     Atom            X                  Y                   Z
    ------   -----------------  -----------------  -----------------
       1        0.000008820270    -0.000001857226     0.000003132084
       2       -0.000005917060     0.000006834467     0.000001854647
       3       -0.000008870275    -0.000015338240    -0.000028730936
       4        0.000001889855     0.000004062486    -0.000001369604
       5       -0.000008190502    -0.000000307018     0.000008990667
       6       -0.000003279457    -0.000002146053     0.000002475257
       7       -0.000003153988    -0.000001723600     0.000003515706
       8       -0.001128434452    -0.000809488224    -0.000461407869
       9       -0.000000540436     0.000005612113     0.000002050375
      10        0.000002624228     0.000000165989     0.000004297471
      11        0.001266737687     0.000843088608     0.000662682409
      12        0.000010571319    -0.000002875090     0.000001531100
      13       -0.000004688749     0.000004301952    -0.000001974219
      14        0.001361546180     0.001314786850    -0.000220654779
      15        0.000001628767     0.000008615665    -0.000000310493
      16        0.000005431232     0.000003423693     0.000003003833
      17        0.000001355496     0.000008966403     0.000002047972
      18       -0.001496485388    -0.001358545610     0.000020790087
      19       -0.000000215098    -0.000004796021    -0.000001285775
      20       -0.000002052643    -0.000008105799    -0.000001486893
      21        0.000005799875     0.000006088701     0.000002412297
      22        0.000002139085     0.000000600850    -0.000004892238
      23       -0.000007684982     0.000001212260     0.000004299999
      24       -0.000002229922     0.000002798825     0.000002600609
      25        0.000003198964    -0.000005375981    -0.000003571713

  **** Optimization is complete! (in 10 steps) ****
    Final optimized geometry and variables:
    Molecular point group: c1

    Geometry (in Angstrom), charge = 0, multiplicity = 1:

    H           -0.485732495276     1.790929086680     2.559678992813
    C           -1.032075459131     0.843659041988     2.649367973208
    C           -2.117602105732     0.634746278752     1.624361035051
    O           -0.755426611637     0.074510952491     3.511790517781
    C           -1.611399794705     0.816829518093     0.186525248572
    H           -2.544745662342    -0.350058759727     1.774420108236
    H           -2.894938557308     1.370515295422     1.826451766865
    C           -0.615300885014    -0.260239441442    -0.251351134193
    H           -2.466705428648     0.811025256000    -0.482932506691
    H           -1.155843574983     1.800605463463     0.086166058952
    C           -0.151056865020    -0.081507485441    -1.699479077418
    H           -1.078970337191    -1.238361232570    -0.142583331388
    H            0.242248606872    -0.257448955707     0.417672338404
    C            0.824305948935    -1.166397925900    -2.179628208576
    H           -1.028730353587    -0.099722378974    -2.342290639282
    H            0.288205045489     0.904820237625    -1.824574393559
    C            2.268571240610    -1.038666143851    -1.678008866570
    H            0.826074472833    -1.184620643769    -3.267369232988
    H            0.434786232748    -2.135504518252    -1.873949758158
    C            3.029001526114     0.162709483044    -2.242711985496
    H            2.803139194282    -1.945385576580    -1.949707219382
    H            2.283283238992    -0.998738780676    -0.591804994695
    H            3.040814031373     0.140732733504    -3.329025393205
    H            2.588740088701     1.106155985851    -1.936792328636
    H            4.059605844872     0.160634172430    -1.901494453411

  Mulliken Charges: (a.u.)
   Center  Symbol    Alpha    Beta     Spin     Total
       1     H     0.43263  0.43263  0.00000  0.13474
       2     C     2.83093  2.83093  0.00000  0.33813
       3     C     3.20795  3.20795  0.00000 -0.41591
       4     O     4.23779  4.23779  0.00000 -0.47558
       5     C     3.16648  3.16648  0.00000 -0.33296
       6     H     0.39971  0.39971  0.00000  0.20057
       7     H     0.40671  0.40671  0.00000  0.18658
       8     C     3.15597  3.15597  0.00000 -0.31195
       9     H     0.41284  0.41284  0.00000  0.17432
      10     H     0.41971  0.41971  0.00000  0.16058
      11     C     3.15607  3.15607  0.00000 -0.31215
      12     H     0.41813  0.41813  0.00000  0.16375
      13     H     0.41744  0.41744  0.00000  0.16512
      14     C     3.15578  3.15578  0.00000 -0.31157
      15     H     0.42114  0.42114  0.00000  0.15772
      16     H     0.42116  0.42116  0.00000  0.15769
      17     C     3.15467  3.15467  0.00000 -0.30934
      18     H     0.42114  0.42114  0.00000  0.15771
      19     H     0.42102  0.42102  0.00000  0.15796
      20     C     3.24053  3.24053  0.00000 -0.48106
      21     H     0.41963  0.41963  0.00000  0.16075
      22     H     0.42054  0.42054  0.00000  0.15893
      23     H     0.42178  0.42178  0.00000  0.15643
      24     H     0.42199  0.42199  0.00000  0.15601
      25     H     0.41825  0.41825  0.00000  0.16349

   Total alpha = 36.00000, Total beta = 36.00000, Total charge = -0.00000
