                              Psi4 1.0.54 Driver

  ==> Input File <==

--------------------------------------------------------------------------
set {
	reference rhf
	basis cc-pvtz
}

set_num_threads( 4 )
memory 2 gb

molecule MOL {
0 1

O	 -2.440701	 -0.934798	 -0.415053
C	 -1.922978	 0.063265	 -0.045005
C	 -2.632749	 1.372204	 0.158357
O	 -0.637375	 0.157174	 0.243149
H	 -2.187724	 2.129143	 -0.474664
H	 -3.677681	 1.257276	 -0.079438
H	 -2.516788	 1.693160	 1.185542
C	 0.162530	 -1.009518	 0.097799
C	 1.587210	 -0.664190	 0.477086
H	 0.096803	 -1.356267	 -0.924704
H	 -0.233803	 -1.785900	 0.736810
C	 2.256770	 0.342732	 -0.454344
H	 2.154716	 -1.590834	 0.479041
H	 1.598751	 -0.289614	 1.496104
C	 1.258324	 1.288210	 -1.113733
H	 2.983568	 0.921252	 0.109728
H	 2.812068	 -0.188500	 -1.218725
H	 1.759913	 1.993970	 -1.765421
H	 0.706534	 1.857144	 -0.372630
H	 0.537829	 0.740623	 -1.712108

	symmetry c1
}
set optking {
	frozen_dihedral = ("
		16 12 9 8
	")
}

ee,wfn = optimize('scf', return_wfn=True)
oeprop( wfn, 'DIPOLE', 'QUADRUPOLE', 'MULLIKEN_CHARGES')
f=open( 'psi4out.xyz', 'w' )
f.write( "20  " )
f.write( str(ee) + "\n" )
f.write( MOL.save_string_xyz() )
f.close()
--------------------------------------------------------------------------

    Molecular point group: c1
  Charge       = 0
  Multiplicity = 1
  Basis Set: CC-PVTZ
  Basis Set:
  @DF-RHF Final Energy:  -384.07153552243636
    Total Energy =                       -384.0715355224365339
    Molecular point group: c1
  Basis Set: CC-PVTZ
  Basis Set:
  Basis Set: CC-PVTZ
  Basis Set:
  @DF-RHF Final Energy:  -384.07759289789533
    Total Energy =                       -384.0775928978955562
  Basis Set: CC-PVTZ
  Basis Set:
  Basis Set: CC-PVTZ
  Basis Set:
  @DF-RHF Final Energy:  -384.07863086622058
    Total Energy =                       -384.0786308662198962
  Basis Set: CC-PVTZ
  Basis Set:
  Basis Set: CC-PVTZ
  Basis Set:
  @DF-RHF Final Energy:  -384.07928959945087
    Total Energy =                       -384.0792895994507035
  Basis Set: CC-PVTZ
  Basis Set:
  @DF-RHF Final Energy:  -384.07956436576643
    Total Energy =                       -384.0795643657666005
  @DF-RHF Final Energy:  -384.07970943612708
    Total Energy =                       -384.0797094361273594
  Basis Set: CC-PVTZ
  Basis Set:
  @DF-RHF Final Energy:  -384.07983894337656
    Total Energy =                       -384.0798389433763305
  Basis Set: CC-PVTZ
  Basis Set:
  Basis Set: CC-PVTZ
  Basis Set:
  @DF-RHF Final Energy:  -384.07985803374697
    Total Energy =                       -384.0798580337466319
  Basis Set: CC-PVTZ
  Basis Set:
  Basis Set: CC-PVTZ
  Basis Set:
  @DF-RHF Final Energy:  -384.07985945764818
    Total Energy =                       -384.0798594576483538
  Basis Set: CC-PVTZ
  Basis Set:
  Charge       = 0
  Multiplicity = 1
  Basis Set: CC-PVTZ
  Basis Set:

    Orbital Energies (a.u.)
    -----------------------

    Doubly Occupied:

       1A    -20.594047     2A    -20.532730     3A    -11.366671
       4A    -11.280405     5A    -11.231671     6A    -11.224304
       7A    -11.221089     8A    -11.208292     9A     -1.471224
      10A     -1.365331    11A     -1.083283    12A     -1.027228
      13A     -0.980246    14A     -0.893078    15A     -0.798359
      16A     -0.778992    17A     -0.692463    18A     -0.690945
      19A     -0.667491    20A     -0.626762    21A     -0.611347
      22A     -0.583855    23A     -0.571581    24A     -0.555387
      25A     -0.551039    26A     -0.528880    27A     -0.517846
      28A     -0.480987    29A     -0.477048    30A     -0.466458
      31A     -0.448689    32A     -0.441105

  @DF-RHF Final Energy:  -384.07985980698550

   => Energetics <=

    Nuclear Repulsion Energy =            395.3107066819852662
    One-Electron Energy =               -1306.8434643430800861
    Two-Electron Energy =                 527.4528978541094375
    DFT Exchange-Correlation Energy =       0.0000000000000000
    Empirical Dispersion Energy =           0.0000000000000000
    PCM Polarization Energy =               0.0000000000000000
    EFP Energy =                            0.0000000000000000
    Total Energy =                       -384.0798598069853824
    Molecular point group: c1
  Basis Set: CC-PVTZ
  Basis Set:

  -Total Gradient:
     Atom            X                  Y                   Z
    ------   -----------------  -----------------  -----------------
       1        0.000009335656     0.000082610156     0.000034765933
       2        0.000031023989    -0.000050253825    -0.000008106925
       3       -0.000022770965     0.000030823886    -0.000016820891
       4       -0.000079050606    -0.000027451876    -0.000013141612
       5       -0.000017523140    -0.000033808241     0.000037423990
       6        0.000034672700     0.000013664187     0.000006766727
       7       -0.000005889245    -0.000014516629    -0.000038728043
       8       -0.001428895838     0.003210748961     0.001972384547
       9        0.001366286734    -0.003927049318    -0.002685589455
      10        0.000004376043     0.000003864046     0.000003354903
      11       -0.000010454193     0.000005470337     0.000000201596
      12        0.003917620315    -0.002877996993     0.000076529579
      13       -0.000001822712     0.000004804340    -0.000002298456
      14       -0.000020265016    -0.000014736319     0.000004340095
      15        0.000016193753    -0.000032712845    -0.000035836526
      16       -0.003781188719     0.003578304468     0.000662169045
      17       -0.000001165784     0.000011446427    -0.000010176921
      18       -0.000000799754     0.000013690645     0.000006669807
      19       -0.000020449628     0.000007364337     0.000014156872
      20        0.000010766413     0.000015734257    -0.000008064262

  **** Optimization is complete! (in 10 steps) ****
    Final optimized geometry and variables:
    Molecular point group: c1

    Geometry (in Angstrom), charge = 0, multiplicity = 1:

    O           -2.110184680733    -1.166215387320    -0.168706138897
    C           -1.671346664247    -0.144355319597     0.236625007656
    C           -2.492818758149     1.070869225729     0.562436359374
    O           -0.385856563490     0.063659053715     0.457424138309
    H           -2.176030641258     1.899135570620    -0.058314861210
    H           -3.535567693407     0.858397612714     0.391889883938
    H           -2.332646094014     1.353354381140     1.594754244831
    C            0.512114950367    -1.007005741588     0.197153494279
    C            1.924791168686    -0.557517790946     0.522729847727
    H            0.404102366036    -1.319824766868    -0.832181762871
    H            0.234322993258    -1.844464738674     0.821389176704
    C            2.631232556417     0.376774404992    -0.481520264289
    H            2.527392678074    -1.450320567417     0.648781987710
    H            1.885744129529    -0.080702204603     1.496353901058
    C            1.741169142426     1.319713046643    -1.292652456988
    H            3.319084567962     1.001343421136     0.077744199226
    H            3.223194058869    -0.217201459936    -1.169335457026
    H            2.356008941128     1.927187665798    -1.947033696729
    H            1.177370178876     1.984842528047    -0.651443473967
    H            1.035753046067     0.783507547236    -1.915812092775

  Mulliken Charges: (a.u.)
   Center  Symbol    Alpha    Beta     Spin     Total
       1     O     4.19718  4.19718  0.00000 -0.39436
       2     C     2.80782  2.80782  0.00000  0.38436
       3     C     3.13913  3.13913  0.00000 -0.27825
       4     O     4.15269  4.15269  0.00000 -0.30538
       5     H     0.44595  0.44595  0.00000  0.10809
       6     H     0.43719  0.43719  0.00000  0.12563
       7     H     0.44553  0.44553  0.00000  0.10894
       8     C     3.00640  3.00640  0.00000 -0.01279
       9     C     3.09048  3.09048  0.00000 -0.18097
      10     H     0.44554  0.44554  0.00000  0.10892
      11     H     0.43956  0.43956  0.00000  0.12089
      12     C     3.09006  3.09006  0.00000 -0.18013
      13     H     0.44622  0.44622  0.00000  0.10757
      14     H     0.45189  0.45189  0.00000  0.09622
      15     C     3.15198  3.15198  0.00000 -0.30396
      16     H     0.45067  0.45067  0.00000  0.09867
      17     H     0.45099  0.45099  0.00000  0.09802
      18     H     0.44572  0.44572  0.00000  0.10855
      19     H     0.44937  0.44937  0.00000  0.10127
      20     H     0.45564  0.45564  0.00000  0.08873

   Total alpha = 32.00000, Total beta = 32.00000, Total charge = -0.00000

*** Psi4 exiting successfully. Buy a developer a beer!
