  ==> Input File <==

--------------------------------------------------------------------------
set {
	reference rhf
	basis 6-31G*
}

set_num_threads( 4 )
memory 2 gb

molecule MOL {
0 1

H	 3.041723	 -1.079364	 1.138636
O	 2.128415	 -1.322809	 1.195296
C	 1.343229	 -0.400008	 0.598377
C	 1.860535	 0.739242	 -0.004787
C	 -0.022930	 -0.621432	 0.601732
H	 2.924016	 0.909660	 -0.006287
C	 1.012244	 1.655463	 -0.603630
H	 -0.423812	 -1.500999	 1.067276
C	 -0.865228	 0.300799	 0.000000
H	 1.424235	 2.533369	 -1.067227
C	 -0.354377	 1.442206	 -0.604975
C	 -2.333960	 0.069074	 0.000000
H	 -1.015119	 2.152561	 -1.069539
O	 -2.847347	 -1.003763	 0.000000
H	 -2.943845	 0.977528	 0.000000

	symmetry c1
}
set optking {
	frozen_dihedral = ("
		11 9 12 14
	")
}

ee = optimize('scf')
oeprop('DIPOLE', 'QUADRUPOLE', 'MULLIKEN_CHARGES')
f=open( 'psi4out.xyz', 'w' )
f.write( "15  " )
f.write( str(ee) + "\n" )
f.write( MOL.save_string_xyz() )
f.close()
--------------------------------------------------------------------------

    Molecular point group: c1
  Charge       = 0
  Multiplicity = 1
  Basis Set: 6-31G*
  Basis Set:
  @DF-RHF Final Energy:  -418.28317605878590
    Total Energy =                       -418.2831760587856706
    Molecular point group: c1
  Basis Set: 6-31G*
  Basis Set:
  Basis Set: 6-31G*
  Basis Set:
  @DF-RHF Final Energy:  -418.28144347077546
    Total Energy =                       -418.2814434707755709
  Basis Set: 6-31G*
  Basis Set:
  Basis Set: 6-31G*
  Basis Set:
  @DF-RHF Final Energy:  -418.28348383562320
    Total Energy =                       -418.2834838356232012
  Basis Set: 6-31G*
  Basis Set:
  Basis Set: 6-31G*
  Basis Set:
  @DF-RHF Final Energy:  -418.28358784534709
    Total Energy =                       -418.2835878453468013
  Basis Set: 6-31G*
  Basis Set:
  Charge       = 0
  Multiplicity = 1
  Basis Set: 6-31G*
  Basis Set:

    Orbital Energies (a.u.)
    -----------------------

    Doubly Occupied:

       1A    -20.601764     2A    -20.566183     3A    -11.333208
       4A    -11.312806     5A    -11.253026     6A    -11.252845
       7A    -11.248356     8A    -11.245217     9A    -11.239505
      10A     -1.421513    11A     -1.406321    12A     -1.169206
      13A     -1.048396    14A     -1.026562    15A     -0.899789
      16A     -0.845110    17A     -0.814086    18A     -0.736201
      19A     -0.701784    20A     -0.684721    21A     -0.641822
      22A     -0.637193    23A     -0.612390    24A     -0.601070
      25A     -0.576488    26A     -0.547303    27A     -0.540220
      28A     -0.513565    29A     -0.487025    30A     -0.423744
      31A     -0.353266    32A     -0.325259

  @DF-RHF Final Energy:  -418.28358877292254

   => Energetics <=

    Nuclear Repulsion Energy =            403.0944064213683191
    One-Electron Energy =               -1368.6240995260986892
    Two-Electron Energy =                 547.2461043318082830
    DFT Exchange-Correlation Energy =       0.0000000000000000
    Empirical Dispersion Energy =           0.0000000000000000
    PCM Polarization Energy =               0.0000000000000000
    EFP Energy =                            0.0000000000000000
    Total Energy =                       -418.2835887729220303
    Molecular point group: c1
  Basis Set: 6-31G*
  Basis Set:

  -Total Gradient:
     Atom            X                  Y                   Z
    ------   -----------------  -----------------  -----------------
       1       -0.000002184892     0.000020495591     0.000033083089
       2       -0.000001383572    -0.000005161197    -0.000024344866
       3       -0.000002826070    -0.000045958303    -0.000056793922
       4       -0.000011334680     0.000076775186     0.000114636949
       5        0.000012221407    -0.000029509718    -0.000030735708
       6        0.000000631711    -0.000006229812    -0.000014873239
       7        0.000020150732    -0.000070144266    -0.000097604927
       8       -0.000007187998     0.000021010241     0.000019044136
       9       -0.000645782808     0.003080426561     0.002834316426
      10        0.000000200594     0.000010873378     0.000017140072
      11        0.000461013834    -0.002162906730    -0.003517329693
      12       -0.000029065528    -0.000741912199     0.005826399258
      13        0.000000579034     0.000003640535     0.000011782310
      14        0.000197386717    -0.000156386093    -0.005129651596
      15        0.000007581522     0.000004986829     0.000014931712

  **** Optimization is complete! (in 5 steps) ****
    Final optimized geometry and variables:
    Molecular point group: c1

    Geometry (in Angstrom), charge = 0, multiplicity = 1:

    H            3.047969281894    -1.135240841910     0.954048706973
    O            2.133024649791    -1.367142572108     1.029898748206
    C            1.348344111781    -0.440966107557     0.437983799977
    C            1.866214600850     0.691691050933    -0.175582158641
    C           -0.019427752431    -0.656882555791     0.452201962666
    H            2.930741163774     0.854496185820    -0.192068497259
    C            1.015669381840     1.609947012048    -0.768621875042
    H           -0.415715370417    -1.544888709356     0.905958124824
    C           -0.864102660056     0.279599635062    -0.121681434412
    H            1.427780906881     2.478746291392    -1.248924629176
    C           -0.353029593390     1.413713231630    -0.740582425443
    C           -2.330450645883     0.024858246332    -0.165004646949
    H           -1.014662108142     2.130915729759    -1.193343366026
    O           -2.820920357139    -1.058247251088    -0.153299887224
    H           -2.955526275167     0.917384655714    -0.263233973518

  Mulliken Charges: (a.u.)
   Center  Symbol    Alpha    Beta     Spin     Total
       1     H     0.27055  0.27055  0.00000  0.45890
       2     O     4.37594  4.37594  0.00000 -0.75188
       3     C     2.79470  2.79470  0.00000  0.41060
       4     C     3.13585  3.13585  0.00000 -0.27169
       5     C     3.11409  3.11409  0.00000 -0.22818
       6     H     0.39932  0.39932  0.00000  0.20136
       7     C     3.09349  3.09349  0.00000 -0.18698
       8     H     0.37324  0.37324  0.00000  0.25351
       9     C     3.03907  3.03907  0.00000 -0.07815
      10     H     0.39319  0.39319  0.00000  0.21362
      11     C     3.11642  3.11642  0.00000 -0.23283
      12     C     2.83944  2.83944  0.00000  0.32112
      13     H     0.39384  0.39384  0.00000  0.21233
      14     O     4.23809  4.23809  0.00000 -0.47617
      15     H     0.42277  0.42277  0.00000  0.15446

   Total alpha = 32.00000, Total beta = 32.00000, Total charge = -0.00000
