                              Psi4 1.0.54 Driver

  ==> Input File <==

--------------------------------------------------------------------------
set {
	reference rhf
	basis cc-pvtz
}

set_num_threads( 4 )
memory 2 gb

molecule MOL {
0 1

H	 -0.055083	 3.048724	 -0.083355
C	 0.603802	 2.190378	 0.106251
C	 0.062554	 0.862911	 -0.350953
O	 1.652588	 2.353136	 0.626551
C	 -1.339253	 0.577611	 0.196911
H	 0.764509	 0.088855	 -0.068835
H	 0.021481	 0.899499	 -1.437253
C	 -1.813142	 -0.849710	 -0.061612
H	 -2.032833	 1.276441	 -0.256032
H	 -1.357249	 0.782269	 1.263793
H	 -1.839268	 -1.063526	 -1.124230
H	 -2.810118	 -1.001930	 0.334000
H	 -1.159274	 -1.579980	 0.402282

	symmetry c1
}
set optking {
	frozen_dihedral = ("
		6 3 5 9
	")
}

ee,wfn = optimize('scf', return_wfn=True)
oeprop( wfn, 'DIPOLE', 'QUADRUPOLE', 'MULLIKEN_CHARGES')
f=open( 'psi4out.xyz', 'w' )
f.write( "13  " )
f.write( str(ee) + "\n" )
f.write( MOL.save_string_xyz() )
f.close()
--------------------------------------------------------------------------

    Molecular point group: c1
  Charge       = 0
  Multiplicity = 1
  Basis Set: CC-PVTZ
  Basis Set:
  @DF-RHF Final Energy:  -231.07062115787505
    Total Energy =                       -231.0706211578749389
    Molecular point group: c1
  Basis Set: CC-PVTZ
  Basis Set:
  Basis Set: CC-PVTZ
  Basis Set:
  @DF-RHF Final Energy:  -231.07065244162408
    Total Energy =                       -231.0706524416241336
  Basis Set: CC-PVTZ
  Basis Set:
  Basis Set: CC-PVTZ
  Basis Set:
  @DF-RHF Final Energy:  -231.06833305685595
    Total Energy =                       -231.0683330568560905
  Basis Set: CC-PVTZ
  Basis Set:
  Basis Set: CC-PVTZ
  Basis Set:
  @DF-RHF Final Energy:  -231.07077837839148
    Total Energy =                       -231.0707783783915943
  Basis Set: CC-PVTZ
  Basis Set:
  Basis Set: CC-PVTZ
  Basis Set:
  @DF-RHF Final Energy:  -231.07081670067348
    Total Energy =                       -231.0708167006732197
  Basis Set: CC-PVTZ
  Basis Set:
  Basis Set: CC-PVTZ
  Basis Set:
  @DF-RHF Final Energy:  -231.07081896494694
    Total Energy =                       -231.0708189649470512
  Basis Set: CC-PVTZ
  Basis Set:
  Charge       = 0
  Multiplicity = 1
  Basis Set: CC-PVTZ
  Basis Set:

    Orbital Energies (a.u.)
    -----------------------

    Doubly Occupied:

       1A    -20.552349     2A    -11.321832     3A    -11.237510
       4A    -11.234686     5A    -11.222080     6A     -1.407150
       7A     -1.088458     8A     -0.977496     9A     -0.840031
      10A     -0.795288    11A     -0.679839    12A     -0.642599
      13A     -0.638116    14A     -0.588770    15A     -0.557194
      16A     -0.535983    17A     -0.514287    18A     -0.493701
      19A     -0.485365    20A     -0.413095

  @DF-RHF Final Energy:  -231.07081976974490

   => Energetics <=

    Nuclear Repulsion Energy =            170.8170610417701027
    One-Electron Energy =                -651.3241085307312233
    Two-Electron Energy =                 249.4362277192161059
    DFT Exchange-Correlation Energy =       0.0000000000000000
    Empirical Dispersion Energy =           0.0000000000000000
    PCM Polarization Energy =               0.0000000000000000
    EFP Energy =                            0.0000000000000000
    Total Energy =                       -231.0708197697450146
    Molecular point group: c1
  Basis Set: CC-PVTZ
  Basis Set:

  -Total Gradient:
     Atom            X                  Y                   Z
    ------   -----------------  -----------------  -----------------
       1        0.000015899911    -0.000014794552     0.000029838872
       2        0.000055876402     0.000048330644    -0.000010779173
       3        0.000462641412     0.001067697627     0.001990359672
       4       -0.000036822347     0.000004983746    -0.000026393957
       5        0.000324917970     0.001400039537     0.001512065426
       6       -0.000477295309    -0.001120418367    -0.001861224077
       7        0.000019149058    -0.000003901847    -0.000003707903
       8       -0.000018973831     0.000006169098     0.000005620420
       9       -0.000338364382    -0.001402643344    -0.001629418791
      10       -0.000007833617     0.000006612153    -0.000007644861
      11       -0.000000873471     0.000002407504     0.000011296809
      12        0.000004517351    -0.000008269954    -0.000006600716
      13       -0.000002839151     0.000013787753    -0.000003411722

  **** Optimization is complete! (in 7 steps) ****
    Final optimized geometry and variables:
    Molecular point group: c1

    Geometry (in Angstrom), charge = 0, multiplicity = 1:

    H            0.098772250475     2.029283191643    -0.194592332212
    C            0.757883450049     1.174767306751     0.007812728905
    C            0.233590192245    -0.157693899894    -0.448173168347
    O            1.794925207879     1.343330148997     0.549851504069
    C           -1.171871310291    -0.447657005039     0.087697827836
    H            0.934465106510    -0.931057707848    -0.162109411441
    H            0.201099113012    -0.137239974977    -1.535960238437
    C           -1.620290024552    -1.873759589892    -0.214769664312
    H           -1.878696518919     0.243964589696    -0.360114274026
    H           -1.197348672753    -0.280498459210     1.159763908418
    H           -1.621315333672    -2.064454038979    -1.282610370615
    H           -2.622818851072    -2.051739394440     0.155113896324
    H           -0.960442819746    -2.597291615994     0.250285333970

  Mulliken Charges: (a.u.)
   Center  Symbol    Alpha    Beta     Spin     Total
       1     H     0.46536  0.46536  0.00000  0.06928
       2     C     2.90851  2.90851  0.00000  0.18298
       3     C     3.07770  3.07770  0.00000 -0.15539
       4     O     4.16355  4.16355  0.00000 -0.32710
       5     C     3.09542  3.09542  0.00000 -0.19083
       6     H     0.44320  0.44320  0.00000  0.11360
       7     H     0.45005  0.45005  0.00000  0.09990
       8     C     3.14716  3.14716  0.00000 -0.29433
       9     H     0.45108  0.45108  0.00000  0.09783
      10     H     0.44722  0.44722  0.00000  0.10556
      11     H     0.45398  0.45398  0.00000  0.09204
      12     H     0.44578  0.44578  0.00000  0.10843
      13     H     0.45099  0.45099  0.00000  0.09802

   Total alpha = 20.00000, Total beta = 20.00000, Total charge =  0.00000

*** Psi4 exiting successfully. Buy a developer a beer!
