                              Psi4 1.0.54 Driver

  ==> Input File <==

--------------------------------------------------------------------------
set {
	reference rhf
	basis cc-pvtz
}

set_num_threads( 4 )
memory 2 gb

molecule MOL {
0 1

H	 2.614283	 2.028610	 0.296620
O	 3.358864	 1.662087	 -0.142800
C	 3.565468	 0.338079	 0.273842
C	 2.533667	 -0.637565	 -0.272227
H	 4.548038	 0.064914	 -0.086598
H	 3.593945	 0.282242	 1.360360
C	 1.114816	 -0.402372	 0.240993
H	 2.544552	 -0.580764	 -1.356576
H	 2.850574	 -1.642962	 -0.005497
C	 0.113298	 -1.420414	 -0.302504
H	 0.796373	 0.598427	 -0.031033
H	 1.113377	 -0.446476	 1.328807
C	 -0.541537	 -2.310883	 0.755093
H	 -0.660002	 -0.897653	 -0.860138
H	 0.623715	 -2.057630	 -1.019371
C	 -1.475686	 -1.585945	 1.722343
H	 -1.106541	 -3.086400	 0.245318
H	 0.232758	 -2.824899	 1.320256
C	 -2.180004	 -2.530236	 2.693252
H	 -2.222455	 -1.035758	 1.153925
H	 -0.922047	 -0.846464	 2.293005
C	 -3.110598	 -1.809310	 3.662866
H	 -2.747348	 -3.266072	 2.130009
H	 -1.435284	 -3.086826	 3.255979
H	 -3.886893	 -1.268756	 3.131446
H	 -3.595653	 -2.507900	 4.335026
H	 -2.566186	 -1.092195	 4.268434

	symmetry c1
}
set optking {
	frozen_dihedral = ("
		14 10 7 4
	")
}

ee,wfn = optimize('scf', return_wfn=True)
oeprop( wfn, 'DIPOLE', 'QUADRUPOLE', 'MULLIKEN_CHARGES')
f=open( 'psi4out.xyz', 'w' )
f.write( "27  " )
f.write( str(ee) + "\n" )
f.write( MOL.save_string_xyz() )
f.close()
--------------------------------------------------------------------------

    Molecular point group: c1
  Charge       = 0
  Multiplicity = 1
  Basis Set: CC-PVTZ
  Basis Set:
  @DF-RHF Final Energy:  -388.42224231182360
    Total Energy =                       -388.4222423118234246
    Molecular point group: c1
  Basis Set: CC-PVTZ
  Basis Set:
  Basis Set: CC-PVTZ
  Basis Set:
  @DF-RHF Final Energy:  -388.42249762846319
    Total Energy =                       -388.4224976284640434
  Basis Set: CC-PVTZ
  Basis Set:
  Basis Set: CC-PVTZ
  Basis Set:
  @DF-RHF Final Energy:  -388.42261288450914
    Total Energy =                       -388.4226128845079984
  Basis Set: CC-PVTZ
  Basis Set:
  Basis Set: CC-PVTZ
  Basis Set:
  @DF-RHF Final Energy:  -388.42268993018780
    Total Energy =                       -388.4226899301877438
  Basis Set: CC-PVTZ
  Basis Set:
  Basis Set: CC-PVTZ
  Basis Set:
  @DF-RHF Final Energy:  -388.42269304452606
    Total Energy =                       -388.4226930445258859
  Basis Set: CC-PVTZ
  Basis Set:
  Basis Set: CC-PVTZ
  Basis Set:
  @DF-RHF Final Energy:  -388.42269572639913
    Total Energy =                       -388.4226957263990698
  Basis Set: CC-PVTZ
  Basis Set:
  Charge       = 0
  Multiplicity = 1
  Basis Set: CC-PVTZ
  Basis Set:

    Orbital Energies (a.u.)
    -----------------------

    Doubly Occupied:

       1A    -20.545265     2A    -11.264853     3A    -11.217101
       4A    -11.214486     5A    -11.214255     6A    -11.213861
       7A    -11.213711     8A    -11.212181     9A    -11.207717
      10A     -1.363182    11A     -1.095502    12A     -1.061857
      13A     -1.012339    14A     -0.948680    15A     -0.888756
      16A     -0.823148    17A     -0.802797    18A     -0.776785
      19A     -0.695738    20A     -0.656907    21A     -0.632972
      22A     -0.616864    23A     -0.598747    24A     -0.588074
      25A     -0.580781    26A     -0.550995    27A     -0.546590
      28A     -0.529279    29A     -0.504638    30A     -0.502822
      31A     -0.483622    32A     -0.474948    33A     -0.465817
      34A     -0.457979    35A     -0.452979    36A     -0.443017
      37A     -0.425885

  @DF-RHF Final Energy:  -388.42269574570065

   => Energetics <=

    Nuclear Repulsion Energy =            459.7535100852475694
    One-Electron Energy =               -1437.7821524381311065
    Two-Electron Energy =                 589.6059466071831139
    DFT Exchange-Correlation Energy =       0.0000000000000000
    Empirical Dispersion Energy =           0.0000000000000000
    PCM Polarization Energy =               0.0000000000000000
    EFP Energy =                            0.0000000000000000
    Total Energy =                       -388.4226957457003664
    Molecular point group: c1
  Basis Set: CC-PVTZ
  Basis Set:

  -Total Gradient:
     Atom            X                  Y                   Z
    ------   -----------------  -----------------  -----------------
       1        0.000003407225     0.000000684905     0.000000984459
       2       -0.000010020484     0.000005743591    -0.000002816667
       3        0.000007591782    -0.000008261620     0.000000745071
       4        0.000017475508    -0.000037382450     0.000058689183
       5        0.000001305208    -0.000001308541     0.000002199897
       6       -0.000001090706     0.000000335615    -0.000002595761
       7       -0.000024926628     0.000071674414    -0.000040160701
       8       -0.000000486355     0.000001115978     0.000001942363
       9       -0.000000186066    -0.000000887242    -0.000000917347
      10        0.000049122182    -0.000030387524    -0.000097372208
      11        0.000005683120    -0.000002068691     0.000004519749
      12        0.000006825567     0.000008129163    -0.000001906669
      13       -0.000013637703    -0.000003735136    -0.000011514272
      14       -0.000050681810    -0.000003882115     0.000079028352
      15       -0.000010357744    -0.000002170918     0.000001530342
      16        0.000021692543     0.000000542163     0.000004745198
      17        0.000000868108    -0.000003855544     0.000000698514
      18       -0.000003194052     0.000006210322     0.000001621610
      19       -0.000004391092    -0.000001868042     0.000003564871
      20        0.000010036058    -0.000004830574     0.000009113081
      21        0.000000601210    -0.000001166791    -0.000002008692
      22       -0.000007314549    -0.000000591873    -0.000003751358
      23        0.000009583433     0.000004850748     0.000006663813
      24       -0.000008610138     0.000010634189    -0.000009575715
      25        0.000007017981    -0.000001965717     0.000007293860
      26       -0.000001559758     0.000005170111    -0.000003453614
      27       -0.000004752838    -0.000010728418    -0.000007267361

  **** Optimization is complete! (in 7 steps) ****
    Final optimized geometry and variables:
    Molecular point group: c1

    Geometry (in Angstrom), charge = 0, multiplicity = 1:

    H            2.263358002893     2.905386559849    -0.557725142194
    O            2.995770620237     2.551219343399    -1.026528176179
    C            3.179716865045     1.200824936019    -0.692319567903
    C            2.113564820105     0.282700375742    -1.270133372754
    H            4.147545564996     0.927422240535    -1.090545095395
    H            3.230513804537     1.080759322600     0.388233446198
    C            0.710814423550     0.517209001815    -0.711139652639
    H            2.101249504612     0.401771979353    -2.349282197559
    H            2.410569965715    -0.744207850582    -1.069381353387
    C           -0.339260988246    -0.463445664851    -1.277059251445
    H            0.407095562349     1.536815263220    -0.922603508287
    H            0.750062467265     0.430639467577     0.370993180431
    C           -0.985305436054    -1.377113077117    -0.233302831703
    H           -1.121303269527     0.086868849858    -1.790358902793
    H            0.129863644433    -1.084284028227    -2.032881988276
    C           -1.938407364422    -0.662380981894     0.722226095673
    H           -1.533801394035    -2.161741062414    -0.747033871129
    H           -0.205571642137    -1.876938893677     0.337508882069
    C           -2.558886120900    -1.591432865587     1.762152681791
    H           -2.731087502443    -0.192559609982     0.144293430555
    H           -1.419099177527     0.143446433814     1.233518643572
    C           -3.525355275294    -0.879449839693     2.702784280026
    H           -3.079505223675    -2.399709020538     1.255913387256
    H           -1.768150421731    -2.057245471456     2.344004918164
    H           -4.347518957361    -0.432211202187     2.154011006097
    H           -3.947098036479    -1.566735157400     3.427185421649
    H           -3.026230502508    -0.087129320755     3.250866504951

  Mulliken Charges: (a.u.)
   Center  Symbol    Alpha    Beta     Spin     Total
       1     H     0.39249  0.39249  0.00000  0.21502
       2     O     4.20547  4.20547  0.00000 -0.41094
       3     C     2.98005  2.98005  0.00000  0.03991
       4     C     3.08671  3.08671  0.00000 -0.17341
       5     H     0.44883  0.44883  0.00000  0.10234
       6     H     0.46998  0.46998  0.00000  0.06004
       7     C     3.11190  3.11190  0.00000 -0.22379
       8     H     0.44971  0.44971  0.00000  0.10059
       9     H     0.45571  0.45571  0.00000  0.08857
      10     C     3.10730  3.10730  0.00000 -0.21461
      11     H     0.45009  0.45009  0.00000  0.09982
      12     H     0.45232  0.45232  0.00000  0.09537
      13     C     3.09619  3.09619  0.00000 -0.19238
      14     H     0.44655  0.44655  0.00000  0.10691
      15     H     0.44702  0.44702  0.00000  0.10597
      16     C     3.08807  3.08807  0.00000 -0.17614
      17     H     0.44780  0.44780  0.00000  0.10440
      18     H     0.45433  0.45433  0.00000  0.09133
      19     C     3.08440  3.08440  0.00000 -0.16881
      20     H     0.45418  0.45418  0.00000  0.09164
      21     H     0.45386  0.45386  0.00000  0.09228
      22     C     3.14980  3.14980  0.00000 -0.29961
      23     H     0.45379  0.45379  0.00000  0.09243
      24     H     0.45468  0.45468  0.00000  0.09063
      25     H     0.45500  0.45500  0.00000  0.08999
      26     H     0.44822  0.44822  0.00000  0.10355
      27     H     0.45555  0.45555  0.00000  0.08889

   Total alpha = 37.00000, Total beta = 37.00000, Total charge = -0.00000

*** Psi4 exiting successfully. Buy a developer a beer!
