                              Psi4 1.0.54 Driver

  ==> Input File <==

--------------------------------------------------------------------------
set {
	reference rhf
	basis cc-pvtz
}

set_num_threads( 4 )
memory 2 gb

molecule MOL {
0 1

H	 -2.698799	 -0.000846	 0.036018
C	 -1.694291	 -0.000483	 0.434279
O	 -0.828718	 -0.000608	 -0.655022
H	 -1.576855	 0.881100	 1.056504
H	 -1.576401	 -0.881658	 1.057001
C	 0.557892	 0.000078	 -0.420099
C	 1.110569	 1.400563	 -0.180384
C	 0.966890	 -0.978903	 0.674691
H	 0.967493	 -0.360735	 -1.355332
H	 0.770403	 2.077622	 -0.954294
H	 2.193959	 1.376612	 -0.201324
H	 0.811620	 1.800106	 0.781686
H	 0.527158	 -1.952010	 0.493739
H	 2.045076	 -1.089285	 0.684926
H	 0.664034	 -0.642548	 1.659417

	symmetry c1
}
set optking {
	frozen_dihedral = ("
		9 6 3 2
	")
}

ee,wfn = optimize('scf', return_wfn=True)
oeprop( wfn, 'DIPOLE', 'QUADRUPOLE', 'MULLIKEN_CHARGES')
f=open( 'psi4out.xyz', 'w' )
f.write( "15  " )
f.write( str(ee) + "\n" )
f.write( MOL.save_string_xyz() )
f.close()
--------------------------------------------------------------------------

    Molecular point group: c1
  Charge       = 0
  Multiplicity = 1
  Basis Set: CC-PVTZ
  Basis Set:
  @DF-RHF Final Energy:  -232.22496773488587
    Total Energy =                       -232.2249677348857517
    Molecular point group: c1
  Basis Set: CC-PVTZ
  Basis Set:
  Basis Set: CC-PVTZ
  Basis Set:
  @DF-RHF Final Energy:  -232.22525174383250
    Total Energy =                       -232.2252517438322457
  Basis Set: CC-PVTZ
  Basis Set:
  Basis Set: CC-PVTZ
  Basis Set:
  @DF-RHF Final Energy:  -232.22547991325624
    Total Energy =                       -232.2254799132560947
  Basis Set: CC-PVTZ
  Basis Set:
  Basis Set: CC-PVTZ
  Basis Set:
  @DF-RHF Final Energy:  -232.22548273806794
    Total Energy =                       -232.2254827380679103
  Basis Set: CC-PVTZ
  Basis Set:
  Basis Set: CC-PVTZ
  Basis Set:
  @DF-RHF Final Energy:  -232.22548951584886
    Total Energy =                       -232.2254895158490626
  Basis Set: CC-PVTZ
  Basis Set:
  Charge       = 0
  Multiplicity = 1
  Basis Set: CC-PVTZ
  Basis Set:

    Orbital Energies (a.u.)
    -----------------------

    Doubly Occupied:

       1A    -20.541230     2A    -11.272696     3A    -11.259081
       4A    -11.210952     5A    -11.206626     6A     -1.372903
       7A     -1.051820     8A     -0.943446     9A     -0.927927
      10A     -0.781428    11A     -0.676255    12A     -0.643344
      13A     -0.634525    14A     -0.575713    15A     -0.560167
      16A     -0.552654    17A     -0.534614    18A     -0.502479
      19A     -0.495741    20A     -0.445499    21A     -0.407532

  @DF-RHF Final Energy:  -232.22548966841933

   => Energetics <=

    Nuclear Repulsion Energy =            199.0223811035994856
    One-Electron Energy =                -709.3024780012650581
    Two-Electron Energy =                 278.0546072292462441
    DFT Exchange-Correlation Energy =       0.0000000000000000
    Empirical Dispersion Energy =           0.0000000000000000
    PCM Polarization Energy =               0.0000000000000000
    EFP Energy =                            0.0000000000000000
    Total Energy =                       -232.2254896684193000
    Molecular point group: c1
  Basis Set: CC-PVTZ
  Basis Set:

  -Total Gradient:
     Atom            X                  Y                   Z
    ------   -----------------  -----------------  -----------------
       1       -0.000007864966     0.000007607052    -0.000011169891
       2        0.000033858854    -0.002082230977     0.000035931453
       3       -0.000000629743     0.002685137253     0.000105960099
       4       -0.000001773505     0.000011335940     0.000007041830
       5        0.000001125002    -0.000031242194     0.000018985058
       6        0.000150802466     0.001636290736    -0.001058661153
       7       -0.000003016780     0.000004738489     0.000025673710
       8       -0.000018187262     0.000020871370     0.000009645637
       9       -0.000120155296    -0.002258665496     0.000856668064
      10       -0.000002623692    -0.000002753891    -0.000001747263
      11       -0.000021364108    -0.000004654346    -0.000004074818
      12        0.000000471122     0.000016142577     0.000014605766
      13       -0.000016284910     0.000002177738     0.000010236850
      14       -0.000002626735    -0.000000222769    -0.000007898359
      15        0.000008269556    -0.000004531483    -0.000001196982

  **** Optimization is complete! (in 6 steps) ****
    Final optimized geometry and variables:
    Molecular point group: c1

    Geometry (in Angstrom), charge = 0, multiplicity = 1:

    H           -2.693673160096     0.040078221597     0.055646501336
    C           -1.695817391892    -0.085520700692     0.451181643825
    O           -0.829333225372    -0.105967194417    -0.636853407149
    H           -1.494728565379     0.739373370369     1.129347265897
    H           -1.667134843588    -1.011063691207     1.016594212815
    C            0.559293113198    -0.094649795826    -0.404988876397
    C            1.063613295544     1.325563847056    -0.185138064433
    C            1.003226923396    -1.044829526107     0.702068291386
    H            0.977306567970    -0.473433293758    -1.329719625675
    H            0.747896109307     1.963400322150    -1.000812357881
    H            2.146668201113     1.340749155556    -0.136372354772
    H            0.684877676976     1.744401462549     0.740704703757
    H            0.606573556122    -2.039454420583     0.537544820220
    H            2.084693020160    -1.111159019453     0.705099548393
    H            0.692529034166    -0.708512062602     1.684283988554

  Mulliken Charges: (a.u.)
   Center  Symbol    Alpha    Beta     Spin     Total
       1     H     0.44175  0.44175  0.00000  0.11651
       2     C     3.03942  3.03942  0.00000 -0.07885
       3     O     4.18503  4.18503  0.00000 -0.37006
       4     H     0.47099  0.47099  0.00000  0.05803
       5     H     0.46770  0.46770  0.00000  0.06461
       6     C     2.93389  2.93389  0.00000  0.13222
       7     C     3.14779  3.14779  0.00000 -0.29557
       8     C     3.16619  3.16619  0.00000 -0.33238
       9     H     0.44755  0.44755  0.00000  0.10490
      10     H     0.44551  0.44551  0.00000  0.10898
      11     H     0.45386  0.45386  0.00000  0.09228
      12     H     0.45675  0.45675  0.00000  0.08651
      13     H     0.44402  0.44402  0.00000  0.11195
      14     H     0.44640  0.44640  0.00000  0.10720
      15     H     0.45316  0.45316  0.00000  0.09369

   Total alpha = 21.00000, Total beta = 21.00000, Total charge = -0.00000

*** Psi4 exiting successfully. Buy a developer a beer!
