                              Psi4 1.0.54 Driver

  ==> Input File <==

--------------------------------------------------------------------------
set {
	reference rhf
	basis cc-pvtz
}

set_num_threads( 4 )
memory 2 gb

molecule MOL {
0 1

H	 2.451673	 0.771689	 -0.141765
O	 2.063695	 -0.083403	 -0.105237
C	 0.742924	 0.005675	 0.350750
H	 0.731380	 0.039219	 1.440080
C	 -0.064076	 -1.193495	 -0.124425
C	 -0.047832	 1.190568	 -0.194462
H	 0.194729	 -1.376165	 -1.161308
H	 0.163013	 -2.094508	 0.429933
C	 -1.533112	 -0.752002	 0.006102
H	 0.148003	 1.266545	 -1.259275
H	 0.226235	 2.136493	 0.259722
C	 -1.506634	 0.799189	 0.067162
H	 -2.124360	 -1.110499	 -0.826089
H	 -1.983103	 -1.158030	 0.903403
H	 -2.183808	 1.252169	 -0.644677
H	 -1.813926	 1.138698	 1.049457

	symmetry c1
}
set optking {
	frozen_dihedral = ("
		1 2 3 6
	")
}

ee,wfn = optimize('scf', return_wfn=True)
oeprop( wfn, 'DIPOLE', 'QUADRUPOLE', 'MULLIKEN_CHARGES')
f=open( 'psi4out.xyz', 'w' )
f.write( "16  " )
f.write( str(ee) + "\n" )
f.write( MOL.save_string_xyz() )
f.close()
--------------------------------------------------------------------------

    Molecular point group: c1
  Charge       = 0
  Multiplicity = 1
  Basis Set: CC-PVTZ
  Basis Set:
  @DF-RHF Final Energy:  -270.11606736600589
    Total Energy =                       -270.1160673660060070
    Molecular point group: c1
  Basis Set: CC-PVTZ
  Basis Set:
  Basis Set: CC-PVTZ
  Basis Set:
  @DF-RHF Final Energy:  -270.11611685966602
    Total Energy =                       -270.1161168596661355
  Basis Set: CC-PVTZ
  Basis Set:
  Basis Set: CC-PVTZ
  Basis Set:
  @DF-RHF Final Energy:  -270.11612788409622
    Total Energy =                       -270.1161278840961586
  Basis Set: CC-PVTZ
  Basis Set:
  Basis Set: CC-PVTZ
  Basis Set:
  @DF-RHF Final Energy:  -270.11612922014348
    Total Energy =                       -270.1161292201431365
  Basis Set: CC-PVTZ
  Basis Set:
  @DF-RHF Final Energy:  -270.11613171738622
    Total Energy =                       -270.1161317173862244
  @DF-RHF Final Energy:  -270.11613335328025
    Total Energy =                       -270.1161333532800768
  Basis Set: CC-PVTZ
  Basis Set:
  @DF-RHF Final Energy:  -270.11613466267653
    Total Energy =                       -270.1161346626765294
  Basis Set: CC-PVTZ
  Basis Set:
  Basis Set: CC-PVTZ
  Basis Set:
  @DF-RHF Final Energy:  -270.11613576026218
    Total Energy =                       -270.1161357602620683
  Basis Set: CC-PVTZ
  Basis Set:
  Basis Set: CC-PVTZ
  Basis Set:
  @DF-RHF Final Energy:  -270.11613678333799
    Total Energy =                       -270.1161367833379927
  Basis Set: CC-PVTZ
  Basis Set:
  Charge       = 0
  Multiplicity = 1
  Basis Set: CC-PVTZ
  Basis Set:

    Orbital Energies (a.u.)
    -----------------------

    Doubly Occupied:

       1A    -20.544872     2A    -11.266952     3A    -11.216881
       4A    -11.214270     5A    -11.214195     6A    -11.207208
       7A     -1.365130     8A     -1.116156     9A     -0.968628
      10A     -0.949606    11A     -0.794825    12A     -0.778855
      13A     -0.696477    14A     -0.662891    15A     -0.616460
      16A     -0.597437    17A     -0.572465    18A     -0.527846
      19A     -0.502949    20A     -0.483768    21A     -0.472407
      22A     -0.457675    23A     -0.446422    24A     -0.425948

  @DF-RHF Final Energy:  -270.11613702795034

   => Energetics <=

    Nuclear Repulsion Energy =            255.6519008255559982
    One-Electron Energy =                -873.3354316847344307
    Two-Electron Energy =                 347.5673938312281166
    DFT Exchange-Correlation Energy =       0.0000000000000000
    Empirical Dispersion Energy =           0.0000000000000000
    PCM Polarization Energy =               0.0000000000000000
    EFP Energy =                            0.0000000000000000
    Total Energy =                       -270.1161370279502876
    Molecular point group: c1
  Basis Set: CC-PVTZ
  Basis Set:

  -Total Gradient:
     Atom            X                  Y                   Z
    ------   -----------------  -----------------  -----------------
       1       -0.000531986154     0.000210025952    -0.001658135912
       2        0.000827834541     0.000040370207     0.002482927441
       3       -0.000631917180    -0.000884531653    -0.001757948067
       4        0.000007691227     0.000024056394    -0.000007098858
       5       -0.000017317590    -0.000016404789     0.000014282484
       6        0.000321959096     0.000634978334     0.000927211731
       7        0.000002773270    -0.000007730159     0.000003925301
       8       -0.000000324201     0.000005698607     0.000008525622
       9        0.000012733299    -0.000008654598     0.000005053835
      10       -0.000000862515    -0.000013619161    -0.000005681744
      11       -0.000002827093     0.000000986147    -0.000006839295
      12        0.000006288600     0.000010406036    -0.000004816671
      13        0.000012952428     0.000008804468    -0.000007414094
      14       -0.000012626932    -0.000003324529    -0.000010553139
      15       -0.000008271580     0.000007485205     0.000012195626
      16        0.000013900789    -0.000008546459     0.000004365742

  **** Optimization is complete! (in 10 steps) ****
    Final optimized geometry and variables:
    Molecular point group: c1

    Geometry (in Angstrom), charge = 0, multiplicity = 1:

    H            2.461133077703     0.770116379453    -0.104501442707
    O            2.071213111764    -0.084471357793    -0.090483415317
    C            0.742431053193    -0.003057107755     0.344325714589
    H            0.722013915089     0.023069934940     1.433934083558
    C           -0.068875845422    -1.194231207961    -0.140932077574
    C           -0.043260587757     1.189880888120    -0.188241550835
    H            0.165388846468    -1.353942952403    -1.187511108439
    H            0.168769396623    -2.107148431629     0.389129859165
    C           -1.532119698603    -0.752981812734     0.034410474004
    H            0.153361854503     1.282615768474    -1.252373559149
    H            0.231438119460     2.127652868279     0.282209646623
    C           -1.506291285588     0.799892994602     0.061533762954
    H           -2.156170430944    -1.132310515682    -0.763799712221
    H           -1.943285627825    -1.137971668933     0.959247502710
    H           -2.170638548912     1.235768083706    -0.672630152653
    H           -1.830636729528     1.162407846838     1.029527459420

  Mulliken Charges: (a.u.)
   Center  Symbol    Alpha    Beta     Spin     Total
       1     H     0.39309  0.39309  0.00000  0.21382
       2     O     4.20338  4.20338  0.00000 -0.40675
       3     C     2.92235  2.92235  0.00000  0.15531
       4     H     0.46479  0.46479  0.00000  0.07042
       5     C     3.09842  3.09842  0.00000 -0.19685
       6     C     3.11200  3.11200  0.00000 -0.22399
       7     H     0.45298  0.45298  0.00000  0.09404
       8     H     0.44257  0.44257  0.00000  0.11485
       9     C     3.11164  3.11164  0.00000 -0.22328
      10     H     0.45303  0.45303  0.00000  0.09393
      11     H     0.44642  0.44642  0.00000  0.10716
      12     C     3.11316  3.11316  0.00000 -0.22631
      13     H     0.44482  0.44482  0.00000  0.11037
      14     H     0.44859  0.44859  0.00000  0.10281
      15     H     0.44351  0.44351  0.00000  0.11297
      16     H     0.44925  0.44925  0.00000  0.10150

   Total alpha = 24.00000, Total beta = 24.00000, Total charge = -0.00000

*** Psi4 exiting successfully. Buy a developer a beer!
