                              Psi4 1.0.54 Driver

  ==> Input File <==

--------------------------------------------------------------------------
set {
	reference rhf
	basis cc-pvtz
}

set_num_threads( 4 )
memory 2 gb

molecule MOL {
0 1

H	 -2.698799	 -0.000846	 0.036018
C	 -1.694291	 -0.000483	 0.434279
O	 -0.828718	 -0.000608	 -0.655022
H	 -1.576855	 0.881100	 1.056504
H	 -1.576401	 -0.881658	 1.057001
C	 0.557892	 0.000078	 -0.420099
C	 1.032088	 1.266860	 0.283231
C	 1.033161	 -1.265659	 0.284372
H	 0.977963	 -0.000193	 -1.418177
H	 0.646017	 2.144613	 -0.220314
H	 2.114811	 1.313342	 0.266021
H	 0.720544	 1.300801	 1.320714
H	 0.647909	 -2.144196	 -0.218417
H	 2.115939	 -1.311205	 0.267313
H	 0.721553	 -1.298959	 1.321836

	symmetry c1
}
set optking {
	frozen_dihedral = ("
		9 6 3 2
	")
}

ee,wfn = optimize('scf', return_wfn=True)
oeprop( wfn, 'DIPOLE', 'QUADRUPOLE', 'MULLIKEN_CHARGES')
f=open( 'psi4out.xyz', 'w' )
f.write( "15  " )
f.write( str(ee) + "\n" )
f.write( MOL.save_string_xyz() )
f.close()
--------------------------------------------------------------------------

    Molecular point group: c1
  Charge       = 0
  Multiplicity = 1
  Basis Set: CC-PVTZ
  Basis Set:

    Orbital Energies (a.u.)
    -----------------------

    Doubly Occupied:

       1A    -20.541889     2A    -11.272614     3A    -11.258474
       4A    -11.208672     5A    -11.208656     6A     -1.373568
       7A     -1.051635     8A     -0.940214     9A     -0.931680
      10A     -0.781482    11A     -0.675583    12A     -0.642370
      13A     -0.635228    14A     -0.574015    15A     -0.565840
      16A     -0.552806    17A     -0.533735    18A     -0.497793
      19A     -0.497479    20A     -0.444830    21A     -0.409683

  @DF-RHF Final Energy:  -232.22617976064865

   => Energetics <=

    Nuclear Repulsion Energy =            199.0325933800017708
    One-Electron Energy =                -709.3210603309462385
    Two-Electron Energy =                 278.0622871902958195
    DFT Exchange-Correlation Energy =       0.0000000000000000
    Empirical Dispersion Energy =           0.0000000000000000
    PCM Polarization Energy =               0.0000000000000000
    EFP Energy =                            0.0000000000000000
    Total Energy =                       -232.2261797606486198
    Molecular point group: c1
  Basis Set: CC-PVTZ
  Basis Set:

  -Total Gradient:
     Atom            X                  Y                   Z
    ------   -----------------  -----------------  -----------------
       1        0.000040885841     0.000000857809    -0.000009462635
       2       -0.000019000594     0.000005905081     0.000113703002
       3        0.000006315176    -0.000003564592    -0.000062524285
       4       -0.000003893831    -0.000013171827    -0.000019747397
       5       -0.000000617196     0.000010944998    -0.000022492786
       6        0.000154730225    -0.000002863902     0.000016688448
       7       -0.000054889487     0.000006130794     0.000004902366
       8       -0.000065144667    -0.000006273363     0.000009905740
       9       -0.000029405955    -0.000000523872    -0.000019038804
      10        0.000009823824    -0.000018627655     0.000011610398
      11       -0.000037640195    -0.000011702945    -0.000008096721
      12        0.000006577511     0.000007333344    -0.000005398157
      13        0.000010763974     0.000022505138     0.000015433331
      14       -0.000028756506     0.000010287105    -0.000006044068
      15        0.000010251881    -0.000007236113    -0.000019438432

  **** Optimization is complete! (in 1 steps) ****
    Final optimized geometry and variables:
    Molecular point group: c1

    Geometry (in Angstrom), charge = 0, multiplicity = 1:

    H           -2.698798765667    -0.000881748360     0.036017795446
    C           -1.694290765667    -0.000518748360     0.434278795446
    O           -0.828717765667    -0.000643748360    -0.655022204554
    H           -1.576854765667     0.881064251640     1.056503795446
    H           -1.576400765667    -0.881693748360     1.057000795446
    C            0.557892234333     0.000042251640    -0.420099204554
    C            1.032088234333     1.266824251640     0.283230795446
    C            1.033161234333    -1.265694748360     0.284371795446
    H            0.977963234333    -0.000228748360    -1.418177204554
    H            0.646017234333     2.144577251640    -0.220314204554
    H            2.114811234333     1.313306251640     0.266020795446
    H            0.720544234333     1.300765251640     1.320713795446
    H            0.647909234333    -2.144231748360    -0.218417204554
    H            2.115939234333    -1.311240748360     0.267312795446
    H            0.721553234333    -1.298994748360     1.321835795446

  Mulliken Charges: (a.u.)
   Center  Symbol    Alpha    Beta     Spin     Total
       1     H     0.44075  0.44075  0.00000  0.11849
       2     C     3.03890  3.03890  0.00000 -0.07781
       3     O     4.18305  4.18305  0.00000 -0.36609
       4     H     0.47039  0.47039  0.00000  0.05922
       5     H     0.47039  0.47039  0.00000  0.05923
       6     C     2.93319  2.93319  0.00000  0.13361
       7     C     3.15865  3.15865  0.00000 -0.31730
       8     C     3.15865  3.15865  0.00000 -0.31731
       9     H     0.44701  0.44701  0.00000  0.10599
      10     H     0.44386  0.44386  0.00000  0.11229
      11     H     0.44967  0.44967  0.00000  0.10067
      12     H     0.45599  0.45599  0.00000  0.08803
      13     H     0.44386  0.44386  0.00000  0.11229
      14     H     0.44967  0.44967  0.00000  0.10066
      15     H     0.45598  0.45598  0.00000  0.08804

   Total alpha = 21.00000, Total beta = 21.00000, Total charge =  0.00000

*** Psi4 exiting successfully. Buy a developer a beer!
