  ==> Input File <==

--------------------------------------------------------------------------
set {
	reference rhf
	basis 6-31G*
}

set_num_threads( 1 )
memory 2 gb

molecule MOL {
0 1

H	 -2.148721	 -0.186756	 -2.037748
O	 -2.221601	 -0.156094	 -1.094278
C	 -1.129437	 0.542214	 -0.558991
C	 0.135985	 -0.295880	 -0.603416
H	 -0.962854	 1.483389	 -1.075517
H	 -1.375460	 0.770018	 0.468641
O	 1.171513	 0.459272	 -0.058250
H	 0.365340	 -0.573644	 -1.634059
H	 -0.016041	 -1.216954	 -0.043867
C	 2.397842	 -0.198080	 -0.002151
H	 2.508049	 -0.905315	 -0.822092
H	 3.173794	 0.550865	 -0.078850
H	 2.517602	 -0.735921	 0.936026

	symmetry c1
}
set optking {
	frozen_dihedral = ("
		8 4 3 5,
		1 2 3 5,
		10 7 4 8
	")
}

ee = energy('scf')
oeprop('DIPOLE', 'QUADRUPOLE', 'MULLIKEN_CHARGES')
f=open( 'psi4out.xyz', 'w' )
f.write( "13  " )
f.write( str(ee) + "\n" )
f.write( MOL.save_string_xyz() )
f.close()
--------------------------------------------------------------------------

    Molecular point group: c1

    Geometry (in Angstrom), charge = 0, multiplicity = 1:

       Center              X                  Y                   Z               Mass
    ------------   -----------------  -----------------  -----------------  -----------------
           H         -2.203289987837    -0.247341364473    -1.554787774282     1.007825032070
           O         -2.276169987837    -0.216679364473    -0.611317774282    15.994914619560
           C         -1.184005987837     0.481628635527    -0.076030774282    12.000000000000
           C          0.081416012163    -0.356465364473    -0.120455774282    12.000000000000
           H         -1.017422987837     1.422803635527    -0.592556774282     1.007825032070
           H         -1.430028987837     0.709432635527     0.951601225718     1.007825032070
           O          1.116944012163     0.398686635527     0.424710225718    15.994914619560
           H          0.310771012163    -0.634229364473    -1.151098774282     1.007825032070
           H         -0.070609987837    -1.277539364473     0.439093225718     1.007825032070
           C          2.343273012163    -0.258665364473     0.480809225718    12.000000000000
           H          2.453480012163    -0.965900364473    -0.339131774282     1.007825032070
           H          3.119225012163     0.490279635527     0.404110225718     1.007825032070
           H          2.463033012163    -0.796506364473     1.418986225718     1.007825032070

  Charge       = 0
  Multiplicity = 1
  Basis Set: 6-31G*
  Basis Set:

    Orbital Energies (a.u.)
    -----------------------

    Doubly Occupied:

       1A    -20.561052     2A    -20.560091     3A    -11.271149
       4A    -11.269787     5A    -11.268801     6A     -1.388427
       7A     -1.365121     8A     -1.018315     9A     -0.913215
      10A     -0.842455    11A     -0.709095    12A     -0.673607
      13A     -0.660503    14A     -0.636406    15A     -0.597196
      16A     -0.567069    17A     -0.547923    18A     -0.488874
      19A     -0.483135    20A     -0.438424    21A     -0.419466

  @DF-RHF Final Energy:  -267.94865153141086

   => Energetics <=

    Nuclear Repulsion Energy =            190.2610048765284887
    One-Electron Energy =                -743.0591060285344156
    Two-Electron Energy =                 284.8494496205950099
    DFT Exchange-Correlation Energy =       0.0000000000000000
    Empirical Dispersion Energy =           0.0000000000000000
    PCM Polarization Energy =               0.0000000000000000
    EFP Energy =                            0.0000000000000000
    Total Energy =                       -267.9486515314109738

  Mulliken Charges: (a.u.)
   Center  Symbol    Alpha    Beta     Spin     Total
       1     H     0.28132  0.28132  0.00000  0.43736
       2     O     4.37080  4.37080  0.00000 -0.74160
       3     C     3.00491  3.00491  0.00000 -0.00982
       4     C     2.99751  2.99751  0.00000  0.00497
       5     H     0.42235  0.42235  0.00000  0.15530
       6     H     0.40840  0.40840  0.00000  0.18320
       7     O     4.30825  4.30825  0.00000 -0.61650
       8     H     0.43691  0.43691  0.00000  0.12618
       9     H     0.42344  0.42344  0.00000  0.15312
      10     C     3.07850  3.07850  0.00000 -0.15700
      11     H     0.42985  0.42985  0.00000  0.14031
      12     H     0.41350  0.41350  0.00000  0.17300
      13     H     0.42426  0.42426  0.00000  0.15148

   Total alpha = 21.00000, Total beta = 21.00000, Total charge =  0.00000
