  ==> Input File <==

--------------------------------------------------------------------------
set {
	reference rhf
	basis cc-pvtz
}

set_num_threads( 4 )
memory 2 gb

molecule MOL {
0 1

H	 -1.917815	 0.643473	 -2.118373
C	 -1.422371	 -0.253634	 -1.754206
O	 -1.401606	 -0.295183	 -0.366624
H	 -1.968411	 -1.118056	 -2.102780
H	 -0.417033	 -0.284193	 -2.170435
C	 -0.718530	 0.758693	 0.228682
C	 0.718529	 0.758687	 -0.228709
H	 -1.176498	 1.708665	 -0.046615
H	 -0.748705	 0.673525	 1.312779
O	 1.401606	 -0.295166	 0.366636
H	 0.748705	 0.673477	 -1.312803
H	 1.176496	 1.708671	 0.046552
C	 2.714315	 -0.441627	 -0.061017
H	 2.765292	 -0.641548	 -1.128869
H	 3.305661	 0.447341	 0.150952
H	 3.143725	 -1.278506	 0.470147

	symmetry c1
}
set optking {
	frozen_dihedral = ("
		2 3 6 7
	")
}

ee = optimize('scf')
oeprop('DIPOLE', 'QUADRUPOLE', 'MULLIKEN_CHARGES')
f=open( 'psi4out.xyz', 'w' )
f.write( "16  " )
f.write( str(ee) + "\n" )
f.write( MOL.save_string_xyz() )
f.close()
--------------------------------------------------------------------------

    Molecular point group: c1
  Charge       = 0
  Multiplicity = 1
  Basis Set: CC-PVTZ
  Basis Set:
  @DF-RHF Final Energy:  -307.08734819869471
    Total Energy =                       -307.0873481986949400
    Molecular point group: c1
  Basis Set: CC-PVTZ
  Basis Set:
  Basis Set: CC-PVTZ
  Basis Set:
  @DF-RHF Final Energy:  -307.09139229609013
    Total Energy =                       -307.0913922960900777
  Basis Set: CC-PVTZ
  Basis Set:
  Basis Set: CC-PVTZ
  Basis Set:
  @DF-RHF Final Energy:  -307.09388601030207
    Total Energy =                       -307.0938860103020716
  Basis Set: CC-PVTZ
  Basis Set:
  Basis Set: CC-PVTZ
  Basis Set:
  @DF-RHF Final Energy:  -307.09442841608984
    Total Energy =                       -307.0944284160898405
  Basis Set: CC-PVTZ
  Basis Set:
  Basis Set: CC-PVTZ
  Basis Set:
  @DF-RHF Final Energy:  -307.09453230464572
    Total Energy =                       -307.0945323046457816
  Basis Set: CC-PVTZ
  Basis Set:
  Basis Set: CC-PVTZ
  Basis Set:
  @DF-RHF Final Energy:  -307.09455251347390
    Total Energy =                       -307.0945525134740137
  Basis Set: CC-PVTZ
  Basis Set:
  Charge       = 0
  Multiplicity = 1
  Basis Set: CC-PVTZ
  Basis Set:

    Orbital Energies (a.u.)
    -----------------------

    Doubly Occupied:

       1A    -20.552399     2A    -20.546005     3A    -11.270680
       4A    -11.267697     5A    -11.265706     6A    -11.260632
       7A     -1.393335     8A     -1.373720     9A     -1.029257
      10A     -0.948125    11A     -0.900442    12A     -0.814050
      13A     -0.692154    14A     -0.682759    15A     -0.661200
      16A     -0.639693    17A     -0.631421    18A     -0.599520
      19A     -0.557613    20A     -0.530906    21A     -0.517702
      22A     -0.492258    23A     -0.456769    24A     -0.423511
      25A     -0.413230

  @DF-RHF Final Energy:  -307.09455535481754

   => Energetics <=

    Nuclear Repulsion Energy =            263.2145230968236547
    One-Electron Energy =                -940.7765860178135426
    Two-Electron Energy =                 370.4675075661722872
    DFT Exchange-Correlation Energy =       0.0000000000000000
    Empirical Dispersion Energy =           0.0000000000000000
    PCM Polarization Energy =               0.0000000000000000
    EFP Energy =                            0.0000000000000000
    Total Energy =                       -307.0945553548176008
    Molecular point group: c1
  Basis Set: CC-PVTZ
  Basis Set:

  -Total Gradient:
     Atom            X                  Y                   Z
    ------   -----------------  -----------------  -----------------
       1       -0.000012782960    -0.000019073982     0.000018588822
       2        0.000859035846    -0.000512182116    -0.000128796448
       3       -0.001316214897     0.001021808087    -0.000300723096
       4       -0.000016588195     0.000006551531     0.000060385418
       5        0.000010597482    -0.000013970026     0.000022177216
       6        0.000719576588    -0.000936218854     0.001086682182
       7       -0.000176063426     0.000548368403    -0.000723180333
       8       -0.000006330023    -0.000042784856     0.000004095710
       9       -0.000042042177    -0.000031825634    -0.000016539739
      10       -0.000006392363    -0.000006957405     0.000029910297
      11       -0.000001045139     0.000000695051    -0.000028865535
      12        0.000008201751    -0.000015694200    -0.000011145051
      13       -0.000000667514     0.000001209633    -0.000015976628
      14        0.000005028804     0.000001675294    -0.000002650269
      15       -0.000018062875    -0.000000368488     0.000002665802
      16       -0.000006250903    -0.000001232440     0.000003371653

  **** Optimization is complete! (in 7 steps) ****
    Final optimized geometry and variables:
    Molecular point group: c1

    Geometry (in Angstrom), charge = 0, multiplicity = 1:

    H           -1.994792332428     0.575996578552    -1.848029656284
    C           -1.724914568478    -0.378526139502    -1.399011463428
    O           -1.662823971023    -0.293919506130    -0.013354885014
    H           -2.490344649345    -1.100929670718    -1.643025786213
    H           -0.787489374409    -0.713952781701    -1.830563713794
    C           -0.920307028359     0.755303380752     0.518152271732
    C            0.546149745793     0.781351637890     0.136281107475
    H           -1.356434615636     1.711561091848     0.226529112675
    H           -1.001320345938     0.662818548521     1.592050087891
    O            1.170983687511    -0.380692871802     0.569377398436
    H            0.669021219850     0.900408716310    -0.938690744975
    H            0.994297733808     1.657244209452     0.606266956189
    C            2.526520483310    -0.448676622117     0.275063170338
    H            2.704772376605    -0.407959036159    -0.797558521451
    H            3.078295994078     0.362729292502     0.745321546337
    H            2.900298576975    -1.388655440321     0.653653580077

  Mulliken Charges: (a.u.)
   Center  Symbol    Alpha    Beta     Spin     Total
       1     H     0.47392  0.47392  0.00000  0.05217
       2     C     3.03576  3.03576  0.00000 -0.07153
       3     O     4.17220  4.17220  0.00000 -0.34440
       4     H     0.44341  0.44341  0.00000  0.11318
       5     H     0.46713  0.46713  0.00000  0.06575
       6     C     2.97566  2.97566  0.00000  0.04867
       7     C     2.98198  2.98198  0.00000  0.03605
       8     H     0.47155  0.47155  0.00000  0.05689
       9     H     0.45002  0.45002  0.00000  0.09996
      10     O     4.16980  4.16980  0.00000 -0.33961
      11     H     0.47305  0.47305  0.00000  0.05389
      12     H     0.46342  0.46342  0.00000  0.07317
      13     C     3.03330  3.03330  0.00000 -0.06660
      14     H     0.47245  0.47245  0.00000  0.05509
      15     H     0.47105  0.47105  0.00000  0.05789
      16     H     0.44529  0.44529  0.00000  0.10943

   Total alpha = 25.00000, Total beta = 25.00000, Total charge =  0.00000
