                              Psi4 1.0.54 Driver

  ==> Input File <==

--------------------------------------------------------------------------
set {
	reference rhf
	basis cc-pvtz
}

set_num_threads( 4 )
memory 2 gb

molecule MOL {
0 1

O	 -2.081319	 -0.951530	 -0.502732
N	 -1.613558	 0.006676	 0.014756
C	 -0.329345	 -0.171618	 0.743966
O	 -2.068523	 1.100482	 -0.024385
C	 0.835904	 0.041968	 -0.213982
H	 -0.346048	 -1.174374	 1.137184
H	 -0.333613	 0.555559	 1.538590
C	 2.177039	 -0.130175	 0.494460
H	 0.754456	 -0.665923	 -1.030569
H	 0.765464	 1.037260	 -0.637266
C	 2.171594	 0.457392	 1.901306
H	 2.958599	 0.343604	 -0.092171
H	 2.425767	 -1.186116	 0.544750
H	 1.958582	 1.520345	 1.879999
H	 1.420206	 -0.019230	 2.520954
H	 3.132876	 0.321124	 2.381443

	symmetry c1
}
set optking {
	frozen_dihedral = ("
		11 8 5 9
	")
}

ee,wfn = optimize('scf', return_wfn=True)
oeprop( wfn, 'DIPOLE', 'QUADRUPOLE', 'MULLIKEN_CHARGES')
f=open( 'psi4out.xyz', 'w' )
f.write( "16  " )
f.write( str(ee) + "\n" )
f.write( MOL.save_string_xyz() )
f.close()
--------------------------------------------------------------------------

    Molecular point group: c1
  Charge       = 0
  Multiplicity = 1
  Basis Set: CC-PVTZ
  Basis Set:
  @DF-RHF Final Energy:  -360.90342095813162
    Total Energy =                       -360.9034209581317327
    Molecular point group: c1
  Basis Set: CC-PVTZ
  Basis Set:
  Basis Set: CC-PVTZ
  Basis Set:
  @DF-RHF Final Energy:  -359.95533695098828
    Total Energy =                       -359.9553369509882259
  Basis Set: CC-PVTZ
  Basis Set:
  Basis Set: CC-PVTZ
  Basis Set:
  @DF-RHF Final Energy:  -360.16086970302274
    Total Energy =                       -360.1608697030226836
  Basis Set: CC-PVTZ
  Basis Set:
  Basis Set: CC-PVTZ
  Basis Set:
  @DF-RHF Final Energy:  -360.57066480665276
    Total Energy =                       -360.5706648066529283
  Basis Set: CC-PVTZ
  Basis Set:
  @DF-RHF Final Energy:  -360.75625270732712
    Total Energy =                       -360.7562527073273486
  @DF-RHF Final Energy:  -360.85787327323271
    Total Energy =                       -360.8578732732325989
  @DF-RHF Final Energy:  -360.89569720650968
    Total Energy =                       -360.8956972065094533
  @DF-RHF Final Energy:  -360.90300560361777
    Total Energy =                       -360.9030056036178848
  @DF-RHF Final Energy:  -360.85081609358144
    Total Energy =                       -360.8508160935816704
  @DF-RHF Final Energy:  -360.89230735810480
    Total Energy =                       -360.8923073581049721
  @DF-RHF Final Energy:  -360.90505287943955
    Total Energy =                       -360.9050528794396087
  @DF-RHF Final Energy:  -360.90547939183625
    Total Energy =                       -360.9054793918363657
  Basis Set: CC-PVTZ
  Basis Set:
  @DF-RHF Final Energy:  -360.90563281542478
    Total Energy =                       -360.9056328154246671
  Basis Set: CC-PVTZ
  Basis Set:
  Basis Set: CC-PVTZ
  Basis Set:
  @DF-RHF Final Energy:  -360.90563969249968
    Total Energy =                       -360.9056396924995056
  Basis Set: CC-PVTZ
  Basis Set:
  Basis Set: CC-PVTZ
  Basis Set:
  @DF-RHF Final Energy:  -360.90564574307234
    Total Energy =                       -360.9056457430726823
  Basis Set: CC-PVTZ
  Basis Set:
  Charge       = 0
  Multiplicity = 1
  Basis Set: CC-PVTZ
  Basis Set:

    Orbital Energies (a.u.)
    -----------------------

    Doubly Occupied:

       1A    -20.589434     2A    -20.589225     3A    -15.835763
       4A    -11.295396     5A    -11.251207     6A    -11.242106
       7A    -11.229629     8A     -1.634823     9A     -1.419099
      10A     -1.136193    11A     -1.057214    12A     -0.952527
      13A     -0.855919    14A     -0.816689    15A     -0.761234
      16A     -0.737599    17A     -0.722755    18A     -0.672911
      19A     -0.623250    20A     -0.606426    21A     -0.574556
      22A     -0.554601    23A     -0.511390    24A     -0.499975
      25A     -0.493430    26A     -0.485104    27A     -0.471831
      28A     -0.451709

  @DF-RHF Final Energy:  -360.90564639936400

   => Energetics <=

    Nuclear Repulsion Energy =            317.0575764097017668
    One-Electron Energy =               -1119.7824467517757512
    Two-Electron Energy =                 441.8192239427097547
    DFT Exchange-Correlation Energy =       0.0000000000000000
    Empirical Dispersion Energy =           0.0000000000000000
    PCM Polarization Energy =               0.0000000000000000
    EFP Energy =                            0.0000000000000000
    Total Energy =                       -360.9056463993641728
    Molecular point group: c1
  Basis Set: CC-PVTZ
  Basis Set:

  -Total Gradient:
     Atom            X                  Y                   Z
    ------   -----------------  -----------------  -----------------
       1        0.000001047476    -0.000041652242    -0.000017285680
       2       -0.000006738615     0.000017936053    -0.000010388476
       3       -0.000134560765     0.000029412619     0.000089895369
       4        0.000018221154    -0.000025975251     0.000015770375
       5        0.003475789927     0.001030667445    -0.003290048625
       6        0.000032090346     0.000013733189    -0.000043950217
       7        0.000048706592    -0.000036428073    -0.000034579325
       8        0.001424959732     0.002642576769    -0.003138354571
       9       -0.003364692022    -0.001569130717     0.003545642141
      10        0.000000133191     0.000000052564     0.000031661084
      11       -0.001562876226    -0.002027274497     0.002830445714
      12       -0.000027165523    -0.000001186095     0.000026436591
      13        0.000012741751     0.000010198568     0.000006707870
      14       -0.000010360408    -0.000049684819     0.000003288167
      15        0.000070103379     0.000023403881    -0.000008099105
      16        0.000022600005    -0.000016649394    -0.000007141314

  **** Optimization is complete! (in 16 steps) ****
    Final optimized geometry and variables:
    Molecular point group: c1

    Geometry (in Angstrom), charge = 0, multiplicity = 1:

    O           -0.900256263386    -2.111092186097    -0.369156268740
    N           -0.935741784193    -0.966746556219    -0.676397593632
    C           -0.403438649192     0.020748927548     0.300801696245
    O           -1.335176486062    -0.544645447324    -1.709566777137
    C            1.077461720186     0.256581021335     0.009262225054
    H           -0.557518327141    -0.412685541200     1.275044994489
    H           -0.997381532759     0.908397018196     0.173153994414
    C            1.760030135008     1.149474563736     1.054888349575
    H            1.552615048238    -0.716544670946     0.016119472463
    H            1.172533599829     0.681259671632    -0.981875284404
    C            0.953888099522     2.358983064362     1.523411296937
    H            2.707107947334     1.479493663551     0.645062137406
    H            2.001327722880     0.543679950096     1.922832152809
    H            0.648576371153     2.985228849981     0.691395628165
    H            0.062600539479     2.066218045086     2.065267979654
    H            1.549965973294     2.969027638169     2.190697063645

  Mulliken Charges: (a.u.)
   Center  Symbol    Alpha    Beta     Spin     Total
       1     O     4.17374  4.17374  0.00000 -0.34748
       2     N     3.27488  3.27488  0.00000  0.45024
       3     C     3.04406  3.04406  0.00000 -0.08813
       4     O     4.17460  4.17460  0.00000 -0.34920
       5     C     3.10914  3.10914  0.00000 -0.21829
       6     H     0.43337  0.43337  0.00000  0.13326
       7     H     0.43271  0.43271  0.00000  0.13458
       8     C     3.09557  3.09557  0.00000 -0.19114
       9     H     0.43411  0.43411  0.00000  0.13177
      10     H     0.43518  0.43518  0.00000  0.12963
      11     C     3.15894  3.15894  0.00000 -0.31788
      12     H     0.44286  0.44286  0.00000  0.11429
      13     H     0.44793  0.44793  0.00000  0.10414
      14     H     0.44913  0.44913  0.00000  0.10173
      15     H     0.45344  0.45344  0.00000  0.09312
      16     H     0.44033  0.44033  0.00000  0.11935

   Total alpha = 28.00000, Total beta = 28.00000, Total charge =  0.00000

*** Psi4 exiting successfully. Buy a developer a beer!
