  ==> Input File <==

--------------------------------------------------------------------------
set {
	reference rhf
	basis cc-pvtz
}

set_num_threads( 4 )
memory 2 gb

molecule MOL {
0 1

H	 -0.000105	 1.988529	 0.748933
O	 -0.000098	 1.879786	 -0.188206
C	 -0.000014	 0.545691	 -0.532416
C	 -0.090462	 -0.323652	 0.722909
C	 1.195510	 0.232903	 -1.433892
H	 -0.890157	 0.352652	 -1.112970
F	 -1.194005	 -0.038004	 1.369019
F	 -0.108276	 -1.602255	 0.442608
F	 0.918506	 -0.096382	 1.536363
F	 1.123683	 0.965054	 -2.518168
F	 1.228235	 -1.023836	 -1.798926
F	 2.332960	 0.515793	 -0.835930

	symmetry c1
}
set optking {
	frozen_dihedral = ("
		6 3 2 1
	")
}

ee = optimize('scf')
oeprop('DIPOLE', 'QUADRUPOLE', 'MULLIKEN_CHARGES')
f=open( 'psi4out.xyz', 'w' )
f.write( "12  " )
f.write( str(ee) + "\n" )
f.write( MOL.save_string_xyz() )
f.close()
--------------------------------------------------------------------------

    Molecular point group: c1
  Charge       = 0
  Multiplicity = 1
  Basis Set: CC-PVTZ
  Basis Set:
  @DF-RHF Final Energy:  -786.58460031578193
    Total Energy =                       -786.5846003157818132
    Molecular point group: c1
  Basis Set: CC-PVTZ
  Basis Set:
  Basis Set: CC-PVTZ
  Basis Set:
  @DF-RHF Final Energy:  -786.58542896307245
    Total Energy =                       -786.5854289630731273
  Basis Set: CC-PVTZ
  Basis Set:
  Basis Set: CC-PVTZ
  Basis Set:
  @DF-RHF Final Energy:  -786.58558487358937
    Total Energy =                       -786.5855848735898235
  Basis Set: CC-PVTZ
  Basis Set:
  Basis Set: CC-PVTZ
  Basis Set:
  @DF-RHF Final Energy:  -786.58560882073073
    Total Energy =                       -786.5856088207304992
  Basis Set: CC-PVTZ
  Basis Set:
  Basis Set: CC-PVTZ
  Basis Set:
  @DF-RHF Final Energy:  -786.58561350339608
    Total Energy =                       -786.5856135033969849
  Basis Set: CC-PVTZ
  Basis Set:
  Charge       = 0
  Multiplicity = 1
  Basis Set: CC-PVTZ
  Basis Set:

    Orbital Energies (a.u.)
    -----------------------

    Doubly Occupied:

       1A    -26.363863     2A    -26.363416     3A    -26.363191
       4A    -26.351229     5A    -26.349611     6A    -26.347819
       7A    -20.607636     8A    -11.527444     9A    -11.514192
      10A    -11.351927    11A     -1.776969    12A     -1.762229
      13A     -1.672807    14A     -1.669251    15A     -1.657673
      16A     -1.656001    17A     -1.436869    18A     -1.105148
      19A     -1.003203    20A     -0.944418    21A     -0.876035
      22A     -0.869316    23A     -0.863336    24A     -0.849453
      25A     -0.838850    26A     -0.807763    27A     -0.753097
      28A     -0.740129    29A     -0.726807    30A     -0.724614
      31A     -0.707610    32A     -0.696553    33A     -0.692017
      34A     -0.677508    35A     -0.674681    36A     -0.672374
      37A     -0.659466    38A     -0.656794    39A     -0.621514
      40A     -0.550600    41A     -0.507568

  @DF-RHF Final Energy:  -786.58561437252195

   => Energetics <=

    Nuclear Repulsion Energy =            670.9963129694618829
    One-Electron Energy =               -2429.1818882828047208
    Two-Electron Energy =                 971.5999609408210063
    DFT Exchange-Correlation Energy =       0.0000000000000000
    Empirical Dispersion Energy =           0.0000000000000000
    PCM Polarization Energy =               0.0000000000000000
    EFP Energy =                            0.0000000000000000
    Total Energy =                       -786.5856143725217180
    Molecular point group: c1
  Basis Set: CC-PVTZ
  Basis Set:

  -Total Gradient:
     Atom            X                  Y                   Z
    ------   -----------------  -----------------  -----------------
       1       -0.000973419046     0.000000302295     0.000026369596
       2        0.001122566423    -0.000119254938     0.000140998025
       3        0.000275458293     0.000243615841    -0.000877920053
       4        0.000113762610    -0.000092257672    -0.000024022917
       5        0.000067513000     0.000209301676     0.000120653166
       6       -0.000420954823    -0.000131767703     0.000701715333
       7       -0.000169518652     0.000047491464     0.000062929218
       8        0.000047931678     0.000039559167    -0.000005316699
       9       -0.000021437885    -0.000020766461    -0.000004699168
      10        0.000013077052    -0.000044357127     0.000000469306
      11        0.000002639991    -0.000095115188    -0.000010310711
      12       -0.000057618637    -0.000036751355    -0.000130865086

  **** Optimization is complete! (in 6 steps) ****
    Final optimized geometry and variables:
    Molecular point group: c1

    Geometry (in Angstrom), charge = 0, multiplicity = 1:

    H           -0.570608975181     1.957443922784     1.014649718806
    O           -0.569244553553     1.797534020163     0.087672175485
    C           -0.572650418890     0.450592767351    -0.221508840772
    C           -0.640114059618    -0.414712226054     1.034890677770
    C            0.637175710198     0.163733631734    -1.110898350037
    H           -1.452783939330     0.203310585791    -0.802225631416
    F           -1.734238076585    -0.106365171846     1.701030132998
    F           -0.685280943293    -1.688701374000     0.753425624585
    F            0.374680471580    -0.201789181394     1.839987144344
    F            0.584701147535     0.934226221526    -2.169155544811
    F            0.638491086300    -1.082978298150    -1.523561832062
    F            1.771795075260     0.391542720415    -0.498885151611

  Mulliken Charges: (a.u.)
   Center  Symbol    Alpha    Beta     Spin     Total
       1     H     0.38209  0.38209  0.00000  0.23581
       2     O     4.18990  4.18990  0.00000 -0.37981
       3     C     2.99604  2.99604  0.00000  0.00792
       4     C     2.68825  2.68825  0.00000  0.62350
       5     C     2.67981  2.67981  0.00000  0.64039
       6     H     0.43761  0.43761  0.00000  0.12478
       7     F     4.60874  4.60874  0.00000 -0.21749
       8     F     4.59809  4.59809  0.00000 -0.19618
       9     F     4.60625  4.60625  0.00000 -0.21249
      10     F     4.60214  4.60214  0.00000 -0.20427
      11     F     4.60631  4.60631  0.00000 -0.21262
      12     F     4.60477  4.60477  0.00000 -0.20955

   Total alpha = 41.00000, Total beta = 41.00000, Total charge = -0.00000
