  ==> Input File <==

--------------------------------------------------------------------------
set {
	reference rhf
	basis 6-31G*
}

set_num_threads( 4 )
memory 2 gb

molecule MOL {
0 1

H	 3.246943	 -1.937699	 -2.331899
C	 2.943443	 -1.658604	 -1.328034
C	 1.678153	 -0.802255	 -1.353909
H	 2.786256	 -2.574207	 -0.764836
H	 3.771928	 -1.126584	 -0.868890
C	 1.217350	 -0.386724	 0.039429
H	 0.870356	 -1.341574	 -1.838665
H	 1.858924	 0.088955	 -1.952624
N	 0.000003	 0.397874	 -0.023260
H	 1.011782	 -1.276130	 0.629059
H	 2.028388	 0.142560	 0.550756
C	 -1.217365	 -0.386708	 0.039277
H	 -0.000031	 1.072115	 0.718656
C	 -2.452633	 0.504241	 -0.042481
H	 -1.215291	 -1.074557	 -0.802042
H	 -1.269739	 -1.003477	 0.942735
C	 -3.758029	 -0.289423	 -0.010781
H	 -2.394220	 1.093569	 -0.952170
H	 -2.440793	 1.210787	 0.785871
H	 -3.816659	 -0.981993	 -0.845726
H	 -4.617837	 0.370165	 -0.069296
H	 -3.847478	 -0.867502	 0.904682

	symmetry c1
}
set optking {
	frozen_dihedral = ("
		10 6 9 12
	")
}

ee = optimize('scf')
oeprop('DIPOLE', 'QUADRUPOLE', 'MULLIKEN_CHARGES')
f=open( 'psi4out.xyz', 'w' )
f.write( "22  " )
f.write( str(ee) + "\n" )
f.write( MOL.save_string_xyz() )
f.close()
--------------------------------------------------------------------------

    Molecular point group: c1
  Charge       = 0
  Multiplicity = 1
  Basis Set: 6-31G*
  Basis Set:
  @DF-RHF Final Energy:  -290.37938347523834
    Total Energy =                       -290.3793834752383418
    Molecular point group: c1
  Basis Set: 6-31G*
  Basis Set:
  Basis Set: 6-31G*
  Basis Set:
  @DF-RHF Final Energy:  -290.38053378820518
    Total Energy =                       -290.3805337882054118
  Basis Set: 6-31G*
  Basis Set:
  Basis Set: 6-31G*
  Basis Set:
  @DF-RHF Final Energy:  -290.38077889584548
    Total Energy =                       -290.3807788958454807
  Basis Set: 6-31G*
  Basis Set:
  Basis Set: 6-31G*
  Basis Set:
  @DF-RHF Final Energy:  -290.38078404101736
    Total Energy =                       -290.3807840410171934
  Basis Set: 6-31G*
  Basis Set:
  Basis Set: 6-31G*
  Basis Set:
  @DF-RHF Final Energy:  -290.38078689191570
    Total Energy =                       -290.3807868919158750
  Basis Set: 6-31G*
  Basis Set:
  Charge       = 0
  Multiplicity = 1
  Basis Set: 6-31G*
  Basis Set:

    Orbital Energies (a.u.)
    -----------------------

    Doubly Occupied:

       1A    -15.533606     2A    -11.238658     3A    -11.238367
       4A    -11.213598     5A    -11.209891     6A    -11.207548
       7A    -11.206702     8A     -1.203449     9A     -1.056314
      10A     -1.025412    11A     -0.927961    12A     -0.872018
      13A     -0.805970    14A     -0.790064    15A     -0.664787
      16A     -0.638559    17A     -0.614095    18A     -0.601108
      19A     -0.579499    20A     -0.555050    21A     -0.546686
      22A     -0.523267    23A     -0.499215    24A     -0.489550
      25A     -0.481074    26A     -0.472119    27A     -0.461921
      28A     -0.454012    29A     -0.357802

  @DF-RHF Final Energy:  -290.38078711353677

   => Energetics <=

    Nuclear Repulsion Energy =            316.1198633480074136
    One-Electron Energy =               -1018.0646970293854565
    Two-Electron Energy =                 411.5640465678412738
    DFT Exchange-Correlation Energy =       0.0000000000000000
    Empirical Dispersion Energy =           0.0000000000000000
    PCM Polarization Energy =               0.0000000000000000
    EFP Energy =                            0.0000000000000000
    Total Energy =                       -290.3807871135367122
    Molecular point group: c1
  Basis Set: 6-31G*
  Basis Set:

  -Total Gradient:
     Atom            X                  Y                   Z
    ------   -----------------  -----------------  -----------------
       1        0.000005947036     0.000001591736     0.000001305313
       2        0.000004324461     0.000006384672    -0.000009924233
       3       -0.000004546788    -0.000020599835     0.000007223696
       4       -0.000004418985    -0.000003767433    -0.000002365218
       5       -0.000006158637    -0.000001781009     0.000001126749
       6        0.000725404509     0.001331634224     0.002782236412
       7        0.000000324861    -0.000002720532     0.000001953890
       8        0.000003619334     0.000000947809    -0.000003039035
       9       -0.000183335580    -0.000469324555    -0.002651969330
      10       -0.000571169438    -0.000980827172    -0.001679679476
      11        0.000007402983     0.000000332327     0.000005449124
      12        0.000041726891     0.000139679235     0.001544413412
      13       -0.000004772796     0.000010210190     0.000001817597
      14        0.000000418126    -0.000003232169    -0.000001956190
      15       -0.000006620941    -0.000001604062     0.000001014560
      16       -0.000003061698    -0.000003449271     0.000000635026
      17       -0.000006299843     0.000000583262     0.000000713026
      18        0.000000997559    -0.000001653177     0.000001837131
      19        0.000001423191    -0.000003059423    -0.000000713419
      20        0.000000949246     0.000000794415     0.000000449567
      21       -0.000002622881    -0.000000690516     0.000000131971
      22        0.000000469394     0.000000551284    -0.000000660573

  **** Optimization is complete! (in 6 steps) ****
    Final optimized geometry and variables:
    Molecular point group: c1

    Geometry (in Angstrom), charge = 0, multiplicity = 1:

    H            3.538332916891    -1.502143026972    -1.959876722802
    C            3.204639637953    -1.257322931300    -0.956522329867
    C            1.932462270925    -0.411145618388    -0.988743428087
    H            3.045200971293    -2.192022098667    -0.425595553802
    H            4.015664714661    -0.731288584287    -0.459760511612
    C            1.439799107229    -0.035374610922     0.408174357522
    H            1.150070475199    -0.952174481113    -1.514669931008
    H            2.103394992311     0.502677524388    -1.549352193680
    N            0.219827408642     0.758057704303     0.358422465226
    H            1.302345306703    -0.948486601949     0.992781637882
    H            2.209658083142     0.546010096929     0.906547452358
    C           -1.009387964920    -0.009383410025     0.434072776582
    H            0.226018575004     1.430610352368     1.099321078136
    C           -2.230876724344     0.896766586410     0.321495930404
    H           -1.019272874367    -0.721988184224    -0.385286431261
    H           -1.071564555112    -0.597649428761     1.355305633212
    C           -3.548343997547     0.125068761392     0.382742081246
    H           -2.164505779297     1.452791523217    -0.608359566212
    H           -2.206481349684     1.632167978947     1.124133309604
    H           -3.618644626680    -0.596575799387    -0.426281079590
    H           -4.397888065436     0.795354035279     0.300493528065
    H           -3.645920832789    -0.417725729292     1.318764506657

  Mulliken Charges: (a.u.)
   Center  Symbol    Alpha    Beta     Spin     Total
       1     H     0.41806  0.41806  0.00000  0.16388
       2     C     3.24532  3.24532  0.00000 -0.49065
       3     C     3.14486  3.14486  0.00000 -0.28972
       4     H     0.42250  0.42250  0.00000  0.15499
       5     H     0.42276  0.42276  0.00000  0.15449
       6     C     3.05714  3.05714  0.00000 -0.11429
       7     H     0.42295  0.42295  0.00000  0.15409
       8     H     0.41670  0.41670  0.00000  0.16660
       9     N     3.85642  3.85642  0.00000 -0.71283
      10     H     0.43220  0.43220  0.00000  0.13560
      11     H     0.42278  0.42278  0.00000  0.15444
      12     C     3.05149  3.05149  0.00000 -0.10298
      13     H     0.33230  0.33230  0.00000  0.33539
      14     C     3.15464  3.15464  0.00000 -0.30928
      15     H     0.42122  0.42122  0.00000  0.15756
      16     H     0.43539  0.43539  0.00000  0.12922
      17     C     3.24334  3.24334  0.00000 -0.48668
      18     H     0.41293  0.41293  0.00000  0.17414
      19     H     0.42679  0.42679  0.00000  0.14641
      20     H     0.42080  0.42080  0.00000  0.15840
      21     H     0.41766  0.41766  0.00000  0.16468
      22     H     0.42173  0.42173  0.00000  0.15654

   Total alpha = 29.00000, Total beta = 29.00000, Total charge = -0.00000
