  ==> Input File <==

--------------------------------------------------------------------------
set {
	reference rhf
	basis 6-31G*
}

set_num_threads( 4 )
memory 2 gb

molecule MOL {
0 1

H	 2.651492	 -5.688618	 0.848500
C	 2.489745	 -4.640263	 0.675698
C	 1.209658	 -4.154791	 0.430916
C	 3.548039	 -3.755299	 0.693175
H	 0.372698	 -4.830087	 0.413561
C	 0.998397	 -2.811185	 0.208906
H	 4.545078	 -4.112753	 0.880861
C	 3.351726	 -2.396416	 0.471013
H	 0.015067	 -2.422972	 0.018674
C	 2.071849	 -1.923183	 0.228018
H	 4.194875	 -1.733567	 0.491003
O	 1.765256	 -0.628444	 0.000000
C	 2.778419	 0.335181	 0.000000
H	 2.731280	 0.961222	 -0.884976
H	 3.711703	 -0.207767	 0.000000
H	 2.731280	 0.961222	 0.884976

	symmetry c1
}
set optking {
	frozen_dihedral = ("
		10 12 13 14
	")
}

ee = optimize('scf')
oeprop('DIPOLE', 'QUADRUPOLE', 'MULLIKEN_CHARGES')
f=open( 'psi4out.xyz', 'w' )
f.write( "16  " )
f.write( str(ee) + "\n" )
f.write( MOL.save_string_xyz() )
f.close()
--------------------------------------------------------------------------

    Molecular point group: c1
  Charge       = 0
  Multiplicity = 1
  Basis Set: 6-31G*
  Basis Set:
  @DF-RHF Final Energy:  -344.57201178524423
    Total Energy =                       -344.5720117852441717
    Molecular point group: c1
  Basis Set: 6-31G*
  Basis Set:
  Basis Set: 6-31G*
  Basis Set:
  @DF-RHF Final Energy:  -344.57123277657257
    Total Energy =                       -344.5712327765728560
  Basis Set: 6-31G*
  Basis Set:
  Basis Set: 6-31G*
  Basis Set:
  @DF-RHF Final Energy:  -344.57682831087834
    Total Energy =                       -344.5768283108781702
  Basis Set: 6-31G*
  Basis Set:
  Basis Set: 6-31G*
  Basis Set:
  @DF-RHF Final Energy:  -344.57769347563567
    Total Energy =                       -344.5776934756353853
  Basis Set: 6-31G*
  Basis Set:
  @DF-RHF Final Energy:  -344.57869722126753
    Total Energy =                       -344.5786972212677028
  @DF-RHF Final Energy:  -344.57891164150124
    Total Energy =                       -344.5789116415014632
  Basis Set: 6-31G*
  Basis Set:
  @DF-RHF Final Energy:  -344.57896918948575
    Total Energy =                       -344.5789691894855196
  Basis Set: 6-31G*
  Basis Set:
  Basis Set: 6-31G*
  Basis Set:
  @DF-RHF Final Energy:  -344.57898161286641
    Total Energy =                       -344.5789816128665279
  Basis Set: 6-31G*
  Basis Set:
  Basis Set: 6-31G*
  Basis Set:
  @DF-RHF Final Energy:  -344.57898354714644
    Total Energy =                       -344.5789835471464357
  Basis Set: 6-31G*
  Basis Set:
  Charge       = 0
  Multiplicity = 1
  Basis Set: 6-31G*
  Basis Set:

    Orbital Energies (a.u.)
    -----------------------

    Doubly Occupied:

       1A    -20.577537     2A    -11.291683     3A    -11.278132
       4A    -11.233140     5A    -11.231592     6A    -11.224543
       7A    -11.221307     8A    -11.220157     9A     -1.405937
      10A     -1.146089    11A     -1.019709    12A     -1.013276
      13A     -0.938698    14A     -0.831782    15A     -0.804992
      16A     -0.717761    17A     -0.664059    18A     -0.661565
      19A     -0.648040    20A     -0.614187    21A     -0.590030
      22A     -0.581053    23A     -0.525440    24A     -0.513360
      25A     -0.507040    26A     -0.480000    27A     -0.449786
      28A     -0.334382    29A     -0.308842

  @DF-RHF Final Energy:  -344.57898389971797

   => Energetics <=

    Nuclear Repulsion Energy =            347.6488336586528476
    One-Electron Energy =               -1156.3873937479479537
    Two-Electron Energy =                 464.1595761895769670
    DFT Exchange-Correlation Energy =       0.0000000000000000
    Empirical Dispersion Energy =           0.0000000000000000
    PCM Polarization Energy =               0.0000000000000000
    EFP Energy =                            0.0000000000000000
    Total Energy =                       -344.5789838997181391
    Molecular point group: c1
  Basis Set: 6-31G*
  Basis Set:

  -Total Gradient:
     Atom            X                  Y                   Z
    ------   -----------------  -----------------  -----------------
       1       -0.000009129173    -0.000003792805    -0.000007609824
       2        0.000028294487     0.000012245623     0.000002655129
       3       -0.000011884027     0.000019213812     0.000012554505
       4       -0.000011963606    -0.000047290513     0.000012089210
       5        0.000005665950    -0.000009478458     0.000000133700
       6       -0.000036037419     0.000000018579    -0.000018355806
       7       -0.000003921943     0.000001619238    -0.000007011026
       8       -0.000011737857     0.000059246384    -0.000015282490
       9        0.000006948644    -0.000003427020     0.000001832387
      10       -0.000797078774    -0.000275522135    -0.001829984503
      11       -0.000010583877    -0.000007298095     0.000002626810
      12        0.001363751030     0.000010649597     0.002339106067
      13       -0.000969532538     0.001768825542     0.001188948538
      14        0.000460126292    -0.001555009514    -0.001697627901
      15       -0.000012314884     0.000023325050     0.000008828422
      16        0.000009397694     0.000006674718     0.000007096781

  **** Optimization is complete! (in 10 steps) ****
    Final optimized geometry and variables:
    Molecular point group: c1

    Geometry (in Angstrom), charge = 0, multiplicity = 1:

    H            0.347323309791    -3.323947958727     0.207421801219
    C            0.194141998912    -2.260935090542     0.164017293511
    C           -1.062476652977    -1.743105871168    -0.117272443957
    C            1.245534765931    -1.391976093103     0.392746088415
    H           -1.889930032965    -2.406872485108    -0.295074935755
    C           -1.262476672887    -0.377108371931    -0.180007471987
    H            2.222768840416    -1.778273908245     0.622418631925
    C            1.055542488551    -0.018489198334     0.342056652255
    H           -2.228546590690     0.037330483208    -0.400749272496
    C           -0.200794859193     0.489626832771     0.045845379453
    H            1.875559257504     0.644780073194     0.547006357955
    O           -0.471869717646     1.815247287517     0.010211276169
    C            0.457965787399     2.711746028289    -0.542981189418
    H           -0.068266916011     3.339535738943    -1.250229628495
    H            1.247461150024     2.193252158478    -1.071690486240
    H            0.893128414045     3.326469086382     0.235712956506

  Mulliken Charges: (a.u.)
   Center  Symbol    Alpha    Beta     Spin     Total
       1     H     0.40087  0.40087  0.00000  0.19827
       2     C     3.11041  3.11041  0.00000 -0.22082
       3     C     3.09339  3.09339  0.00000 -0.18677
       4     C     3.09288  3.09288  0.00000 -0.18576
       5     H     0.39871  0.39871  0.00000  0.20258
       6     C     3.12453  3.12453  0.00000 -0.24906
       7     H     0.39929  0.39929  0.00000  0.20143
       8     C     3.13461  3.13461  0.00000 -0.26922
       9     H     0.39330  0.39330  0.00000  0.21341
      10     C     2.78930  2.78930  0.00000  0.42140
      11     H     0.39752  0.39752  0.00000  0.20495
      12     O     4.33126  4.33126  0.00000 -0.66252
      13     C     3.08613  3.08613  0.00000 -0.17225
      14     H     0.41108  0.41108  0.00000  0.17784
      15     H     0.41985  0.41985  0.00000  0.16029
      16     H     0.41688  0.41688  0.00000  0.16623

   Total alpha = 29.00000, Total beta = 29.00000, Total charge =  0.00000
