  ==> Input File <==

--------------------------------------------------------------------------
set {
	reference rhf
	basis 6-31G*
}

set_num_threads( 1 )
memory 2 gb

molecule MOL {
0 1

H	 -3.135461	 -1.215070	 0.001379
O	 -2.310168	 -0.871793	 -0.309793
C	 -2.026376	 0.340750	 0.341611
C	 -0.673256	 0.843270	 -0.132153
H	 -2.792215	 1.080697	 0.115987
H	 -2.013526	 0.200402	 1.421792
C	 0.486613	 -0.083066	 0.235839
H	 -0.715586	 0.970948	 -1.210718
H	 -0.508072	 1.829858	 0.297090
C	 0.491759	 -1.381611	 -0.572598
H	 0.435746	 -0.313046	 1.295100
H	 1.428262	 0.441401	 0.077493
C	 1.654206	 -2.304745	 -0.208987
H	 -0.447872	 -1.906859	 -0.414718
H	 0.535665	 -1.148242	 -1.634697
H	 1.618138	 -2.584208	 0.840056
H	 1.631037	 -3.217949	 -0.795901
H	 2.610246	 -1.820624	 -0.388217

	symmetry c1
}
set optking {
	frozen_dihedral = ("
		14 10 7 11,
		2 3 4 8,
		1 2 3 4
	")
}

ee = energy('scf')
oeprop('DIPOLE', 'QUADRUPOLE', 'MULLIKEN_CHARGES')
f=open( 'psi4out.xyz', 'w' )
f.write( "18  " )
f.write( str(ee) + "\n" )
f.write( MOL.save_string_xyz() )
f.close()
--------------------------------------------------------------------------

    Molecular point group: c1

    Geometry (in Angstrom), charge = 0, multiplicity = 1:

       Center              X                  Y                   Z               Mass
    ------------   -----------------  -----------------  -----------------  -----------------
           H         -2.691365819748    -0.616675210496     0.107964793463     1.007825032070
           O         -1.866072819748    -0.273398210496    -0.203207206537    15.994914619560
           C         -1.582280819748     0.939144789504     0.448196793463    12.000000000000
           C         -0.229160819748     1.441664789504    -0.025567206537    12.000000000000
           H         -2.348119819748     1.679091789504     0.222572793463     1.007825032070
           H         -1.569430819748     0.798796789504     1.528377793463     1.007825032070
           C          0.930708180252     0.515328789504     0.342424793463    12.000000000000
           H         -0.271490819748     1.569342789504    -1.104132206537     1.007825032070
           H         -0.063976819748     2.428252789504     0.403675793463     1.007825032070
           C          0.935854180252    -0.783216210496    -0.466012206537    12.000000000000
           H          0.879841180252     0.285348789504     1.401685793463     1.007825032070
           H          1.872357180252     1.039795789504     0.184078793463     1.007825032070
           C          2.098301180252    -1.706350210496    -0.102401206537    12.000000000000
           H         -0.003776819748    -1.308464210496    -0.308132206537     1.007825032070
           H          0.979760180252    -0.549847210496    -1.528111206537     1.007825032070
           H          2.062233180252    -1.985813210496     0.946641793463     1.007825032070
           H          2.075132180252    -2.619554210496    -0.689315206537     1.007825032070
           H          3.054341180252    -1.222229210496    -0.281631206537     1.007825032070

  Charge       = 0
  Multiplicity = 1
  Basis Set: 6-31G*
  Basis Set:

    Orbital Energies (a.u.)
    -----------------------

    Doubly Occupied:

       1A    -20.556033     2A    -11.269955     3A    -11.212531
       4A    -11.206604     5A    -11.195991     6A    -11.193374
       7A     -1.364541     8A     -1.071161     9A     -1.003455
      10A     -0.910942    11A     -0.819652    12A     -0.774792
      13A     -0.705682    14A     -0.653813    15A     -0.612248
      16A     -0.572099    17A     -0.566560    18A     -0.555442
      19A     -0.530486    20A     -0.503072    21A     -0.487519
      22A     -0.458134    23A     -0.452272    24A     -0.442749
      25A     -0.420455

  @DF-RHF Final Energy:  -271.17408952957987

   => Energetics <=

    Nuclear Repulsion Energy =            257.4683648992486269
    One-Electron Energy =                -878.2056416453290240
    Two-Electron Energy =                 349.5631872164999550
    DFT Exchange-Correlation Energy =       0.0000000000000000
    Empirical Dispersion Energy =           0.0000000000000000
    PCM Polarization Energy =               0.0000000000000000
    EFP Energy =                            0.0000000000000000
    Total Energy =                       -271.1740895295804421

  Mulliken Charges: (a.u.)
   Center  Symbol    Alpha    Beta     Spin     Total
       1     H     0.28052  0.28052  0.00000  0.43896
       2     O     4.36808  4.36808  0.00000 -0.73615
       3     C     2.99644  2.99644  0.00000  0.00712
       4     C     3.16429  3.16429  0.00000 -0.32857
       5     H     0.42854  0.42854  0.00000  0.14292
       6     H     0.43201  0.43201  0.00000  0.13599
       7     C     3.15361  3.15361  0.00000 -0.30722
       8     H     0.41474  0.41474  0.00000  0.17052
       9     H     0.42141  0.42141  0.00000  0.15718
      10     C     3.15488  3.15488  0.00000 -0.30976
      11     H     0.42640  0.42640  0.00000  0.14721
      12     H     0.42305  0.42305  0.00000  0.15391
      13     C     3.23891  3.23891  0.00000 -0.47782
      14     H     0.39606  0.39606  0.00000  0.20787
      15     H     0.42727  0.42727  0.00000  0.14545
      16     H     0.42565  0.42565  0.00000  0.14869
      17     H     0.42164  0.42164  0.00000  0.15673
      18     H     0.42651  0.42651  0.00000  0.14698

   Total alpha = 25.00000, Total beta = 25.00000, Total charge =  0.00000
