                              Psi4 1.0.54 Driver

  ==> Input File <==

--------------------------------------------------------------------------
set {
	reference rhf
	basis cc-pvtz
}

set_num_threads( 4 )
memory 2 gb

molecule MOL {
0 1

H	 2.190573	 -0.629143	 -0.208718
O	 1.355408	 -0.529451	 0.208662
C	 0.700177	 0.619554	 -0.266242
C	 -0.713111	 0.588314	 0.266177
H	 0.678680	 0.627133	 -1.351786
H	 1.199747	 1.521489	 0.077736
O	 -1.421673	 -0.521378	 -0.196983
H	 -1.244794	 1.469161	 -0.069059
H	 -0.685100	 0.604721	 1.352683
H	 -0.818999	 -1.103706	 -0.625587

	symmetry c1
}
set optking {
	frozen_dihedral = ("
		10 7 4 3
	")
}

ee,wfn = optimize('scf', return_wfn=True)
oeprop( wfn, 'DIPOLE', 'QUADRUPOLE', 'MULLIKEN_CHARGES')
f=open( 'psi4out.xyz', 'w' )
f.write( "10  " )
f.write( str(ee) + "\n" )
f.write( MOL.save_string_xyz() )
f.close()
--------------------------------------------------------------------------

    Molecular point group: c1
  Charge       = 0
  Multiplicity = 1
  Basis Set: CC-PVTZ
  Basis Set:
  @DF-RHF Final Energy:  -229.02452563415014
    Total Energy =                       -229.0245256341501374
    Molecular point group: c1
  Basis Set: CC-PVTZ
  Basis Set:
  Basis Set: CC-PVTZ
  Basis Set:
  @DF-RHF Final Energy:  -228.53447660397168
    Total Energy =                       -228.5344766039717399
  Basis Set: CC-PVTZ
  Basis Set:
  Basis Set: CC-PVTZ
  Basis Set:
  @DF-RHF Final Energy:  -228.69498490428350
    Total Energy =                       -228.6949849042835581
  Basis Set: CC-PVTZ
  Basis Set:
  Basis Set: CC-PVTZ
  Basis Set:
  @DF-RHF Final Energy:  -228.94401489964156
    Total Energy =                       -228.9440148996415587
  Basis Set: CC-PVTZ
  Basis Set:
  @DF-RHF Final Energy:  -229.01660250819461
    Total Energy =                       -229.0166025081946088
  Basis Set: CC-PVTZ
  Basis Set:
  @DF-RHF Final Energy:  -229.02495216311243
    Total Energy =                       -229.0249521631124594
  Basis Set: CC-PVTZ
  Basis Set:
  Basis Set: CC-PVTZ
  Basis Set:
  @DF-RHF Final Energy:  -229.02514122890321
    Total Energy =                       -229.0251412289030952
  Basis Set: CC-PVTZ
  Basis Set:
  Basis Set: CC-PVTZ
  Basis Set:
  @DF-RHF Final Energy:  -229.02520485576596
    Total Energy =                       -229.0252048557660203
  Basis Set: CC-PVTZ
  Basis Set:
  Charge       = 0
  Multiplicity = 1
  Basis Set: CC-PVTZ
  Basis Set:

    Orbital Energies (a.u.)
    -----------------------

    Doubly Occupied:

       1A    -20.564053     2A    -20.540256     3A    -11.280062
       4A    -11.267220     5A     -1.388399     6A     -1.354674
       7A     -1.005924     8A     -0.849865     9A     -0.728695
      10A     -0.671718    11A     -0.667395    12A     -0.603610
      13A     -0.577336    14A     -0.550942    15A     -0.478625
      16A     -0.460408    17A     -0.436721

  @DF-RHF Final Energy:  -229.02520640751789

   => Energetics <=

    Nuclear Repulsion Energy =            134.5705612469640755
    One-Electron Energy =                -580.3397299872974600
    Two-Electron Energy =                 216.7439623328155278
    DFT Exchange-Correlation Energy =       0.0000000000000000
    Empirical Dispersion Energy =           0.0000000000000000
    PCM Polarization Energy =               0.0000000000000000
    EFP Energy =                            0.0000000000000000
    Total Energy =                       -229.0252064075178566
    Molecular point group: c1
  Basis Set: CC-PVTZ
  Basis Set:

  -Total Gradient:
     Atom            X                  Y                   Z
    ------   -----------------  -----------------  -----------------
       1       -0.000003053759    -0.000000662704     0.000007175684
       2       -0.000001572115     0.000119402105     0.000027351861
       3        0.001246076575    -0.002050145614     0.000586302959
       4       -0.002299539524     0.003567884800    -0.001239973680
       5        0.000052181968    -0.000015877399    -0.000049209333
       6        0.000067274904    -0.000021425888    -0.000022326618
       7        0.002691681750    -0.004753670306     0.002274993029
       8        0.000012530484     0.000016554257     0.000012217197
       9       -0.000040399130    -0.000022146034     0.000041687080
      10       -0.001725181156     0.003160086781    -0.001638218181

  **** Optimization is complete! (in 9 steps) ****
    Final optimized geometry and variables:
    Molecular point group: c1

    Geometry (in Angstrom), charge = 0, multiplicity = 1:

    H            1.826101548614    -0.227968502174    -1.379913822152
    O            1.189682339004    -0.445884989340    -0.724444374487
    C            0.636566180373     0.719595356757    -0.174116955254
    C           -0.442223113245     0.318080308982     0.806179289125
    H            0.208978195188     1.341448906332    -0.957878691526
    H            1.388329783057     1.304513699376     0.348154421710
    O           -1.422387796905    -0.499560808177     0.236147213463
    H           -0.912898370717     1.214158211461     1.195399704089
    H            0.017373807977    -0.207246970900     1.637608476876
    H           -1.148690083188    -0.775420825579    -0.619597721845

  Mulliken Charges: (a.u.)
   Center  Symbol    Alpha    Beta     Spin     Total
       1     H     0.39165  0.39165  0.00000  0.21669
       2     O     4.20164  4.20164  0.00000 -0.40328
       3     C     2.98647  2.98647  0.00000  0.02707
       4     C     2.94585  2.94585  0.00000  0.10831
       5     H     0.46878  0.46878  0.00000  0.06243
       6     H     0.46704  0.46704  0.00000  0.06592
       7     O     4.20922  4.20922  0.00000 -0.41844
       8     H     0.47054  0.47054  0.00000  0.05893
       9     H     0.47273  0.47273  0.00000  0.05454
      10     H     0.38608  0.38608  0.00000  0.22783

   Total alpha = 17.00000, Total beta = 17.00000, Total charge = -0.00000

*** Psi4 exiting successfully. Buy a developer a beer!
