                              Psi4 1.0.54 Driver

  ==> Input File <==

--------------------------------------------------------------------------
set {
	reference rhf
	basis cc-pvtz
}

set_num_threads( 4 )
memory 2 gb

molecule MOL {
0 1

O	 0.803538	 -3.548001	 -3.983903
C	 0.778360	 -2.361136	 -3.937525
C	 0.538287	 -1.634719	 -2.628812
C	 1.001829	 -1.515646	 -5.168775
C	 1.841669	 -1.487757	 -1.833551
H	 -0.172741	 -2.216969	 -2.056504
H	 0.107421	 -0.656657	 -2.814860
C	 1.630207	 -0.772146	 -0.501001
H	 2.254326	 -2.475663	 -1.672351
H	 2.570332	 -0.936221	 -2.422751
C	 2.907848	 -0.545876	 0.309149
H	 0.920674	 -1.337092	 0.098481
H	 1.166960	 0.191926	 -0.692236
C	 3.373802	 0.906639	 0.372125
H	 3.699140	 -1.146831	 -0.127906
H	 2.764321	 -0.923458	 1.318191
H	 3.519798	 1.311927	 -0.623875
H	 4.316899	 0.983758	 0.900700
H	 2.661122	 1.540651	 0.885346
H	 0.078943	 -1.003817	 -5.422370
H	 1.308141	 -2.137025	 -5.996199
H	 1.749082	 -0.753218	 -4.979287

	symmetry c1
}
set optking {
	frozen_dihedral = ("
		12 8 11 15
	")
}

ee,wfn = optimize('scf', return_wfn=True)
oeprop( wfn, 'DIPOLE', 'QUADRUPOLE', 'MULLIKEN_CHARGES')
f=open( 'psi4out.xyz', 'w' )
f.write( "22  " )
f.write( str(ee) + "\n" )
f.write( MOL.save_string_xyz() )
f.close()
--------------------------------------------------------------------------

    Molecular point group: c1
  Charge       = 0
  Multiplicity = 1
  Basis Set: CC-PVTZ
  Basis Set:
  @DF-RHF Final Energy:  -348.21951800331675
    Total Energy =                       -348.2195180033163524
    Molecular point group: c1
  Basis Set: CC-PVTZ
  Basis Set:
  Basis Set: CC-PVTZ
  Basis Set:
  @DF-RHF Final Energy:  -348.21988528345082
    Total Energy =                       -348.2198852834508216
  Basis Set: CC-PVTZ
  Basis Set:
  Basis Set: CC-PVTZ
  Basis Set:
  @DF-RHF Final Energy:  -348.21987630378169
    Total Energy =                       -348.2198763037815752
  Basis Set: CC-PVTZ
  Basis Set:
  Basis Set: CC-PVTZ
  Basis Set:
  @DF-RHF Final Energy:  -348.21984409589402
    Total Energy =                       -348.2198440958935066
  Basis Set: CC-PVTZ
  Basis Set:
  Basis Set: CC-PVTZ
  Basis Set:
  @DF-RHF Final Energy:  -348.21994060985674
    Total Energy =                       -348.2199406098563941
  Basis Set: CC-PVTZ
  Basis Set:
  Basis Set: CC-PVTZ
  Basis Set:
  @DF-RHF Final Energy:  -348.21994265014314
    Total Energy =                       -348.2199426501432526
  Basis Set: CC-PVTZ
  Basis Set:
  Charge       = 0
  Multiplicity = 1
  Basis Set: CC-PVTZ
  Basis Set:

    Orbital Energies (a.u.)
    -----------------------

    Doubly Occupied:

       1A    -20.536807     2A    -11.319368     3A    -11.229028
       4A    -11.227569     5A    -11.226962     6A    -11.220194
       7A    -11.218722     8A    -11.212047     9A     -1.396960
      10A     -1.096659    11A     -1.046013    12A     -1.001406
      13A     -0.939566    14A     -0.850519    15A     -0.797416
      16A     -0.734168    17A     -0.662597    18A     -0.649318
      19A     -0.629307    20A     -0.616777    21A     -0.599052
      22A     -0.587573    23A     -0.558003    24A     -0.546921
      25A     -0.540218    26A     -0.512592    27A     -0.501207
      28A     -0.493008    29A     -0.473441    30A     -0.464343
      31A     -0.460749    32A     -0.398507

  @DF-RHF Final Energy:  -348.21994328992463

   => Energetics <=

    Nuclear Repulsion Energy =            371.1729064877200130
    One-Electron Energy =               -1207.2916672156902678
    Two-Electron Energy =                 487.8988174380449436
    DFT Exchange-Correlation Energy =       0.0000000000000000
    Empirical Dispersion Energy =           0.0000000000000000
    PCM Polarization Energy =               0.0000000000000000
    EFP Energy =                            0.0000000000000000
    Total Energy =                       -348.2199432899253679
    Molecular point group: c1
  Basis Set: CC-PVTZ
  Basis Set:

  -Total Gradient:
     Atom            X                  Y                   Z
    ------   -----------------  -----------------  -----------------
       1        0.000004787063     0.000036566967     0.000004244077
       2        0.000022224758    -0.000002145626    -0.000004996984
       3       -0.000002361485    -0.000012323119     0.000000402079
       4       -0.000028578669    -0.000024692441    -0.000008234607
       5        0.000028053092    -0.000014504687    -0.000003056289
       6        0.000002069130     0.000005694100    -0.000007803607
       7        0.000012429438    -0.000006459750     0.000010024084
       8        0.001087125275    -0.001816518806    -0.001253683630
       9       -0.000011816907     0.000018295906    -0.000010266774
      10       -0.000016973233    -0.000010551246     0.000002356956
      11       -0.000819126085    -0.001571786071     0.001717996643
      12       -0.000755154409     0.001783528270     0.000791207756
      13        0.000008978631     0.000009872481     0.000015503719
      14       -0.000004800488     0.000027029096    -0.000014774282
      15        0.000487465751     0.001596658052    -0.001235583230
      16       -0.000005607824    -0.000001026845    -0.000019637024
      17        0.000002841294    -0.000005008415     0.000025524471
      18       -0.000030875616    -0.000010517540    -0.000018734541
      19        0.000008792726    -0.000002975259    -0.000009059207
      20        0.000009332234     0.000001973087     0.000004392303
      21       -0.000002418589     0.000005565708     0.000007880215
      22        0.000003613912    -0.000006673859     0.000006297873

  **** Optimization is complete! (in 7 steps) ****
    Final optimized geometry and variables:
    Molecular point group: c1

    Geometry (in Angstrom), charge = 0, multiplicity = 1:

    O           -0.802814612145    -2.173733841378    -1.826140399115
    C           -0.832273305890    -0.987592417615    -1.768138329509
    C           -1.087195786425    -0.274811253324    -0.454917684968
    C           -0.601760375886    -0.129448112625    -2.989243507532
    C            0.209843342969    -0.114253156692     0.346681638918
    H           -1.792035154612    -0.871171139887     0.110327075381
    H           -1.530967204639     0.698560044893    -0.635554326017
    C           -0.008424923431     0.579120459139     1.688721285441
    H            0.641583495388    -1.095536654224     0.508971702860
    H            0.933892782008     0.451561826877    -0.234518543331
    C            1.290558825447     0.785809781134     2.492357169023
    H           -0.723514092228     0.010899668409     2.274398897442
    H           -0.479050133945     1.542919335809     1.514527910262
    C            1.745537988665     2.242685435260     2.539677859162
    H            2.086179420184     0.194217424443     2.050734001748
    H            1.163210658135     0.421691589971     3.505110226193
    H            1.899608700717     2.637355443969     1.540379420817
    H            2.678355319713     2.345645839553     3.082164360930
    H            1.006069485995     2.867247693573     3.029300247532
    H           -1.525867407715     0.377656981825    -3.247743433834
    H           -0.282778965431    -0.741403778088    -3.818860482215
    H            0.137871681610     0.636760923440    -2.785879203303

  Mulliken Charges: (a.u.)
   Center  Symbol    Alpha    Beta     Spin     Total
       1     O     4.17770  4.17770  0.00000 -0.35539
       2     C     2.85803  2.85803  0.00000  0.28394
       3     C     3.09935  3.09935  0.00000 -0.19870
       4     C     3.15528  3.15528  0.00000 -0.31057
       5     C     3.10125  3.10125  0.00000 -0.20249
       6     H     0.43910  0.43910  0.00000  0.12180
       7     H     0.44876  0.44876  0.00000  0.10249
       8     C     3.09694  3.09694  0.00000 -0.19389
       9     H     0.43984  0.43984  0.00000  0.12033
      10     H     0.45147  0.45147  0.00000  0.09707
      11     C     3.09120  3.09120  0.00000 -0.18241
      12     H     0.44493  0.44493  0.00000  0.11014
      13     H     0.45488  0.45488  0.00000  0.09024
      14     C     3.14716  3.14716  0.00000 -0.29433
      15     H     0.45309  0.45309  0.00000  0.09382
      16     H     0.44677  0.44677  0.00000  0.10646
      17     H     0.45632  0.45632  0.00000  0.08735
      18     H     0.44821  0.44821  0.00000  0.10359
      19     H     0.45442  0.45442  0.00000  0.09115
      20     H     0.44831  0.44831  0.00000  0.10339
      21     H     0.43599  0.43599  0.00000  0.12802
      22     H     0.45101  0.45101  0.00000  0.09798

   Total alpha = 32.00000, Total beta = 32.00000, Total charge = -0.00000

*** Psi4 exiting successfully. Buy a developer a beer!
