  ==> Input File <==

--------------------------------------------------------------------------
set {
	reference rhf
	basis 6-31G*
}

set_num_threads( 4 )
memory 2 gb

molecule MOL {
0 1

O	 2.862325	 1.357334	 0.000267
C	 2.843464	 0.164689	 -0.000222
C	 1.546494	 -0.624492	 -0.000609
C	 4.124123	 -0.644674	 -0.000428
C	 0.291004	 0.242674	 0.000989
H	 1.557904	 -1.283758	 -0.867573
H	 1.558622	 -1.285963	 0.864672
C	 -0.994322	 -0.586602	 0.000262
H	 0.309117	 0.896430	 -0.865270
H	 0.309661	 0.894078	 0.869017
C	 -2.259874	 0.272531	 0.000494
H	 -1.004862	 -1.240012	 -0.870939
H	 -1.005220	 -1.241071	 0.870675
C	 -3.480386	 -0.447672	 0.576402
H	 -2.478089	 0.591306	 -1.017241
H	 -2.077076	 1.181556	 0.570805
C	 -4.740652	 0.416853	 0.573040
H	 -3.664825	 -1.355900	 0.006378
H	 -3.264007	 -0.765482	 1.594261
H	 -5.003161	 0.723138	 -0.435637
H	 -5.588313	 -0.121045	 0.986363
H	 -4.599922	 1.317178	 1.164441
H	 4.165367	 -1.288615	 -0.874074
H	 4.976217	 0.020734	 -0.001915
H	 4.166763	 -1.286207	 0.874930

	symmetry c1
}
set optking {
	frozen_dihedral = ("
		15 11 8 12
	")
}

ee = optimize('scf')
oeprop('DIPOLE', 'QUADRUPOLE', 'MULLIKEN_CHARGES')
f=open( 'psi4out.xyz', 'w' )
f.write( "25  " )
f.write( str(ee) + "\n" )
f.write( MOL.save_string_xyz() )
f.close()
--------------------------------------------------------------------------

    Molecular point group: c1
  Charge       = 0
  Multiplicity = 1
  Basis Set: 6-31G*
  Basis Set:
  @DF-RHF Final Energy:  -387.13459511312061
    Total Energy =                       -387.1345951131211223
    Molecular point group: c1
  Basis Set: 6-31G*
  Basis Set:
  Basis Set: 6-31G*
  Basis Set:
  @DF-RHF Final Energy:  -387.13475082050201
    Total Energy =                       -387.1347508205024042
  Basis Set: 6-31G*
  Basis Set:
  Basis Set: 6-31G*
  Basis Set:
  @DF-RHF Final Energy:  -387.13482714696664
    Total Energy =                       -387.1348271469662450
  Basis Set: 6-31G*
  Basis Set:
  Basis Set: 6-31G*
  Basis Set:
  @DF-RHF Final Energy:  -387.13483598964643
    Total Energy =                       -387.1348359896460352
  Basis Set: 6-31G*
  Basis Set:
  Basis Set: 6-31G*
  Basis Set:
  @DF-RHF Final Energy:  -387.13483867530931
    Total Energy =                       -387.1348386753089699
  Basis Set: 6-31G*
  Basis Set:
  Basis Set: 6-31G*
  Basis Set:
  @DF-RHF Final Energy:  -387.13484139568993
    Total Energy =                       -387.1348413956893637
  Basis Set: 6-31G*
  Basis Set:
  Charge       = 0
  Multiplicity = 1
  Basis Set: 6-31G*
  Basis Set:

    Orbital Energies (a.u.)
    -----------------------

    Doubly Occupied:

       1A    -20.550406     2A    -11.326255     3A    -11.231729
       4A    -11.228304     5A    -11.217053     6A    -11.216425
       7A    -11.215186     8A    -11.213515     9A    -11.208111
      10A     -1.395709    11A     -1.093087    12A     -1.056074
      13A     -1.014337    14A     -0.968730    15A     -0.890695
      16A     -0.814083    17A     -0.790322    18A     -0.729966
      19A     -0.660433    20A     -0.651793    21A     -0.632724
      22A     -0.623283    23A     -0.597317    24A     -0.583357
      25A     -0.565887    26A     -0.561045    27A     -0.539176
      28A     -0.527525    29A     -0.512455    30A     -0.489274
      31A     -0.487062    32A     -0.474723    33A     -0.463642
      34A     -0.461096    35A     -0.449361    36A     -0.399235

  @DF-RHF Final Energy:  -387.13484215846751

   => Energetics <=

    Nuclear Repulsion Energy =            438.4462060416990994
    One-Electron Energy =               -1393.4833524787918577
    Two-Electron Energy =                 567.9023042786254791
    DFT Exchange-Correlation Energy =       0.0000000000000000
    Empirical Dispersion Energy =           0.0000000000000000
    PCM Polarization Energy =               0.0000000000000000
    EFP Energy =                            0.0000000000000000
    Total Energy =                       -387.1348421584673360
    Molecular point group: c1
  Basis Set: 6-31G*
  Basis Set:

  -Total Gradient:
     Atom            X                  Y                   Z
    ------   -----------------  -----------------  -----------------
       1        0.000000072393    -0.000000837609     0.000000708743
       2       -0.000001689881     0.000003564928     0.000014835035
       3       -0.000005455788    -0.000000169733     0.000016693902
       4       -0.000002404660    -0.000000859937    -0.000005157005
       5       -0.000006638955    -0.000006430627    -0.000017874575
       6       -0.000012742288    -0.000001487121    -0.000003054544
       7        0.000011318812     0.000001036083    -0.000002800021
       8       -0.002755483704    -0.003969537260     0.002334499848
       9       -0.000001992848     0.000008312561    -0.000004415930
      10       -0.000001106322    -0.000006150840    -0.000005952273
      11        0.003031546135     0.004432501969     0.000202051803
      12        0.001835569191     0.002621106930    -0.002001631264
      13        0.000017242149     0.000000050925     0.000020676071
      14        0.000001868321     0.000001148991    -0.000015794414
      15       -0.002114639181    -0.003085466076    -0.000544745534
      16       -0.000010739911     0.000007886292     0.000020887338
      17        0.000008137844    -0.000001934370    -0.000005397417
      18       -0.000005401337    -0.000004551818     0.000003213242
      19        0.000008139828     0.000001701761    -0.000004315323
      20        0.000004572570     0.000002328120     0.000001519114
      21        0.000003702865    -0.000003121290    -0.000003909360
      22       -0.000002554099     0.000000576812     0.000005651976
      23        0.000009335643    -0.000009469549    -0.000003854143
      24       -0.000001144173     0.000000449307     0.000000880261
      25       -0.000009512604     0.000009351550    -0.000002715531

  **** Optimization is complete! (in 7 steps) ****
    Final optimized geometry and variables:
    Molecular point group: c1

    Geometry (in Angstrom), charge = 0, multiplicity = 1:

    O            2.856426583474     1.329374696756    -0.128205932486
    C            2.833757370389     0.136984199315    -0.148947835550
    C            1.534685179155    -0.648585958933    -0.130529856413
    C            4.111462436216    -0.675730173345    -0.195184434822
    C            0.282229759272     0.221443657721    -0.084091466917
    H            1.523232250360    -1.294022418936    -1.007850285064
    H            1.565859059156    -1.323993556080     0.723565682322
    C           -1.006810412830    -0.604505118835    -0.055999527401
    H            0.276731775569     0.884463514068    -0.943854306467
    H            0.327174146108     0.863791471342     0.789511254035
    C           -2.269286398020     0.266958273834    -0.077154664151
    H           -1.013144569989    -1.260232460223    -0.924624812700
    H           -1.009113940886    -1.241890634678     0.825910652341
    C           -3.509577140416    -0.462774433697     0.446353293750
    H           -2.468327369993     0.580890963700    -1.099618086178
    H           -2.110302440535     1.168899107408     0.509437005353
    C           -4.780205753297     0.381942915529     0.362842919828
    H           -3.650193048970    -1.383231573855    -0.117101231830
    H           -3.341616320018    -0.760834575867     1.479093660561
    H           -4.997926527397     0.662898544919    -0.663748195110
    H           -5.639368501230    -0.159660676028     0.746525052385
    H           -4.680998604738     1.296741974486     0.940447681644
    H            4.129483605301    -1.303617979309    -1.081231350411
    H            4.965383463858    -0.012751588960    -0.205249312206
    H            4.173275191884    -1.333365536830     0.666974554006

  Mulliken Charges: (a.u.)
   Center  Symbol    Alpha    Beta     Spin     Total
       1     O     4.26115  4.26115  0.00000 -0.52230
       2     C     2.73566  2.73566  0.00000  0.52868
       3     C     3.21099  3.21099  0.00000 -0.42199
       4     C     3.28663  3.28663  0.00000 -0.57326
       5     C     3.14906  3.14906  0.00000 -0.29812
       6     H     0.41017  0.41017  0.00000  0.17966
       7     H     0.41008  0.41008  0.00000  0.17984
       8     C     3.15435  3.15435  0.00000 -0.30869
       9     H     0.41226  0.41226  0.00000  0.17548
      10     H     0.41214  0.41214  0.00000  0.17572
      11     C     3.15138  3.15138  0.00000 -0.30276
      12     H     0.42399  0.42399  0.00000  0.15202
      13     H     0.42385  0.42385  0.00000  0.15230
      14     C     3.15236  3.15236  0.00000 -0.30471
      15     H     0.42215  0.42215  0.00000  0.15571
      16     H     0.42070  0.42070  0.00000  0.15861
      17     C     3.23954  3.23954  0.00000 -0.47907
      18     H     0.42370  0.42370  0.00000  0.15260
      19     H     0.42341  0.42341  0.00000  0.15318
      20     H     0.42175  0.42175  0.00000  0.15650
      21     H     0.41953  0.41953  0.00000  0.16095
      22     H     0.42122  0.42122  0.00000  0.15755
      23     H     0.40874  0.40874  0.00000  0.18251
      24     H     0.39647  0.39647  0.00000  0.20705
      25     H     0.40873  0.40873  0.00000  0.18255

   Total alpha = 36.00000, Total beta = 36.00000, Total charge =  0.00000
