                              Psi4 1.0.54 Driver

  ==> Input File <==

--------------------------------------------------------------------------
set {
	reference rhf
	basis cc-pvtz
}

set_num_threads( 4 )
memory 2 gb

molecule MOL {
0 1

O	 -2.817697	 1.304178	 0.001046
C	 -2.664672	 0.129869	 0.003507
C	 -3.797908	 -0.860100	 -0.001145
O	 -1.481217	 -0.452708	 0.001092
H	 -4.408836	 -0.679689	 -0.875387
H	 -3.443486	 -1.878443	 -0.002770
H	 -4.412123	 -0.683688	 0.871605
C	 -0.332055	 0.384012	 -0.000250
C	 0.892252	 -0.506059	 -0.000295
H	 -0.360822	 1.020205	 -0.874146
H	 -0.359817	 1.021310	 0.872861
C	 2.188199	 0.299473	 -0.001416
H	 0.857046	 -1.152781	 -0.871031
H	 0.857910	 -1.151798	 0.871202
C	 3.139566	 -0.097270	 1.124027
H	 2.692549	 0.173559	 -0.956274
H	 1.956923	 1.358394	 0.083269
C	 4.434213	 0.708271	 1.123978
H	 3.372813	 -1.154860	 1.039440
H	 2.636719	 0.028289	 2.078735
H	 4.977542	 0.575937	 0.194394
H	 5.086121	 0.402603	 1.933971
H	 4.235713	 1.768299	 1.241416

	symmetry c1
}
set optking {
	frozen_dihedral = ("
		16 12 9 13
	")
}

ee,wfn = optimize('scf', return_wfn=True)
oeprop( wfn, 'DIPOLE', 'QUADRUPOLE', 'MULLIKEN_CHARGES')
f=open( 'psi4out.xyz', 'w' )
f.write( "23  " )
f.write( str(ee) + "\n" )
f.write( MOL.save_string_xyz() )
f.close()
--------------------------------------------------------------------------

    Molecular point group: c1
  Charge       = 0
  Multiplicity = 1
  Basis Set: CC-PVTZ
  Basis Set:
  @DF-RHF Final Energy:  -423.12984997300981
    Total Energy =                       -423.1298499730100957
    Molecular point group: c1
  Basis Set: CC-PVTZ
  Basis Set:
  Basis Set: CC-PVTZ
  Basis Set:
  @DF-RHF Final Energy:  -423.12986518257725
    Total Energy =                       -423.1298651825770776
  Basis Set: CC-PVTZ
  Basis Set:
  Basis Set: CC-PVTZ
  Basis Set:
  @DF-RHF Final Energy:  -423.12878736757295
    Total Energy =                       -423.1287873675729543
  Basis Set: CC-PVTZ
  Basis Set:
  Basis Set: CC-PVTZ
  Basis Set:
  @DF-RHF Final Energy:  -423.13010095617767
    Total Energy =                       -423.1301009561777846
  Basis Set: CC-PVTZ
  Basis Set:
  Basis Set: CC-PVTZ
  Basis Set:
  @DF-RHF Final Energy:  -423.13010989161751
    Total Energy =                       -423.1301098916170531
  Basis Set: CC-PVTZ
  Basis Set:
  Basis Set: CC-PVTZ
  Basis Set:
  @DF-RHF Final Energy:  -423.13011150947005
    Total Energy =                       -423.1301115094698844
  Basis Set: CC-PVTZ
  Basis Set:
  Charge       = 0
  Multiplicity = 1
  Basis Set: CC-PVTZ
  Basis Set:

    Orbital Energies (a.u.)
    -----------------------

    Doubly Occupied:

       1A    -20.595880     2A    -20.529597     3A    -11.366508
       4A    -11.279846     5A    -11.230703     6A    -11.222096
       7A    -11.221342     8A    -11.219668     9A    -11.210621
      10A     -1.471278    11A     -1.364102    12A     -1.093520
      13A     -1.043049    14A     -1.003684    15A     -0.930935
      16A     -0.844046    17A     -0.802142    18A     -0.778158
      19A     -0.692323    20A     -0.688225    21A     -0.674042
      22A     -0.639931    23A     -0.612851    24A     -0.586991
      25A     -0.582428    26A     -0.571048    27A     -0.559819
      28A     -0.535606    29A     -0.526604    30A     -0.502682
      31A     -0.495931    32A     -0.478536    33A     -0.468259
      34A     -0.464923    35A     -0.453743    36A     -0.438891

  @DF-RHF Final Energy:  -423.13011287528855

   => Energetics <=

    Nuclear Repulsion Energy =            451.6856778757052098
    One-Electron Energy =               -1471.2715718239264788
    Two-Electron Energy =                 596.4557810729329503
    DFT Exchange-Correlation Energy =       0.0000000000000000
    Empirical Dispersion Energy =           0.0000000000000000
    PCM Polarization Energy =               0.0000000000000000
    EFP Energy =                            0.0000000000000000
    Total Energy =                       -423.1301128752883187
    Molecular point group: c1
  Basis Set: CC-PVTZ
  Basis Set:

  -Total Gradient:
     Atom            X                  Y                   Z
    ------   -----------------  -----------------  -----------------
       1       -0.000001145034     0.000020068164    -0.000002543221
       2        0.000057634102    -0.000072384367     0.000005470273
       3       -0.000014169763     0.000010378161     0.000002854972
       4       -0.000076066657     0.000028939968    -0.000009507835
       5        0.000007473338    -0.000002286575     0.000009553504
       6       -0.000002795729     0.000000189180    -0.000000717972
       7        0.000007013792    -0.000000071769    -0.000012082386
       8        0.000034185487     0.000021325986     0.000016093411
       9        0.001068084728    -0.001684360844     0.001119984460
      10       -0.000006475479    -0.000002955036    -0.000000430245
      11       -0.000001392108    -0.000002910117    -0.000004513202
      12       -0.001126035064     0.001781736830    -0.000876168900
      13       -0.000702487027     0.001125868203    -0.000793525902
      14       -0.000003388697    -0.000001544051    -0.000000712652
      15       -0.000000823504    -0.000004070448    -0.000009975287
      16        0.000760526979    -0.001216602179     0.000552320037
      17       -0.000001164869     0.000002541618    -0.000003581605
      18        0.000000472114    -0.000000565337     0.000006435365
      19        0.000006147063     0.000002678770     0.000004485051
      20        0.000009567484     0.000002673604    -0.000003894182
      21       -0.000007957650    -0.000003074075     0.000003444560
      22       -0.000003178421    -0.000000457365    -0.000000348234
      23       -0.000004025083    -0.000005118318    -0.000002640014

  **** Optimization is complete! (in 7 steps) ****
    Final optimized geometry and variables:
    Molecular point group: c1

    Geometry (in Angstrom), charge = 0, multiplicity = 1:

    O           -2.751110825084     1.206985193349    -0.252879909390
    C           -2.605185975011     0.031730056167    -0.258088715842
    C           -3.744479003306    -0.951344282198    -0.271840584669
    O           -1.425075045451    -0.557527614136    -0.252339462729
    H           -4.350240795357    -0.763512773313    -1.148151000053
    H           -3.396263380109    -1.971853674051    -0.276055595142
    H           -4.361589060693    -0.774740079703     0.598887344790
    C           -0.271508740513     0.271683518291    -0.239213371143
    C            0.950172292067    -0.623724856392    -0.233367513529
    H           -0.287618770709     0.913346452125    -1.109696526254
    H           -0.301078123794     0.904773938713     0.637282943958
    C            2.257464995493     0.191446002876    -0.234518091601
    H            0.901193356782    -1.268182537556    -1.102872435668
    H            0.903389754450    -1.266870150640     0.637811881076
    C            3.225073252980    -0.212499818923     0.876311331987
    H            2.759695672653     0.074836104969    -1.188896770646
    H            2.036282120745     1.250705417595    -0.136167734977
    C            4.523644823904     0.585505686603     0.858204534923
    H            3.449804040235    -1.271669279141     0.785747301850
    H            2.736229747985    -0.086861085177     1.838629356024
    H            5.052833609208     0.450756444564    -0.079283587592
    H            5.185453980481     0.275766221188     1.658631169522
    H            4.332743029917     1.646695142456     0.978832209378

  Mulliken Charges: (a.u.)
   Center  Symbol    Alpha    Beta     Spin     Total
       1     O     4.20238  4.20238  0.00000 -0.40477
       2     C     2.81476  2.81476  0.00000  0.37049
       3     C     3.13984  3.13984  0.00000 -0.27969
       4     O     4.14596  4.14596  0.00000 -0.29191
       5     H     0.44209  0.44209  0.00000  0.11582
       6     H     0.44180  0.44180  0.00000  0.11640
       7     H     0.44216  0.44216  0.00000  0.11567
       8     C     2.97811  2.97811  0.00000  0.04379
       9     C     3.08678  3.08678  0.00000 -0.17356
      10     H     0.45263  0.45263  0.00000  0.09474
      11     H     0.45423  0.45423  0.00000  0.09155
      12     C     3.10284  3.10284  0.00000 -0.20567
      13     H     0.44715  0.44715  0.00000  0.10570
      14     H     0.45048  0.45048  0.00000  0.09903
      15     C     3.08380  3.08380  0.00000 -0.16760
      16     H     0.44851  0.44851  0.00000  0.10298
      17     H     0.45362  0.45362  0.00000  0.09275
      18     C     3.14983  3.14983  0.00000 -0.29966
      19     H     0.45243  0.45243  0.00000  0.09515
      20     H     0.45375  0.45375  0.00000  0.09250
      21     H     0.45478  0.45478  0.00000  0.09044
      22     H     0.44776  0.44776  0.00000  0.10449
      23     H     0.45431  0.45431  0.00000  0.09137

   Total alpha = 36.00000, Total beta = 36.00000, Total charge = -0.00000

*** Psi4 exiting successfully. Buy a developer a beer!
