                              Psi4 1.0.54 Driver

  ==> Input File <==

--------------------------------------------------------------------------
set {
	reference rhf
	basis cc-pvtz
}

set_num_threads( 4 )
memory 2 gb

molecule MOL {
0 1

H	 -2.698799	 -0.000846	 0.036018
C	 -1.694291	 -0.000483	 0.434279
O	 -0.828718	 -0.000608	 -0.655022
H	 -1.576855	 0.881100	 1.056504
H	 -1.576401	 -0.881658	 1.057001
C	 -0.736033	 -1.158302	 -1.448137
C	 -0.180234	 -2.351834	 -0.679476
C	 -2.043387	 -1.486408	 -2.160474
H	 -0.009069	 -0.883980	 -2.202384
H	 0.726184	 -2.073970	 -0.155780
H	 0.057144	 -3.154277	 -1.368303
H	 -0.888966	 -2.740555	 0.042451
H	 -2.429021	 -0.608409	 -2.663909
H	 -1.873782	 -2.257478	 -2.903076
H	 -2.801571	 -1.852055	 -1.477832

	symmetry c1
}
set optking {
	frozen_dihedral = ("
		6 3 2 1
	")
}

ee,wfn = optimize('scf', return_wfn=True)
oeprop( wfn, 'DIPOLE', 'QUADRUPOLE', 'MULLIKEN_CHARGES')
f=open( 'psi4out.xyz', 'w' )
f.write( "15  " )
f.write( str(ee) + "\n" )
f.write( MOL.save_string_xyz() )
f.close()
--------------------------------------------------------------------------

    Molecular point group: c1
  Charge       = 0
  Multiplicity = 1
  Basis Set: CC-PVTZ
  Basis Set:
  @DF-RHF Final Energy:  -232.22381550169774
    Total Energy =                       -232.2238155016977998
    Molecular point group: c1
  Basis Set: CC-PVTZ
  Basis Set:
  Basis Set: CC-PVTZ
  Basis Set:
  @DF-RHF Final Energy:  -232.22563329664183
    Total Energy =                       -232.2256332966419450
  Basis Set: CC-PVTZ
  Basis Set:
  Basis Set: CC-PVTZ
  Basis Set:
  @DF-RHF Final Energy:  -232.22610328146121
    Total Energy =                       -232.2261032814609507
  Basis Set: CC-PVTZ
  Basis Set:
  Basis Set: CC-PVTZ
  Basis Set:
  @DF-RHF Final Energy:  -232.22610905987062
    Total Energy =                       -232.2261090598706232
  Basis Set: CC-PVTZ
  Basis Set:
  Basis Set: CC-PVTZ
  Basis Set:
  @DF-RHF Final Energy:  -232.22611227213719
    Total Energy =                       -232.2261122721371294
  Basis Set: CC-PVTZ
  Basis Set:
  Charge       = 0
  Multiplicity = 1
  Basis Set: CC-PVTZ
  Basis Set:

    Orbital Energies (a.u.)
    -----------------------

    Doubly Occupied:

       1A    -20.541797     2A    -11.272643     3A    -11.258581
       4A    -11.209186     5A    -11.208185     6A     -1.373519
       7A     -1.051571     8A     -0.940396     9A     -0.931466
      10A     -0.781493    11A     -0.675740    12A     -0.642457
      13A     -0.635036    14A     -0.573772    15A     -0.565370
      16A     -0.552820    17A     -0.534063    18A     -0.498459
      19A     -0.497321    20A     -0.444804    21A     -0.409397

  @DF-RHF Final Energy:  -232.22611258239772

   => Energetics <=

    Nuclear Repulsion Energy =            199.0371767939924439
    One-Electron Energy =                -709.3304237410395672
    Two-Electron Energy =                 278.0671343646495188
    DFT Exchange-Correlation Energy =       0.0000000000000000
    Empirical Dispersion Energy =           0.0000000000000000
    PCM Polarization Energy =               0.0000000000000000
    EFP Energy =                            0.0000000000000000
    Total Energy =                       -232.2261125823976045
    Molecular point group: c1
  Basis Set: CC-PVTZ
  Basis Set:

  -Total Gradient:
     Atom            X                  Y                   Z
    ------   -----------------  -----------------  -----------------
       1        0.000020617138     0.000525049111    -0.000005490922
       2        0.000173458892    -0.000757628890     0.000153190557
       3       -0.000515532015     0.000410654489    -0.000398132599
       4       -0.000017374300     0.000004066087     0.000008179041
       5       -0.000006110003     0.000024529939    -0.000015652550
       6        0.000327794871    -0.000169097768     0.000285800764
       7        0.000000211997    -0.000030053687    -0.000023670083
       8       -0.000002420231     0.000013929856    -0.000006667865
       9        0.000005473346    -0.000009438664     0.000002916729
      10       -0.000000035457     0.000000904075     0.000002489560
      11        0.000008041425    -0.000002075355     0.000005018137
      12        0.000003856737    -0.000009457596    -0.000016835139
      13        0.000002719557    -0.000000565462     0.000006988052
      14       -0.000000928176    -0.000000555057     0.000001976431
      15        0.000000226220    -0.000000261073    -0.000000110112

  **** Optimization is complete! (in 6 steps) ****
    Final optimized geometry and variables:
    Molecular point group: c1

    Geometry (in Angstrom), charge = 0, multiplicity = 1:

    H           -1.600396793496     1.031898205102     1.032491234359
    C           -0.556289316887     0.993319396638     1.327559860753
    O            0.299520493342     0.986111076162     0.230418673425
    H           -0.334074870651     1.886897601753     1.893456627519
    H           -0.410220981662     0.136711491403     1.977453489721
    C            0.347735075184    -0.159160114304    -0.584365640686
    C            0.974715981529    -1.352732676229     0.127968309882
    C           -1.002885365711    -0.498258493477    -1.204302903276
    H            1.015291580343     0.133465768985    -1.385238921019
    H            1.913581548632    -1.065815739492     0.585141841898
    H            1.170926734147    -2.145484768514    -0.584879650308
    H            0.328118208283    -1.758944257676     0.896913119871
    H           -1.433444032450     0.376816679500    -1.675723015382
    H           -0.878647070275    -1.264979028961    -1.960147723583
    H           -1.706114250069    -0.873621250904    -0.469733208210

  Mulliken Charges: (a.u.)
   Center  Symbol    Alpha    Beta     Spin     Total
       1     H     0.46870  0.46870  0.00000  0.06260
       2     C     3.03933  3.03933  0.00000 -0.07867
       3     O     4.18323  4.18323  0.00000 -0.36646
       4     H     0.44133  0.44133  0.00000  0.11734
       5     H     0.47094  0.47094  0.00000  0.05812
       6     C     2.93393  2.93393  0.00000  0.13214
       7     C     3.15579  3.15579  0.00000 -0.31158
       8     C     3.16060  3.16060  0.00000 -0.32120
       9     H     0.44702  0.44702  0.00000  0.10597
      10     H     0.44423  0.44423  0.00000  0.11153
      11     H     0.45066  0.45066  0.00000  0.09869
      12     H     0.45626  0.45626  0.00000  0.08748
      13     H     0.44382  0.44382  0.00000  0.11237
      14     H     0.44874  0.44874  0.00000  0.10251
      15     H     0.45542  0.45542  0.00000  0.08917

   Total alpha = 21.00000, Total beta = 21.00000, Total charge =  0.00000

*** Psi4 exiting successfully. Buy a developer a beer!
