  ==> Input File <==

--------------------------------------------------------------------------
set {
	reference rhf
	basis cc-pvtz
}

set_num_threads( 4 )
memory 2 gb

molecule MOL {
0 1

O	 0.074770	 1.259872	 0.000487
C	 0.029490	 0.077183	 0.000078
C	 -1.232113	 -0.748027	 0.000015
O	 1.106773	 -0.690081	 -0.000204
C	 -2.501422	 0.088592	 -0.000052
H	 -1.188777	 -1.400384	 -0.865133
H	 -1.188857	 -1.400312	 0.865225
H	 -2.548170	 0.725504	 -0.873205
H	 -3.371613	 -0.556398	 -0.000040
H	 -2.548215	 0.725571	 0.873047
C	 1.508949	 -1.244399	 1.236173
H	 1.737235	 -0.464452	 1.947373
H	 2.390876	 -1.828106	 1.028046
H	 0.731725	 -1.874864	 1.641983

	symmetry c1
}
set optking {
	frozen_dihedral = ("
		11 4 2 3
	")
}

ee = optimize('scf')
oeprop('DIPOLE', 'QUADRUPOLE', 'MULLIKEN_CHARGES')
f=open( 'psi4out.xyz', 'w' )
f.write( "14  " )
f.write( str(ee) + "\n" )
f.write( MOL.save_string_xyz() )
f.close()
--------------------------------------------------------------------------

    Molecular point group: c1
  Charge       = 0
  Multiplicity = 1
  Basis Set: CC-PVTZ
  Basis Set:
  @DF-RHF Final Energy:  -305.96548211433901
    Total Energy =                       -305.9654821143388403
    Molecular point group: c1
  Basis Set: CC-PVTZ
  Basis Set:
  Basis Set: CC-PVTZ
  Basis Set:
  @DF-RHF Final Energy:  -305.96673088293983
    Total Energy =                       -305.9667308829398280
  Basis Set: CC-PVTZ
  Basis Set:
  Basis Set: CC-PVTZ
  Basis Set:
  @DF-RHF Final Energy:  -305.96734176807774
    Total Energy =                       -305.9673417680779721
  Basis Set: CC-PVTZ
  Basis Set:
  Basis Set: CC-PVTZ
  Basis Set:
  @DF-RHF Final Energy:  -305.96742871883231
    Total Energy =                       -305.9674287188322523
  Basis Set: CC-PVTZ
  Basis Set:
  Basis Set: CC-PVTZ
  Basis Set:
  @DF-RHF Final Energy:  -305.96743312940862
    Total Energy =                       -305.9674331294089029
  Basis Set: CC-PVTZ
  Basis Set:
  Basis Set: CC-PVTZ
  Basis Set:
  @DF-RHF Final Energy:  -305.96743704960079
    Total Energy =                       -305.9674370496004485
  Basis Set: CC-PVTZ
  Basis Set:
  Charge       = 0
  Multiplicity = 1
  Basis Set: CC-PVTZ
  Basis Set:

    Orbital Energies (a.u.)
    -----------------------

    Doubly Occupied:

       1A    -20.579524     2A    -20.545764     3A    -11.368485
       4A    -11.290950     5A    -11.242678     6A    -11.218501
       7A     -1.462311     8A     -1.371109     9A     -1.063859
      10A     -0.977835    11A     -0.894929    12A     -0.767883
      13A     -0.703234    14A     -0.680685    15A     -0.675475
      16A     -0.628136    17A     -0.614670    18A     -0.558000
      19A     -0.547670    20A     -0.526549    21A     -0.511905
      22A     -0.492834    23A     -0.460300    24A     -0.440026

  @DF-RHF Final Energy:  -305.96743716828155

   => Energetics <=

    Nuclear Repulsion Energy =            247.0904262431945710
    One-Electron Energy =                -906.8691035016840942
    Two-Electron Energy =                 353.8112400902079457
    DFT Exchange-Correlation Energy =       0.0000000000000000
    Empirical Dispersion Energy =           0.0000000000000000
    PCM Polarization Energy =               0.0000000000000000
    EFP Energy =                            0.0000000000000000
    Total Energy =                       -305.9674371682816059
    Molecular point group: c1
  Basis Set: CC-PVTZ
  Basis Set:

  -Total Gradient:
     Atom            X                  Y                   Z
    ------   -----------------  -----------------  -----------------
       1        0.000014584471    -0.000012374947     0.000013692401
       2       -0.000205231383    -0.000256166627    -0.000978407639
       3        0.000003604993    -0.000009418401     0.000592138537
       4        0.000580650018     0.000824827739     0.000494988220
       5       -0.000004383540    -0.000002258192     0.000011033232
       6       -0.000005879783    -0.000002219481     0.000011556455
       7        0.000004388113     0.000004984762     0.000013355802
       8       -0.000000925091     0.000001999864    -0.000004809630
       9        0.000001617421     0.000000728558    -0.000001920048
      10        0.000001986329    -0.000002515855    -0.000002677999
      11       -0.000389158594    -0.000544118508    -0.000150684022
      12        0.000000562015     0.000000044634     0.000005014607
      13        0.000002795236    -0.000001163307    -0.000002216083
      14       -0.000004610205    -0.000002350237    -0.000001063833

  **** Optimization is complete! (in 7 steps) ****
    Final optimized geometry and variables:
    Molecular point group: c1

    Geometry (in Angstrom), charge = 0, multiplicity = 1:

    O            0.221358164266     1.446363179445    -0.257469667574
    C            0.164169256954     0.273268358365    -0.206178413310
    C           -1.118220290755    -0.522019389983    -0.211342408175
    O            1.285675244990    -0.478087893075    -0.202168738208
    C           -2.370977387457     0.339254868790    -0.231415300944
    H           -1.073566285663    -1.175177838607    -1.076737048398
    H           -1.114182904534    -1.178369967553     0.652043766954
    H           -2.389377316477     0.975788352879    -1.105418967582
    H           -3.254410921026    -0.287353506301    -0.244436561449
    H           -2.418174542620     0.978249928544     0.640438669903
    C            1.713144690700    -1.027496587996     1.021830110915
    H            1.877162377681    -0.247107170873     1.754853728612
    H            2.646017915990    -1.530113447082     0.824887516135
    H            1.001241282348    -1.746535643830     1.409179108883

  Mulliken Charges: (a.u.)
   Center  Symbol    Alpha    Beta     Spin     Total
       1     O     4.16675  4.16675  0.00000 -0.33351
       2     C     2.79157  2.79157  0.00000  0.41687
       3     C     3.10907  3.10907  0.00000 -0.21813
       4     O     4.16382  4.16382  0.00000 -0.32764
       5     C     3.13887  3.13887  0.00000 -0.27774
       6     H     0.43899  0.43899  0.00000  0.12203
       7     H     0.44669  0.44669  0.00000  0.10662
       8     H     0.44519  0.44519  0.00000  0.10962
       9     H     0.45067  0.45067  0.00000  0.09866
      10     H     0.44902  0.44902  0.00000  0.10196
      11     C     3.03633  3.03633  0.00000 -0.07267
      12     H     0.45730  0.45730  0.00000  0.08541
      13     H     0.44067  0.44067  0.00000  0.11866
      14     H     0.46507  0.46507  0.00000  0.06986

   Total alpha = 24.00000, Total beta = 24.00000, Total charge = -0.00000
