  ==> Input File <==

--------------------------------------------------------------------------
set {
	reference rhf
	basis 6-31G*
}

set_num_threads( 4 )
memory 2 gb

molecule MOL {
0 1

H	 1.467401	 -2.901029	 -0.993363
C	 1.326769	 -1.823802	 -0.986828
C	 0.256217	 -1.433990	 0.027611
H	 1.030447	 -1.508375	 -1.981042
H	 2.286996	 -1.370210	 -0.766029
N	 -0.000257	 -0.000071	 0.054619
H	 -0.662030	 -1.940143	 -0.242589
H	 0.526583	 -1.805245	 1.020464
C	 -1.363055	 0.315058	 0.462241
C	 0.995983	 0.730029	 0.827352
C	 -2.412078	 -0.285320	 -0.468531
H	 -1.482241	 1.391144	 0.451970
H	 -1.549931	 -0.001174	 1.492681
C	 1.186058	 2.163791	 0.342132
H	 1.944276	 0.216074	 0.733840
H	 0.751055	 0.723525	 1.893540
H	 -2.262839	 0.075384	 -1.480151
H	 -2.369300	 -1.368867	 -0.491760
H	 -3.410332	 -0.003975	 -0.144961
H	 1.487013	 2.167880	 -0.699522
H	 0.278147	 2.750968	 0.428578
H	 1.954896	 2.662038	 0.926055

	symmetry c1
}
set optking {
	frozen_dihedral = ("
		3 6 9 11
	")
}

ee = optimize('scf')
oeprop('DIPOLE', 'QUADRUPOLE', 'MULLIKEN_CHARGES')
f=open( 'psi4out.xyz', 'w' )
f.write( "22  " )
f.write( str(ee) + "\n" )
f.write( MOL.save_string_xyz() )
f.close()
--------------------------------------------------------------------------

    Molecular point group: c1
  Charge       = 0
  Multiplicity = 1
  Basis Set: 6-31G*
  Basis Set:
  @DF-RHF Final Energy:  -290.36904757271031
    Total Energy =                       -290.3690475727102580
    Molecular point group: c1
  Basis Set: 6-31G*
  Basis Set:
  Basis Set: 6-31G*
  Basis Set:
  @DF-RHF Final Energy:  -290.36877422696841
    Total Energy =                       -290.3687742269683554
  Basis Set: 6-31G*
  Basis Set:
  Basis Set: 6-31G*
  Basis Set:
  @DF-RHF Final Energy:  -290.37070553533454
    Total Energy =                       -290.3707055353345368
  Basis Set: 6-31G*
  Basis Set:
  Basis Set: 6-31G*
  Basis Set:
  @DF-RHF Final Energy:  -290.37079854270104
    Total Energy =                       -290.3707985427012090
  Basis Set: 6-31G*
  Basis Set:
  Basis Set: 6-31G*
  Basis Set:
  @DF-RHF Final Energy:  -290.37082117038494
    Total Energy =                       -290.3708211703849997
  Basis Set: 6-31G*
  Basis Set:
  Basis Set: 6-31G*
  Basis Set:
  @DF-RHF Final Energy:  -290.37082440015672
    Total Energy =                       -290.3708244001571757
  Basis Set: 6-31G*
  Basis Set:
  Charge       = 0
  Multiplicity = 1
  Basis Set: 6-31G*
  Basis Set:

    Orbital Energies (a.u.)
    -----------------------

    Doubly Occupied:

       1A    -15.536765     2A    -11.240643     3A    -11.239430
       4A    -11.239188     5A    -11.208004     6A    -11.204786
       7A    -11.204626     8A     -1.222796     9A     -1.023824
      10A     -1.022760    11A     -0.956096    12A     -0.851250
      13A     -0.843876    14A     -0.768022    15A     -0.648059
      16A     -0.639927    17A     -0.626850    18A     -0.593898
      19A     -0.590377    20A     -0.548175    21A     -0.530100
      22A     -0.521304    23A     -0.516912    24A     -0.497863
      25A     -0.492703    26A     -0.487178    27A     -0.461790
      28A     -0.460824    29A     -0.338640

  @DF-RHF Final Energy:  -290.37082523904672

   => Energetics <=

    Nuclear Repulsion Energy =            337.3719637784586780
    One-Electron Energy =               -1060.4522518813519127
    Two-Electron Energy =                 432.7094628638470795
    DFT Exchange-Correlation Energy =       0.0000000000000000
    Empirical Dispersion Energy =           0.0000000000000000
    PCM Polarization Energy =               0.0000000000000000
    EFP Energy =                            0.0000000000000000
    Total Energy =                       -290.3708252390462121
    Molecular point group: c1
  Basis Set: 6-31G*
  Basis Set:

  -Total Gradient:
     Atom            X                  Y                   Z
    ------   -----------------  -----------------  -----------------
       1       -0.000012234287     0.000027910289     0.000007005151
       2        0.000005590984     0.000010441606    -0.000038756243
       3       -0.000797787116    -0.000142430801    -0.002616135867
       4        0.000011937409    -0.000007954252    -0.000014857163
       5       -0.000002073990    -0.000027229952    -0.000026383134
       6        0.001030544589    -0.000900897806     0.004381925019
       7       -0.000002308709     0.000023226879    -0.000002796315
       8       -0.000016731923    -0.000012039454     0.000028945755
       9       -0.000199848725     0.003132785787    -0.003188098810
      10        0.000006199424    -0.000007945813    -0.000058829387
      11       -0.000072311551    -0.002206444765     0.001413209118
      12        0.000017713383    -0.000011711372    -0.000015270944
      13       -0.000013703709     0.000010536255     0.000021870345
      14        0.000019284727     0.000045274931     0.000022554278
      15       -0.000035268063     0.000048288979     0.000018487996
      16        0.000008271106    -0.000002040597     0.000011237265
      17       -0.000002338960     0.000013446283    -0.000014694701
      18        0.000006258612    -0.000007500480     0.000026926808
      19        0.000044778729     0.000002938611     0.000021168530
      20        0.000010568420    -0.000014932099     0.000015669809
      21        0.000006085457     0.000004466332     0.000004391263
      22       -0.000012625808     0.000021811438     0.000002431227

  **** Optimization is complete! (in 7 steps) ****
    Final optimized geometry and variables:
    Molecular point group: c1

    Geometry (in Angstrom), charge = 0, multiplicity = 1:

    H            1.546206111085    -2.813949560600    -1.059622760940
    C            1.385972062608    -1.740044092010    -1.023927061768
    C            0.283405347516    -1.403818778411    -0.023193567141
    H            1.105229049268    -1.400278151587    -2.014677513202
    H            2.333238252912    -1.277687460800    -0.769021780027
    N           -0.006294510250     0.021799350242     0.030373426985
    H           -0.608742803351    -1.928838606433    -0.330816055713
    H            0.543303054382    -1.796633682117     0.964856606300
    C           -1.364578311597     0.353333505428     0.434074380249
    C            0.979194070144     0.772338016276     0.795923294852
    C           -2.455048083054    -0.204177740367    -0.477769621193
    H           -1.448806256831     1.432521276155     0.432597202705
    H           -1.562022637805     0.032430459677     1.463554883222
    C            1.175619062250     2.198982295247     0.289917830212
    H            1.930090671388     0.260302324517     0.726477731830
    H            0.719965649312     0.786383289103     1.858796714389
    H           -2.233236716074     0.017404023963    -1.516481242881
    H           -2.585161752008    -1.274858238454    -0.377052696600
    H           -3.405464031666     0.257384478657    -0.227429542654
    H            1.473737267991     2.187826430428    -0.752596125652
    H            0.274162182024     2.795666440166     0.373598338427
    H            1.950615562818     2.697901717137     0.865030641368

  Mulliken Charges: (a.u.)
   Center  Symbol    Alpha    Beta     Spin     Total
       1     H     0.42360  0.42360  0.00000  0.15281
       2     C     3.23551  3.23551  0.00000 -0.47102
       3     C     3.05802  3.05802  0.00000 -0.11605
       4     H     0.41548  0.41548  0.00000  0.16905
       5     H     0.42148  0.42148  0.00000  0.15704
       6     N     3.78751  3.78751  0.00000 -0.57502
       7     H     0.41689  0.41689  0.00000  0.16622
       8     H     0.43334  0.43334  0.00000  0.13332
       9     C     3.05040  3.05040  0.00000 -0.10079
      10     C     3.05871  3.05871  0.00000 -0.11741
      11     C     3.24665  3.24665  0.00000 -0.49331
      12     H     0.41771  0.41771  0.00000  0.16458
      13     H     0.43590  0.43590  0.00000  0.12820
      14     C     3.23565  3.23565  0.00000 -0.47131
      15     H     0.41822  0.41822  0.00000  0.16357
      16     H     0.43205  0.43205  0.00000  0.13591
      17     H     0.41349  0.41349  0.00000  0.17303
      18     H     0.41983  0.41983  0.00000  0.16034
      19     H     0.41951  0.41951  0.00000  0.16098
      20     H     0.41532  0.41532  0.00000  0.16936
      21     H     0.42114  0.42114  0.00000  0.15772
      22     H     0.42360  0.42360  0.00000  0.15279

   Total alpha = 29.00000, Total beta = 29.00000, Total charge = -0.00000
