                              Psi4 1.0.54 Driver

  ==> Input File <==

--------------------------------------------------------------------------
set {
	reference rhf
	basis cc-pvtz
}

set_num_threads( 4 )
memory 2 gb

molecule MOL {
0 1

H	 1.100079	 -0.590950	 0.277942
C	 0.848385	 0.440008	 0.000011
C	 -0.623497	 0.751021	 0.000090
O	 1.705047	 1.208455	 -0.269923
C	 -1.523725	 -0.474323	 -0.000013
H	 -0.813143	 1.382932	 -0.864897
H	 -0.813071	 1.382716	 0.865253
H	 -1.342980	 -1.087348	 -0.873016
H	 -2.565269	 -0.177464	 0.000070
H	 -1.342898	 -1.087564	 0.872820

	symmetry c1
}
set optking {
	frozen_dihedral = ("
		4 2 3 6
	")
}

ee,wfn = optimize('scf', return_wfn=True)
oeprop( wfn, 'DIPOLE', 'QUADRUPOLE', 'MULLIKEN_CHARGES')
f=open( 'psi4out.xyz', 'w' )
f.write( "10  " )
f.write( str(ee) + "\n" )
f.write( MOL.save_string_xyz() )
f.close()
--------------------------------------------------------------------------

    Molecular point group: c1
  Charge       = 0
  Multiplicity = 1
  Basis Set: CC-PVTZ
  Basis Set:
  @DF-RHF Final Energy:  -192.02197138919104
    Total Energy =                       -192.0219713891910089
    Molecular point group: c1
  Basis Set: CC-PVTZ
  Basis Set:
  Basis Set: CC-PVTZ
  Basis Set:
  @DF-RHF Final Energy:  -192.02190084769816
    Total Energy =                       -192.0219008476981060
  Basis Set: CC-PVTZ
  Basis Set:
  Basis Set: CC-PVTZ
  Basis Set:
  @DF-RHF Final Energy:  -192.02179222602101
    Total Energy =                       -192.0217922260210344
  Basis Set: CC-PVTZ
  Basis Set:
  Basis Set: CC-PVTZ
  Basis Set:
  @DF-RHF Final Energy:  -192.02226792093481
    Total Energy =                       -192.0222679209347802
  Basis Set: CC-PVTZ
  Basis Set:
  Charge       = 0
  Multiplicity = 1
  Basis Set: CC-PVTZ
  Basis Set:

    Orbital Energies (a.u.)
    -----------------------

    Doubly Occupied:

       1A    -20.552877     2A    -11.323722     3A    -11.238331
       4A    -11.230371     5A     -1.408767     6A     -1.067763
       7A     -0.902853     8A     -0.798518     9A     -0.664818
      10A     -0.643642    11A     -0.636215    12A     -0.555987
      13A     -0.546890    14A     -0.525205    15A     -0.493269
      16A     -0.415131

  @DF-RHF Final Energy:  -192.02227054820730

   => Energetics <=

    Nuclear Repulsion Energy =            117.1615525326259188
    One-Electron Energy =                -492.3589300002262235
    Two-Electron Energy =                 183.1751069193929027
    DFT Exchange-Correlation Energy =       0.0000000000000000
    Empirical Dispersion Energy =           0.0000000000000000
    PCM Polarization Energy =               0.0000000000000000
    EFP Energy =                            0.0000000000000000
    Total Energy =                       -192.0222705482073877
    Molecular point group: c1
  Basis Set: CC-PVTZ
  Basis Set:

  -Total Gradient:
     Atom            X                  Y                   Z
    ------   -----------------  -----------------  -----------------
       1       -0.000040781434    -0.000044470152     0.000006131426
       2       -0.000039328355    -0.000463795775    -0.001423572128
       3        0.000232126112     0.000887106760     0.000979708104
       4       -0.000055579608     0.000248891059     0.000924758939
       5        0.000057611439     0.000054792680    -0.000006671454
       6       -0.000170817845    -0.000726293345    -0.000486380558
       7        0.000016922720     0.000033060245     0.000009944808
       8       -0.000003218558    -0.000004939435    -0.000001681617
       9       -0.000002387183     0.000007278824    -0.000000601946
      10        0.000005452711     0.000008369143    -0.000001635575

  **** Optimization is complete! (in 5 steps) ****
    Final optimized geometry and variables:
    Molecular point group: c1

    Geometry (in Angstrom), charge = 0, multiplicity = 1:

    H            0.991750617107    -1.079053421837     0.397172438186
    C            0.748376322806    -0.058049812075     0.074697697876
    C           -0.719646264419     0.297219012152     0.059360627038
    O            1.612915538841     0.694159676971    -0.212635662121
    C           -1.638379676818    -0.918488924361     0.083757107257
    H           -0.900308123064     0.911770463834    -0.813737716856
    H           -0.896838914199     0.925252824568     0.927677576151
    H           -1.481866238275    -1.548088435012    -0.785197656434
    H           -2.676943227399    -0.614254684384     0.088076642396
    H           -1.468111932115    -1.523900981445     0.967199944792

  Mulliken Charges: (a.u.)
   Center  Symbol    Alpha    Beta     Spin     Total
       1     H     0.46397  0.46397  0.00000  0.07206
       2     C     2.90510  2.90510  0.00000  0.18979
       3     C     3.08207  3.08207  0.00000 -0.16414
       4     O     4.16470  4.16470  0.00000 -0.32941
       5     C     3.15393  3.15393  0.00000 -0.30786
       6     H     0.43933  0.43933  0.00000  0.12133
       7     H     0.44309  0.44309  0.00000  0.11382
       8     H     0.45030  0.45030  0.00000  0.09940
       9     H     0.44421  0.44421  0.00000  0.11158
      10     H     0.45329  0.45329  0.00000  0.09343

   Total alpha = 16.00000, Total beta = 16.00000, Total charge = -0.00000

*** Psi4 exiting successfully. Buy a developer a beer!
