  ==> Input File <==

--------------------------------------------------------------------------
set {
	reference rhf
	basis 6-31G*
}

set_num_threads( 1 )
memory 2 gb

molecule MOL {
0 1

H	 4.660116	 -2.127027	 0.293068
C	 4.116185	 -1.740836	 -0.563389
C	 2.658725	 -1.450867	 -0.207152
H	 4.621953	 -0.839785	 -0.897527
H	 4.188319	 -2.476195	 -1.360160
C	 1.860427	 -0.910716	 -1.395753
H	 2.624618	 -0.734348	 0.607120
H	 2.189149	 -2.363490	 0.156591
C	 0.392794	 -0.628033	 -1.074177
H	 2.322711	 -0.000397	 -1.760798
H	 1.899323	 -1.633414	 -2.207686
C	 0.169600	 0.576866	 -0.172154
H	 -0.153815	 -0.431096	 -1.995157
H	 -0.082911	 -1.500054	 -0.630939
C	 -1.181045	 0.701995	 0.511084
O	 1.013909	 1.407191	 -0.016888
C	 -2.285934	 -0.139295	 -0.145128
H	 -1.449051	 1.751551	 0.493206
H	 -1.071135	 0.403303	 1.551943
C	 -3.651768	 0.085446	 0.506485
H	 -2.346596	 0.110469	 -1.202272
H	 -2.034737	 -1.195320	 -0.088721
C	 -4.759797	 -0.746382	 -0.137905
H	 -3.908762	 1.140117	 0.445781
H	 -3.588286	 -0.154158	 1.565709
H	 -4.868882	 -0.505166	 -1.191300
H	 -4.548009	 -1.809175	 -0.062213
H	 -5.715422	 -0.564821	 0.343442

	symmetry c1
}
set optking {
	frozen_dihedral = ("
		10 6 3 2,
		12 15 17 21
	")
}

ee = energy('scf')
oeprop('DIPOLE', 'QUADRUPOLE', 'MULLIKEN_CHARGES')
f=open( 'psi4out.xyz', 'w' )
f.write( "28  " )
f.write( str(ee) + "\n" )
f.write( MOL.save_string_xyz() )
f.close()
--------------------------------------------------------------------------

    Molecular point group: c1

    Geometry (in Angstrom), charge = 0, multiplicity = 1:

       Center              X                  Y                   Z               Mass
    ------------   -----------------  -----------------  -----------------  -----------------
           H          4.823836974110    -1.834742085428     0.563187087020     1.007825032070
           C          4.279905974110    -1.448551085428    -0.293269912980    12.000000000000
           C          2.822445974110    -1.158582085428     0.062967087020    12.000000000000
           H          4.785673974110    -0.547500085428    -0.627407912980     1.007825032070
           H          4.352039974110    -2.183910085428    -1.090040912980     1.007825032070
           C          2.024147974110    -0.618431085428    -1.125633912980    12.000000000000
           H          2.788338974110    -0.442063085428     0.877239087020     1.007825032070
           H          2.352869974110    -2.071205085428     0.426710087020     1.007825032070
           C          0.556514974110    -0.335748085428    -0.804057912980    12.000000000000
           H          2.486431974110     0.291887914572    -1.490678912980     1.007825032070
           H          2.063043974110    -1.341129085428    -1.937566912980     1.007825032070
           C          0.333320974110     0.869150914572     0.097965087020    12.000000000000
           H          0.009905974110    -0.138811085428    -1.725037912980     1.007825032070
           H          0.080809974110    -1.207769085428    -0.360819912980     1.007825032070
           C         -1.017324025890     0.994279914572     0.781203087020    12.000000000000
           O          1.177629974110     1.699475914572     0.253231087020    15.994914619560
           C         -2.122213025890     0.152989914572     0.124991087020    12.000000000000
           H         -1.285330025890     2.043835914572     0.763325087020     1.007825032070
           H         -0.907414025890     0.695587914572     1.822062087020     1.007825032070
           C         -3.488047025890     0.377730914572     0.776604087020    12.000000000000
           H         -2.182875025890     0.402753914572    -0.932152912980     1.007825032070
           H         -1.871016025890    -0.903035085428     0.181398087020     1.007825032070
           C         -4.596076025890    -0.454097085428     0.132214087020    12.000000000000
           H         -3.745041025890     1.432401914572     0.715900087020     1.007825032070
           H         -3.424565025890     0.138126914572     1.835828087020     1.007825032070
           H         -4.705161025890    -0.212881085428    -0.921180912980     1.007825032070
           H         -4.384288025890    -1.516890085428     0.207906087020     1.007825032070
           H         -5.551701025890    -0.272536085428     0.613561087020     1.007825032070

  Charge       = 0
  Multiplicity = 1
  Basis Set: 6-31G*
  Basis Set:

    Orbital Energies (a.u.)
    -----------------------

    Doubly Occupied:

       1A    -20.546286     2A    -11.323155     3A    -11.230726
       4A    -11.229895     5A    -11.228911     6A    -11.225939
       7A    -11.216727     8A    -11.215595     9A    -11.212145
      10A    -11.205546    11A     -1.392325    12A     -1.097907
      13A     -1.076127    14A     -1.023402    15A     -0.989785
      16A     -0.904800    17A     -0.876786    18A     -0.809585
      19A     -0.800581    20A     -0.720191    21A     -0.666124
      22A     -0.661444    23A     -0.628782    24A     -0.618155
      25A     -0.608955    26A     -0.585457    27A     -0.583302
      28A     -0.573529    29A     -0.541580    30A     -0.531059
      31A     -0.522436    32A     -0.515575    33A     -0.490929
      34A     -0.486978    35A     -0.480422    36A     -0.475671
      37A     -0.468121    38A     -0.464715    39A     -0.453739
      40A     -0.391775

  @DF-RHF Final Energy:  -426.16492836093903

   => Energetics <=

    Nuclear Repulsion Energy =            534.8187470503725081
    One-Electron Energy =               -1637.8170056039748488
    Two-Electron Energy =                 676.8333301926630838
    DFT Exchange-Correlation Energy =       0.0000000000000000
    Empirical Dispersion Energy =           0.0000000000000000
    PCM Polarization Energy =               0.0000000000000000
    EFP Energy =                            0.0000000000000000
    Total Energy =                       -426.1649283609391432

  Mulliken Charges: (a.u.)
   Center  Symbol    Alpha    Beta     Spin     Total
       1     H     0.41948  0.41948  0.00000  0.16104
       2     C     3.24008  3.24008  0.00000 -0.48015
       3     C     3.15639  3.15639  0.00000 -0.31278
       4     H     0.41824  0.41824  0.00000  0.16351
       5     H     0.42364  0.42364  0.00000  0.15271
       6     C     3.14758  3.14758  0.00000 -0.29516
       7     H     0.41057  0.41057  0.00000  0.17885
       8     H     0.42806  0.42806  0.00000  0.14388
       9     C     3.21623  3.21623  0.00000 -0.43245
      10     H     0.40696  0.40696  0.00000  0.18608
      11     H     0.42224  0.42224  0.00000  0.15551
      12     C     2.73095  2.73095  0.00000  0.53811
      13     H     0.40274  0.40274  0.00000  0.19453
      14     H     0.41096  0.41096  0.00000  0.17807
      15     C     3.20139  3.20139  0.00000 -0.40278
      16     O     4.26912  4.26912  0.00000 -0.53824
      17     C     3.16521  3.16521  0.00000 -0.33042
      18     H     0.39937  0.39937  0.00000  0.20127
      19     H     0.40246  0.40246  0.00000  0.19508
      20     C     3.15086  3.15086  0.00000 -0.30172
      21     H     0.41918  0.41918  0.00000  0.16164
      22     H     0.41854  0.41854  0.00000  0.16291
      23     C     3.23984  3.23984  0.00000 -0.47967
      24     H     0.41997  0.41997  0.00000  0.16006
      25     H     0.42129  0.42129  0.00000  0.15743
      26     H     0.42062  0.42062  0.00000  0.15875
      27     H     0.42116  0.42116  0.00000  0.15767
      28     H     0.41686  0.41686  0.00000  0.16627

   Total alpha = 40.00000, Total beta = 40.00000, Total charge = -0.00000
