  ==> Input File <==

--------------------------------------------------------------------------
set {
	reference rhf
	basis cc-pvtz
}

set_num_threads( 4 )
memory 2 gb

molecule MOL {
0 1

O	 0.393560	 0.772429	 0.886017
C	 0.029490	 0.077183	 0.000078
C	 -1.232113	 -0.748027	 0.000015
O	 0.699925	 -0.067995	 -1.130706
C	 -2.501422	 0.088592	 -0.000052
H	 -1.188777	 -1.400384	 -0.865133
H	 -1.188857	 -1.400312	 0.865225
H	 -2.548170	 0.725504	 -0.873205
H	 -3.371613	 -0.556398	 -0.000040
H	 -2.548215	 0.725571	 0.873047
C	 1.908196	 0.652745	 -1.265821
H	 1.727958	 1.715308	 -1.197197
H	 2.296477	 0.403234	 -2.239888
H	 2.611733	 0.364415	 -0.498913

	symmetry c1
}
set optking {
	frozen_dihedral = ("
		4 2 3 6
	")
}

ee = optimize('scf')
oeprop('DIPOLE', 'QUADRUPOLE', 'MULLIKEN_CHARGES')
f=open( 'psi4out.xyz', 'w' )
f.write( "14  " )
f.write( str(ee) + "\n" )
f.write( MOL.save_string_xyz() )
f.close()
--------------------------------------------------------------------------

    Molecular point group: c1
  Charge       = 0
  Multiplicity = 1
  Basis Set: CC-PVTZ
  Basis Set:
  @DF-RHF Final Energy:  -305.98522736887827
    Total Energy =                       -305.9852273688784976
    Molecular point group: c1
  Basis Set: CC-PVTZ
  Basis Set:
  Basis Set: CC-PVTZ
  Basis Set:
  @DF-RHF Final Energy:  -305.98573795894868
    Total Energy =                       -305.9857379589485618
  Basis Set: CC-PVTZ
  Basis Set:
  Basis Set: CC-PVTZ
  Basis Set:
  @DF-RHF Final Energy:  -305.98587650732975
    Total Energy =                       -305.9858765073297491
  Basis Set: CC-PVTZ
  Basis Set:
  Basis Set: CC-PVTZ
  Basis Set:
  @DF-RHF Final Energy:  -305.98593376695572
    Total Energy =                       -305.9859337669556680
  Basis Set: CC-PVTZ
  Basis Set:
  Charge       = 0
  Multiplicity = 1
  Basis Set: CC-PVTZ
  Basis Set:

    Orbital Energies (a.u.)
    -----------------------

    Doubly Occupied:

       1A    -20.599626     2A    -20.532027     3A    -11.364696
       4A    -11.279233     5A    -11.235784     6A    -11.222971
       7A     -1.473467     8A     -1.365460     9A     -1.066458
      10A     -0.980372    11A     -0.881757    12A     -0.775154
      13A     -0.700809    14A     -0.683491    15A     -0.676007
      16A     -0.618251    17A     -0.602145    18A     -0.564356
      19A     -0.541504    20A     -0.520721    21A     -0.510841
      22A     -0.502723    23A     -0.459520    24A     -0.439171

  @DF-RHF Final Energy:  -305.98593539543822

   => Energetics <=

    Nuclear Repulsion Energy =            247.9465686215281437
    One-Electron Energy =                -908.6719218923769859
    Two-Electron Energy =                 354.7394178754104246
    DFT Exchange-Correlation Energy =       0.0000000000000000
    Empirical Dispersion Energy =           0.0000000000000000
    PCM Polarization Energy =               0.0000000000000000
    EFP Energy =                            0.0000000000000000
    Total Energy =                       -305.9859353954383892
    Molecular point group: c1
  Basis Set: CC-PVTZ
  Basis Set:

  -Total Gradient:
     Atom            X                  Y                   Z
    ------   -----------------  -----------------  -----------------
       1        0.000086200863    -0.000062434212    -0.000128661178
       2       -0.000019829032    -0.000022106450     0.000164615417
       3       -0.000174508459     0.000212890534    -0.000114489893
       4       -0.000015438578     0.000095671204     0.000013747017
       5        0.000067412019    -0.000067461008     0.000015863836
       6        0.000060347019    -0.000127579845     0.000018025629
       7        0.000007478236     0.000004423510     0.000006746982
       8        0.000012884857    -0.000023302166     0.000017399241
       9       -0.000015324441    -0.000002523661    -0.000008657685
      10       -0.000000526990     0.000012911546     0.000003494009
      11       -0.000035483691    -0.000055554784     0.000014790267
      12       -0.000005602563     0.000011347105    -0.000001249527
      13        0.000020075882     0.000018094026    -0.000002997122
      14        0.000012314877     0.000005624202     0.000001373008

  **** Optimization is complete! (in 5 steps) ****
    Final optimized geometry and variables:
    Molecular point group: c1

    Geometry (in Angstrom), charge = 0, multiplicity = 1:

    O            0.463909847962     0.604995920464     1.146654376107
    C            0.122171041683    -0.089896410503     0.250274343228
    C           -1.137989708623    -0.918844911714     0.257902799661
    O            0.804783326804    -0.208599491112    -0.874565407073
    C           -2.382927211946    -0.030958283701     0.264018854544
    H           -1.141476698012    -1.582689065793    -0.594230150769
    H           -1.113518465432    -1.518704435667     1.159096375414
    H           -2.436889538332     0.571787117887    -0.635102983410
    H           -3.275894342709    -0.641208790535     0.310606781112
    H           -2.374947293583     0.632093545594     1.118297357290
    C            1.997569161521     0.542059431276    -0.989405589531
    H            1.791213907580     1.598914432375    -0.908913854578
    H            2.400285551948     0.313613141335    -1.962760917196
    H            2.699716656305     0.260411368780    -0.218964594962

  Mulliken Charges: (a.u.)
   Center  Symbol    Alpha    Beta     Spin     Total
       1     O     4.20502  4.20502  0.00000 -0.41005
       2     C     2.80166  2.80166  0.00000  0.39668
       3     C     3.08502  3.08502  0.00000 -0.17003
       4     O     4.14532  4.14532  0.00000 -0.29065
       5     C     3.14697  3.14697  0.00000 -0.29393
       6     H     0.44080  0.44080  0.00000  0.11840
       7     H     0.44397  0.44397  0.00000  0.11206
       8     H     0.45267  0.45267  0.00000  0.09466
       9     H     0.44876  0.44876  0.00000  0.10248
      10     H     0.44243  0.44243  0.00000  0.11513
      11     C     3.03407  3.03407  0.00000 -0.06815
      12     H     0.45406  0.45406  0.00000  0.09188
      13     H     0.44538  0.44538  0.00000  0.10924
      14     H     0.45386  0.45386  0.00000  0.09228

   Total alpha = 24.00000, Total beta = 24.00000, Total charge =  0.00000
