  ==> Input File <==

--------------------------------------------------------------------------
set {
	reference rhf
	basis 6-31G*
}

set_num_threads( 4 )
memory 2 gb

molecule MOL {
0 1

H	 -1.748661	 -2.220942	 -0.005015
C	 -1.343207	 -1.225221	 -0.013879
N	 -0.055091	 -1.100174	 -0.261126
C	 -2.150779	 -0.125890	 0.222726
C	 0.449969	 0.122615	 -0.277109
H	 -3.200618	 -0.238980	 0.422496
N	 -1.660212	 1.097703	 0.209594
C	 -0.371804	 1.219904	 -0.038265
C	 1.928147	 0.267347	 -0.541394
H	 0.029131	 2.217482	 -0.051283
C	 2.473515	 1.625420	 -0.087274
H	 2.447662	 -0.525013	 -0.013065
H	 2.122063	 0.127728	 -1.600204
H	 3.542280	 1.685835	 -0.266405
H	 2.297243	 1.771339	 0.972026
H	 1.996081	 2.438391	 -0.625275

	symmetry c1
}
set optking {
	frozen_dihedral = ("
		12 9 5 3
	")
}

ee = optimize('scf')
oeprop('DIPOLE', 'QUADRUPOLE', 'MULLIKEN_CHARGES')
f=open( 'psi4out.xyz', 'w' )
f.write( "16  " )
f.write( str(ee) + "\n" )
f.write( MOL.save_string_xyz() )
f.close()
--------------------------------------------------------------------------

    Molecular point group: c1
  Charge       = 0
  Multiplicity = 1
  Basis Set: 6-31G*
  Basis Set:
  @DF-RHF Final Energy:  -340.75455756936759
    Total Energy =                       -340.7545575693674778
    Molecular point group: c1
  Basis Set: 6-31G*
  Basis Set:
  Basis Set: 6-31G*
  Basis Set:
  @DF-RHF Final Energy:  -340.75552154436144
    Total Energy =                       -340.7555215443614429
  Basis Set: 6-31G*
  Basis Set:
  Basis Set: 6-31G*
  Basis Set:
  @DF-RHF Final Energy:  -340.75612143408483
    Total Energy =                       -340.7561214340847187
  Basis Set: 6-31G*
  Basis Set:
  Basis Set: 6-31G*
  Basis Set:
  @DF-RHF Final Energy:  -340.75617807804173
    Total Energy =                       -340.7561780780415575
  Basis Set: 6-31G*
  Basis Set:
  Basis Set: 6-31G*
  Basis Set:
  @DF-RHF Final Energy:  -340.75618314651695
    Total Energy =                       -340.7561831465170030
  Basis Set: 6-31G*
  Basis Set:
  Basis Set: 6-31G*
  Basis Set:
  @DF-RHF Final Energy:  -340.75618715993420
    Total Energy =                       -340.7561871599342567
  Basis Set: 6-31G*
  Basis Set:
  Charge       = 0
  Multiplicity = 1
  Basis Set: 6-31G*
  Basis Set:

    Orbital Energies (a.u.)
    -----------------------

    Doubly Occupied:

       1A    -15.585896     2A    -15.580876     3A    -11.282013
       4A    -11.275715     5A    -11.271211     6A    -11.270635
       7A    -11.233432     8A    -11.223509     9A     -1.312431
      10A     -1.220711    11A     -1.085383    12A     -1.015078
      13A     -0.908211    14A     -0.891693    15A     -0.829949
      16A     -0.714490    17A     -0.707503    18A     -0.652533
      19A     -0.628833    20A     -0.610370    21A     -0.568589
      22A     -0.563961    23A     -0.519127    24A     -0.512031
      25A     -0.506704    26A     -0.482798    27A     -0.426927
      28A     -0.394140    29A     -0.344682

  @DF-RHF Final Energy:  -340.75618878877594

   => Energetics <=

    Nuclear Repulsion Energy =            349.1921490117778148
    One-Electron Energy =               -1152.6578135397135156
    Two-Electron Energy =                 462.7094757391598137
    DFT Exchange-Correlation Energy =       0.0000000000000000
    Empirical Dispersion Energy =           0.0000000000000000
    PCM Polarization Energy =               0.0000000000000000
    EFP Energy =                            0.0000000000000000
    Total Energy =                       -340.7561887887758871
    Molecular point group: c1
  Basis Set: 6-31G*
  Basis Set:

  -Total Gradient:
     Atom            X                  Y                   Z
    ------   -----------------  -----------------  -----------------
       1        0.000011826435    -0.000001258172    -0.000005379985
       2       -0.000085419179     0.000034198502     0.000020997797
       3        0.000146049637     0.000049600922     0.000241147389
       4        0.000022525665    -0.000119511510    -0.000014813764
       5       -0.000061801195    -0.000136909026    -0.000384524852
       6        0.000002538732     0.000001228011    -0.000002492295
       7        0.000109359352     0.000089418911    -0.000005575713
       8       -0.000100881804     0.000068743461     0.000012329928
       9        0.000046362833     0.000189868618     0.000354970135
      10        0.000005974082     0.000005616862     0.000001972651
      11       -0.000040396633     0.000021859506     0.000011182398
      12       -0.000049618739    -0.000189530768    -0.000227984059
      13        0.000002406311    -0.000009000426    -0.000003403731
      14       -0.000014613191    -0.000017277424    -0.000011251130
      15        0.000000666782     0.000003601787     0.000011368044
      16        0.000005020912     0.000009350742     0.000001457188

  **** Optimization is complete! (in 7 steps) ****
    Final optimized geometry and variables:
    Molecular point group: c1

    Geometry (in Angstrom), charge = 0, multiplicity = 1:

    H           -1.667186973720    -2.504009519919     0.047579818148
    C           -1.287176429553    -1.498174406198     0.058839936571
    N            0.001457969241    -1.338256967751    -0.156429398359
    C           -2.125833720850    -0.421837931717     0.294105911003
    C            0.482730643955    -0.104386283558    -0.144203844331
    H           -3.176842328965    -0.561239843430     0.470157848481
    N           -1.661613847336     0.810447279070     0.312229877992
    C           -0.369963753334     0.969017993133     0.095544268417
    C            1.964066253365     0.037659414589    -0.417899627515
    H           -0.003549934012     1.977437637163     0.115213938707
    C            2.597418974145     1.371402504013    -0.024133866390
    H            2.461734477200    -0.775846729631     0.097773061231
    H            2.125431234458    -0.141164867038    -1.478245653766
    H            3.667482602558     1.335377738799    -0.196658258221
    H            2.438328376665     1.594002910816     1.026364984231
    H            2.203997777675     2.197792831015    -0.606799597877

  Mulliken Charges: (a.u.)
   Center  Symbol    Alpha    Beta     Spin     Total
       1     H     0.39390  0.39390  0.00000  0.21219
       2     C     2.98955  2.98955  0.00000  0.02090
       3     N     3.75456  3.75456  0.00000 -0.50912
       4     C     2.99814  2.99814  0.00000  0.00373
       5     C     2.88115  2.88115  0.00000  0.23770
       6     H     0.39448  0.39448  0.00000  0.21104
       7     N     3.73102  3.73102  0.00000 -0.46205
       8     C     2.99796  2.99796  0.00000  0.00409
       9     C     3.16132  3.16132  0.00000 -0.32264
      10     H     0.39297  0.39297  0.00000  0.21406
      11     C     3.25256  3.25256  0.00000 -0.50511
      12     H     0.40244  0.40244  0.00000  0.19513
      13     H     0.40540  0.40540  0.00000  0.18920
      14     H     0.41193  0.41193  0.00000  0.17613
      15     H     0.41484  0.41484  0.00000  0.17033
      16     H     0.41779  0.41779  0.00000  0.16442

   Total alpha = 29.00000, Total beta = 29.00000, Total charge = -0.00000
