                              Psi4 1.0.54 Driver

  ==> Input File <==

--------------------------------------------------------------------------
set {
	reference rhf
	basis cc-pvtz
}

set_num_threads( 4 )
memory 2 gb

molecule MOL {
0 1

H	 -1.478061	 2.540554	 2.478146
O	 -1.223805	 1.804323	 1.953385
C	 -0.358535	 2.217801	 0.927539
C	 0.027642	 1.012027	 0.090274
H	 0.541034	 2.660986	 1.347218
H	 -0.835694	 2.974584	 0.311050
C	 -1.138737	 0.285728	 -0.581921
H	 0.554726	 0.313668	 0.732133
H	 0.737317	 1.342804	 -0.664155
C	 -1.933983	 -0.631436	 0.343653
H	 -0.763151	 -0.285569	 -1.422081
H	 -1.808359	 1.035291	 -0.992333
H	 -2.789188	 -1.049673	 -0.174718
H	 -1.335629	 -1.461368	 0.700418
H	 -2.305435	 -0.092167	 1.209725

	symmetry c1
}
set optking {
	frozen_dihedral = ("
		8 4 7 11
	")
}

ee,wfn = optimize('scf', return_wfn=True)
oeprop( wfn, 'DIPOLE', 'QUADRUPOLE', 'MULLIKEN_CHARGES')
f=open( 'psi4out.xyz', 'w' )
f.write( "15  " )
f.write( str(ee) + "\n" )
f.write( MOL.save_string_xyz() )
f.close()
--------------------------------------------------------------------------

    Molecular point group: c1
  Charge       = 0
  Multiplicity = 1
  Basis Set: CC-PVTZ
  Basis Set:
  @DF-RHF Final Energy:  -232.23473020359046
    Total Energy =                       -232.2347302035905159
    Molecular point group: c1
  Basis Set: CC-PVTZ
  Basis Set:
  Basis Set: CC-PVTZ
  Basis Set:
  @DF-RHF Final Energy:  -232.23567026084839
    Total Energy =                       -232.2356702608485080
  Basis Set: CC-PVTZ
  Basis Set:
  Basis Set: CC-PVTZ
  Basis Set:
  @DF-RHF Final Energy:  -232.23597571512428
    Total Energy =                       -232.2359757151241979
  Basis Set: CC-PVTZ
  Basis Set:
  Basis Set: CC-PVTZ
  Basis Set:
  @DF-RHF Final Energy:  -232.23600003515665
    Total Energy =                       -232.2360000351567919
  Basis Set: CC-PVTZ
  Basis Set:
  Basis Set: CC-PVTZ
  Basis Set:
  @DF-RHF Final Energy:  -232.23600367887121
    Total Energy =                       -232.2360036788711000
  Basis Set: CC-PVTZ
  Basis Set:
  Charge       = 0
  Multiplicity = 1
  Basis Set: CC-PVTZ
  Basis Set:

    Orbital Energies (a.u.)
    -----------------------

    Doubly Occupied:

       1A    -20.547450     2A    -11.266877     3A    -11.211845
       4A    -11.209571     5A    -11.193691     6A     -1.365417
       7A     -1.063283     8A     -0.972098     9A     -0.861224
      10A     -0.780748    11A     -0.707843    12A     -0.646552
      13A     -0.604261    14A     -0.583874    15A     -0.550212
      16A     -0.538670    17A     -0.510015    18A     -0.470255
      19A     -0.468585    20A     -0.452091    21A     -0.431482

  @DF-RHF Final Energy:  -232.23600383164560

   => Energetics <=

    Nuclear Repulsion Energy =            192.2366019417575842
    One-Electron Energy =                -696.0731245330091497
    Two-Electron Energy =                 271.6005187596059613
    DFT Exchange-Correlation Energy =       0.0000000000000000
    Empirical Dispersion Energy =           0.0000000000000000
    PCM Polarization Energy =               0.0000000000000000
    EFP Energy =                            0.0000000000000000
    Total Energy =                       -232.2360038316455757
    Molecular point group: c1
  Basis Set: CC-PVTZ
  Basis Set:

  -Total Gradient:
     Atom            X                  Y                   Z
    ------   -----------------  -----------------  -----------------
       1        0.000012314631     0.000003707490    -0.000008373620
       2        0.000001967767    -0.000011776244    -0.000029103808
       3        0.000001390760     0.000024144751     0.000022480365
       4        0.000503544721    -0.000101702609    -0.000789236291
       5        0.000004159144     0.000003076690     0.000002327812
       6       -0.000011153599     0.000000076660     0.000000736131
       7        0.000072687345    -0.000665622052     0.000651961719
       8       -0.000424927231     0.000157061166     0.000581728584
       9       -0.000009858718     0.000009472068     0.000002275237
      10       -0.000001371139    -0.000012040076    -0.000018592994
      11       -0.000138411291     0.000570231189    -0.000435619020
      12       -0.000012574440    -0.000000371008     0.000000418145
      13        0.000002388737     0.000008137679    -0.000000781923
      14        0.000008112382     0.000002233108     0.000001509163
      15       -0.000008269074     0.000013371186     0.000018270501

  **** Optimization is complete! (in 6 steps) ****
    Final optimized geometry and variables:
    Molecular point group: c1

    Geometry (in Angstrom), charge = 0, multiplicity = 1:

    H           -0.429779131177     1.631625561083     1.945670604779
    O           -0.187860523054     0.880940789512     1.435639157677
    C            0.521572197403     1.285222993844     0.293312346290
    C            0.922620899500     0.075770077808    -0.532096973103
    H            1.417737894814     1.828194037464     0.583696578674
    H           -0.086071775895     1.955113272360    -0.311988791541
    C           -0.230610580387    -0.698797486232    -1.181276168019
    H            1.509862437852    -0.588842158656     0.094547452396
    H            1.585123472082     0.438621796913    -1.312609458828
    C           -0.948882060079    -1.685738929904    -0.264273488653
    H            0.164248163875    -1.240997487586    -2.035066163144
    H           -0.949298403326     0.008847867267    -1.587017872475
    H           -1.722999409795    -2.215826112515    -0.808680218597
    H           -0.255087994315    -2.424703138072     0.123546854450
    H           -1.403995413515    -1.186047997700     0.578345523814

  Mulliken Charges: (a.u.)
   Center  Symbol    Alpha    Beta     Spin     Total
       1     H     0.39656  0.39656  0.00000  0.20688
       2     O     4.19646  4.19646  0.00000 -0.39292
       3     C     2.97169  2.97169  0.00000  0.05663
       4     C     3.09537  3.09537  0.00000 -0.19075
       5     H     0.46567  0.46567  0.00000  0.06867
       6     H     0.47470  0.47470  0.00000  0.05060
       7     C     3.08507  3.08507  0.00000 -0.17014
       8     H     0.45286  0.45286  0.00000  0.09429
       9     H     0.44883  0.44883  0.00000  0.10235
      10     C     3.14499  3.14499  0.00000 -0.28998
      11     H     0.45084  0.45084  0.00000  0.09831
      12     H     0.45879  0.45879  0.00000  0.08242
      13     H     0.45335  0.45335  0.00000  0.09331
      14     H     0.45888  0.45888  0.00000  0.08225
      15     H     0.44596  0.44596  0.00000  0.10808

   Total alpha = 21.00000, Total beta = 21.00000, Total charge =  0.00000

*** Psi4 exiting successfully. Buy a developer a beer!
