  ==> Input File <==

--------------------------------------------------------------------------
set {
	reference rhf
	basis 6-31G*
}

set_num_threads( 4 )
memory 2 gb

molecule MOL {
0 1

H	 -3.135461	 -1.215070	 0.001379
O	 -2.310168	 -0.871793	 -0.309793
C	 -2.026376	 0.340750	 0.341611
C	 -0.673256	 0.843270	 -0.132153
H	 -2.792215	 1.080697	 0.115987
H	 -2.013526	 0.200402	 1.421792
C	 0.486613	 -0.083066	 0.235839
H	 -0.715586	 0.970948	 -1.210718
H	 -0.508072	 1.829858	 0.297090
C	 1.840406	 0.433480	 -0.254303
H	 0.300215	 -1.068318	 -0.178947
H	 0.519509	 -0.203625	 1.318070
C	 2.800948	 0.762959	 0.887833
H	 2.295492	 -0.311452	 -0.903681
H	 1.690783	 1.320766	 -0.866495
H	 2.997903	 -0.113692	 1.498228
H	 3.752799	 1.124480	 0.510701
H	 2.389384	 1.530748	 1.537161

	symmetry c1
}
set optking {
	frozen_dihedral = ("
		14 10 7 11
	")
}

ee = optimize('scf')
oeprop('DIPOLE', 'QUADRUPOLE', 'MULLIKEN_CHARGES')
f=open( 'psi4out.xyz', 'w' )
f.write( "18  " )
f.write( str(ee) + "\n" )
f.write( MOL.save_string_xyz() )
f.close()
--------------------------------------------------------------------------

    Molecular point group: c1
  Charge       = 0
  Multiplicity = 1
  Basis Set: 6-31G*
  Basis Set:
  @DF-RHF Final Energy:  -271.17401486197133
    Total Energy =                       -271.1740148619711590
    Molecular point group: c1
  Basis Set: 6-31G*
  Basis Set:
  Basis Set: 6-31G*
  Basis Set:
  @DF-RHF Final Energy:  -271.17426242056740
    Total Energy =                       -271.1742624205670609
  Basis Set: 6-31G*
  Basis Set:
  Basis Set: 6-31G*
  Basis Set:
  @DF-RHF Final Energy:  -271.17434680084710
    Total Energy =                       -271.1743468008470472
  Basis Set: 6-31G*
  Basis Set:
  Basis Set: 6-31G*
  Basis Set:
  @DF-RHF Final Energy:  -271.17434569407590
    Total Energy =                       -271.1743456940761803
  Basis Set: 6-31G*
  Basis Set:
  Basis Set: 6-31G*
  Basis Set:
  @DF-RHF Final Energy:  -271.17434784640318
    Total Energy =                       -271.1743478464031796
  Basis Set: 6-31G*
  Basis Set:
  Charge       = 0
  Multiplicity = 1
  Basis Set: 6-31G*
  Basis Set:

    Orbital Energies (a.u.)
    -----------------------

    Doubly Occupied:

       1A    -20.553058     2A    -11.267825     3A    -11.212434
       4A    -11.210479     5A    -11.206060     6A    -11.205921
       7A     -1.359729     8A     -1.072574     9A     -1.007861
      10A     -0.912859    11A     -0.820873    12A     -0.782517
      13A     -0.705054    14A     -0.637334    15A     -0.616710
      16A     -0.596955    17A     -0.571285    18A     -0.549831
      19A     -0.519764    20A     -0.505019    21A     -0.493085
      22A     -0.464817    23A     -0.452102    24A     -0.447222
      25A     -0.428370

  @DF-RHF Final Energy:  -271.17434788021001

   => Energetics <=

    Nuclear Repulsion Energy =            249.3379788724403454
    One-Electron Energy =                -861.8251840614959747
    Two-Electron Energy =                 341.3128573088458779
    DFT Exchange-Correlation Energy =       0.0000000000000000
    Empirical Dispersion Energy =           0.0000000000000000
    PCM Polarization Energy =               0.0000000000000000
    EFP Energy =                            0.0000000000000000
    Total Energy =                       -271.1743478802097798
    Molecular point group: c1
  Basis Set: 6-31G*
  Basis Set:

  -Total Gradient:
     Atom            X                  Y                   Z
    ------   -----------------  -----------------  -----------------
       1        0.000001710800     0.000001438104     0.000001315100
       2        0.000006376467    -0.000007587622    -0.000002798687
       3       -0.000009406876     0.000005497266    -0.000005282519
       4        0.000005328751    -0.000002648036     0.000009179126
       5       -0.000000374881     0.000004883111     0.000002771579
       6        0.000004822520     0.000001949539    -0.000002086093
       7       -0.000542450453     0.000532669792    -0.001004046462
       8       -0.000004721150    -0.000007326442     0.000004905163
       9        0.000003225075    -0.000000385279    -0.000001707835
      10        0.000535168525    -0.000522274594     0.001005324923
      11        0.000369455796    -0.000363352711     0.000664481205
      12       -0.000001593872     0.000001935592     0.000001007732
      13        0.000002014161    -0.000002022299    -0.000003707482
      14       -0.000367120474     0.000356011559    -0.000667713530
      15       -0.000001181689     0.000002487365     0.000002406190
      16       -0.000005269330     0.000002138575     0.000001025131
      17        0.000003610334    -0.000003661712     0.000001468288
      18        0.000000406298     0.000000247793    -0.000006541826

  **** Optimization is complete! (in 6 steps) ****
    Final optimized geometry and variables:
    Molecular point group: c1

    Geometry (in Angstrom), charge = 0, multiplicity = 1:

    H           -3.114700939089    -1.419325282936    -0.109354838055
    O           -2.289263666843    -1.082977618947    -0.427653177064
    C           -1.994099897870     0.131810169524     0.214582935312
    C           -0.642627386105     0.624701108526    -0.272804687089
    H           -2.758014366510     0.874442621188    -0.009016189790
    H           -1.973179420784    -0.002442607666     1.295456818385
    C            0.516468024911    -0.307334026211     0.086830076763
    H           -0.692417010215     0.750141768037    -1.351201440473
    H           -0.466362244269     1.611365724758     0.152545600187
    C            1.891141440053     0.218200543596    -0.385578017156
    H            0.321963848111    -1.287411408712    -0.331841459811
    H            0.531948358261    -0.442686755289     1.166890268248
    C            2.842222824738     0.557003215680     0.762698639791
    H            2.363111614040    -0.512340908402    -1.036113286308
    H            1.751948682182     1.106250566498    -0.997584030687
    H            3.051921715078    -0.319953963339     1.368514066668
    H            3.789075643179     0.938494184057     0.392347394345
    H            2.413186154826     1.312611829074     1.415578286219

  Mulliken Charges: (a.u.)
   Center  Symbol    Alpha    Beta     Spin     Total
       1     H     0.28057  0.28057  0.00000  0.43886
       2     O     4.36965  4.36965  0.00000 -0.73930
       3     C     2.99777  2.99777  0.00000  0.00445
       4     C     3.16196  3.16196  0.00000 -0.32392
       5     H     0.42927  0.42927  0.00000  0.14145
       6     H     0.43258  0.43258  0.00000  0.13483
       7     C     3.15795  3.15795  0.00000 -0.31589
       8     H     0.41453  0.41453  0.00000  0.17095
       9     H     0.42419  0.42419  0.00000  0.15161
      10     C     3.15550  3.15550  0.00000 -0.31101
      11     H     0.40483  0.40483  0.00000  0.19034
      12     H     0.42485  0.42485  0.00000  0.15030
      13     C     3.23927  3.23927  0.00000 -0.47854
      14     H     0.41939  0.41939  0.00000  0.16122
      15     H     0.42151  0.42151  0.00000  0.15698
      16     H     0.42146  0.42146  0.00000  0.15709
      17     H     0.42114  0.42114  0.00000  0.15773
      18     H     0.42358  0.42358  0.00000  0.15285

   Total alpha = 25.00000, Total beta = 25.00000, Total charge =  0.00000
