  ==> Input File <==

--------------------------------------------------------------------------
set {
	reference rhf
	basis 6-31G*
}

set_num_threads( 1 )
memory 2 gb

molecule MOL {
0 1

H	 -2.646374	 -0.642757	 1.268656
C	 -2.083525	 -0.384536	 0.393091
O	 -0.807605	 -0.127164	 0.768327
F	 -2.118945	 -1.383102	 -0.486752
F	 -2.621877	 0.670592	 -0.209486
C	 0.196576	 -0.897374	 0.210578
C	 1.108927	 -1.331748	 1.350356
Cl	 1.104144	 0.027063	 -0.997292
H	 -0.184689	 -1.779913	 -0.272678
F	 2.087551	 -2.084379	 0.894306
F	 0.407168	 -2.047360	 2.206436
F	 1.624585	 -0.309483	 1.988356

	symmetry c1
}
set optking {
	frozen_dihedral = ("
		10 7 6 9,
		9 6 3 2
	")
}

ee = energy('scf')
oeprop('DIPOLE', 'QUADRUPOLE', 'MULLIKEN_CHARGES')
f=open( 'psi4out.xyz', 'w' )
f.write( "12  " )
f.write( str(ee) + "\n" )
f.write( MOL.save_string_xyz() )
f.close()
--------------------------------------------------------------------------

    Molecular point group: c1

    Geometry (in Angstrom), charge = 0, multiplicity = 1:

       Center              X                  Y                   Z               Mass
    ------------   -----------------  -----------------  -----------------  -----------------
           H         -2.655591442559     0.079125820942     0.804863533606     1.007825032070
           C         -2.092742442559     0.337346820942    -0.070701466394    12.000000000000
           O         -0.816822442559     0.594718820942     0.304534533606    15.994914619560
           F         -2.128162442559    -0.661219179058    -0.950544466394    18.998403224000
           F         -2.631094442559     1.392474820942    -0.673278466394    18.998403224000
           C          0.187358557441    -0.175491179058    -0.253214466394    12.000000000000
           C          1.099709557441    -0.609865179058     0.886563533606    12.000000000000
          CL          1.094926557441     0.748945820942    -1.461084466394    34.968852682000
           H         -0.193906442559    -1.058030179058    -0.736470466394     1.007825032070
           F          2.078333557441    -1.362496179058     0.430513533606    18.998403224000
           F          0.397950557441    -1.325477179058     1.742643533606    18.998403224000
           F          1.615367557441     0.412399820942     1.524563533606    18.998403224000

  Charge       = 0
  Multiplicity = 1
  Basis Set: 6-31G*
  Basis Set:

    Orbital Energies (a.u.)
    -----------------------

    Doubly Occupied:

       1A   -104.842640     2A    -26.363013     3A    -26.361324
       4A    -26.358413     5A    -26.357891     6A    -26.340642
       7A    -20.649136     8A    -11.528166     9A    -11.491661
      10A    -11.398792    11A    -10.577394    12A     -8.046744
      13A     -8.043229    14A     -8.043117    15A     -1.763001
      16A     -1.721778    17A     -1.659747    18A     -1.658102
      19A     -1.640899    20A     -1.486934    21A     -1.179296
      22A     -1.051659    23A     -0.987835    24A     -0.920982
      25A     -0.862492    26A     -0.852048    27A     -0.848602
      28A     -0.825996    29A     -0.823933    30A     -0.793569
      31A     -0.729584    32A     -0.727813    33A     -0.703322
      34A     -0.696315    35A     -0.681468    36A     -0.676593
      37A     -0.662093    38A     -0.660034    39A     -0.643297
      40A     -0.633593    41A     -0.606104    42A     -0.583987
      43A     -0.516134    44A     -0.474923    45A     -0.467557

  @DF-RHF Final Energy: -1146.30581811409593

   => Energetics <=

    Nuclear Repulsion Energy =            734.2229639523294509
    One-Electron Energy =               -3051.1735936278701047
    Two-Electron Energy =                1170.6448115614452945
    DFT Exchange-Correlation Energy =       0.0000000000000000
    Empirical Dispersion Energy =           0.0000000000000000
    PCM Polarization Energy =               0.0000000000000000
    EFP Energy =                            0.0000000000000000
    Total Energy =                      -1146.3058181140954730

  Mulliken Charges: (a.u.)
   Center  Symbol    Alpha    Beta     Spin     Total
       1     H     0.40925  0.40925  0.00000  0.18150
       2     C     2.56225  2.56225  0.00000  0.87549
       3     O     4.30372  4.30372  0.00000 -0.60744
       4     F     4.68545  4.68545  0.00000 -0.37090
       5     F     4.67552  4.67552  0.00000 -0.35104
       6     C     3.04974  3.04974  0.00000 -0.09948
       7     C     2.43280  2.43280  0.00000  1.13440
       8    CL     8.50135  8.50135  0.00000 -0.00270
       9     H     0.35888  0.35888  0.00000  0.28224
      10     F     4.67396  4.67396  0.00000 -0.34792
      11     F     4.67865  4.67865  0.00000 -0.35731
      12     F     4.66842  4.66842  0.00000 -0.33684

   Total alpha = 45.00000, Total beta = 45.00000, Total charge =  0.00000
