  ==> Input File <==

--------------------------------------------------------------------------
set {
	reference rhf
	basis cc-pvtz
}

set_num_threads( 4 )
memory 2 gb

molecule MOL {
0 1

H	 -2.301417	 1.107704	 -1.795892
N	 -1.323600	 1.057764	 -1.604973
C	 -0.775518	 -0.219110	 -2.023712
H	 -1.201665	 1.175851	 -0.621518
C	 0.703636	 -0.286187	 -1.719981
H	 -1.261544	 -1.073927	 -1.555086
H	 -0.906111	 -0.318175	 -3.095711
O	 0.881195	 -0.248324	 -0.336237
H	 1.122923	 -1.205771	 -2.125857
H	 1.211083	 0.554971	 -2.186756
C	 2.208068	 -0.234417	 0.074171
H	 2.725499	 -1.027054	 -0.446768
H	 2.688377	 0.712084	 -0.164856
H	 2.295137	 -0.403407	 1.144883

	symmetry c1
}
set optking {
	frozen_dihedral = ("
		5 8 11 13
	")
}

ee = optimize('scf')
oeprop('DIPOLE', 'QUADRUPOLE', 'MULLIKEN_CHARGES')
f=open( 'psi4out.xyz', 'w' )
f.write( "14  " )
f.write( str(ee) + "\n" )
f.write( MOL.save_string_xyz() )
f.close()
--------------------------------------------------------------------------

    Molecular point group: c1
  Charge       = 0
  Multiplicity = 1
  Basis Set: CC-PVTZ
  Basis Set:
  @DF-RHF Final Energy:  -248.22496029037737
    Total Energy =                       -248.2249602903774530
    Molecular point group: c1
  Basis Set: CC-PVTZ
  Basis Set:
  Basis Set: CC-PVTZ
  Basis Set:
  @DF-RHF Final Energy:  -248.22579010875546
    Total Energy =                       -248.2257901087554046
  Basis Set: CC-PVTZ
  Basis Set:
  Basis Set: CC-PVTZ
  Basis Set:
  @DF-RHF Final Energy:  -248.22599357900862
    Total Energy =                       -248.2259935790087297
  Basis Set: CC-PVTZ
  Basis Set:
  Charge       = 0
  Multiplicity = 1
  Basis Set: CC-PVTZ
  Basis Set:

    Orbital Energies (a.u.)
    -----------------------

    Doubly Occupied:

       1A    -20.550568     2A    -15.523575     3A    -11.263929
       4A    -11.263558     5A    -11.239869     6A     -1.384415
       7A     -1.176039     8A     -1.000621     9A     -0.907622
      10A     -0.815720    11A     -0.685698    12A     -0.675922
      13A     -0.646908    14A     -0.612505    15A     -0.607392
      16A     -0.542087    17A     -0.531071    18A     -0.497612
      19A     -0.474492    20A     -0.419970    21A     -0.383937

  @DF-RHF Final Energy:  -248.22599453476639

   => Energetics <=

    Nuclear Repulsion Energy =            194.6901794879188117
    One-Electron Energy =                -723.4253187970141425
    Two-Electron Energy =                 280.5091447743288313
    DFT Exchange-Correlation Energy =       0.0000000000000000
    Empirical Dispersion Energy =           0.0000000000000000
    PCM Polarization Energy =               0.0000000000000000
    EFP Energy =                            0.0000000000000000
    Total Energy =                       -248.2259945347664711
    Molecular point group: c1
  Basis Set: CC-PVTZ
  Basis Set:

  -Total Gradient:
     Atom            X                  Y                   Z
    ------   -----------------  -----------------  -----------------
       1       -0.000004454446     0.000001912641    -0.000002705662
       2       -0.000009363842     0.000017413337    -0.000015088512
       3       -0.000000650422    -0.000034447461     0.000149048551
       4        0.000009765721    -0.000002695356    -0.000009215294
       5        0.000134034168    -0.000921265559    -0.000044385851
       6       -0.000042346213    -0.000023946019    -0.000005837433
       7        0.000058219639     0.000000725014     0.000030265154
       8       -0.000126147724     0.001567824906     0.000299548806
       9       -0.000008390417    -0.000008575239     0.000036248701
      10        0.000016993991     0.000004413439    -0.000020427031
      11        0.000466086427    -0.001070004043    -0.001532578262
      12       -0.000016948440    -0.000008956690    -0.000015706555
      13       -0.000428980420     0.000471451760     0.001127337713
      14       -0.000047818020     0.000006149269     0.000003495676

  **** Optimization is complete! (in 4 steps) ****
    Final optimized geometry and variables:
    Molecular point group: c1

    Geometry (in Angstrom), charge = 0, multiplicity = 1:

    H           -2.643692080051     1.094097194484    -0.676718490562
    N           -1.665189570384     1.041624346299    -0.490094691359
    C           -1.120839601355    -0.234171742913    -0.916847798503
    H           -1.539223765154     1.154962425791     0.493392466712
    C            0.359805179388    -0.304478832627    -0.621341819384
    H           -1.605341572731    -1.090375730620    -0.449039903425
    H           -1.257046208427    -0.328998456198    -1.988520501030
    O            0.543620429711    -0.275396380083     0.761853458627
    H            0.776313319431    -1.222432504926    -1.033141543401
    H            0.865340580562     0.538601571669    -1.087043678701
    C            1.872217570512    -0.257988474348     1.167402370028
    H            2.442839070570    -1.058353701071     0.702248303733
    H            2.346204986618     0.692197769791     0.932996305505
    H            1.893014722197    -0.396206992529     2.239107334093

  Mulliken Charges: (a.u.)
   Center  Symbol    Alpha    Beta     Spin     Total
       1     H     0.43022  0.43022  0.00000  0.13956
       2     N     3.69418  3.69418  0.00000 -0.38836
       3     C     3.02218  3.02218  0.00000 -0.04435
       4     H     0.42249  0.42249  0.00000  0.15503
       5     C     2.96916  2.96916  0.00000  0.06169
       6     H     0.46457  0.46457  0.00000  0.07085
       7     H     0.45871  0.45871  0.00000  0.08259
       8     O     4.18016  4.18016  0.00000 -0.36033
       9     H     0.46895  0.46895  0.00000  0.06210
      10     H     0.46934  0.46934  0.00000  0.06133
      11     C     3.03176  3.03176  0.00000 -0.06352
      12     H     0.47222  0.47222  0.00000  0.05555
      13     H     0.46777  0.46777  0.00000  0.06446
      14     H     0.44830  0.44830  0.00000  0.10339

   Total alpha = 21.00000, Total beta = 21.00000, Total charge = -0.00000
