  ==> Input File <==

--------------------------------------------------------------------------
set {
	reference rhf
	basis 6-31G*
}

set_num_threads( 4 )
memory 2 gb

molecule MOL {
0 1

H	 -2.365627	 -1.312883	 -0.379134
C	 -1.358347	 -1.274295	 0.019669
C	 -0.681945	 0.000119	 -0.470601
H	 -0.826096	 -2.155117	 -0.321105
H	 -1.409554	 -1.292283	 1.100109
C	 -1.357790	 1.274691	 0.020220
N	 0.739525	 -0.000142	 0.006128
H	 -0.594190	 0.000341	 -1.545128
H	 -2.364980	 1.313977	 -0.378631
H	 -0.825080	 2.155361	 -0.320114
H	 -1.409060	 1.292170	 1.100671
O	 1.045052	 0.809620	 0.825592
O	 1.475761	 -0.812744	 -0.466136

	symmetry c1
}
set optking {
	frozen_dihedral = ("
		12 7 3 8
	")
}

ee = optimize('scf')
oeprop('DIPOLE', 'QUADRUPOLE', 'MULLIKEN_CHARGES')
f=open( 'psi4out.xyz', 'w' )
f.write( "13  " )
f.write( str(ee) + "\n" )
f.write( MOL.save_string_xyz() )
f.close()
--------------------------------------------------------------------------

    Molecular point group: c1
  Charge       = 0
  Multiplicity = 1
  Basis Set: 6-31G*
  Basis Set:
  @DF-RHF Final Energy:  -321.73743460171255
    Total Energy =                       -321.7374346017124935
    Molecular point group: c1
  Basis Set: 6-31G*
  Basis Set:
  Basis Set: 6-31G*
  Basis Set:
  @DF-RHF Final Energy:  -321.73764995164231
    Total Energy =                       -321.7376499516421973
  Basis Set: 6-31G*
  Basis Set:
  Basis Set: 6-31G*
  Basis Set:
  @DF-RHF Final Energy:  -321.73816650563373
    Total Energy =                       -321.7381665056340125
  Basis Set: 6-31G*
  Basis Set:
  Basis Set: 6-31G*
  Basis Set:
  @DF-RHF Final Energy:  -321.73825978805661
    Total Energy =                       -321.7382597880563253
  Basis Set: 6-31G*
  Basis Set:
  Basis Set: 6-31G*
  Basis Set:
  @DF-RHF Final Energy:  -321.73825970676182
    Total Energy =                       -321.7382597067617667
  Basis Set: 6-31G*
  Basis Set:
  Basis Set: 6-31G*
  Basis Set:
  @DF-RHF Final Energy:  -321.73827438495454
    Total Energy =                       -321.7382743849547069
  Basis Set: 6-31G*
  Basis Set:
  Basis Set: 6-31G*
  Basis Set:
  @DF-RHF Final Energy:  -321.73827804574370
    Total Energy =                       -321.7382780457438116
  Basis Set: 6-31G*
  Basis Set:
  Charge       = 0
  Multiplicity = 1
  Basis Set: 6-31G*
  Basis Set:

    Orbital Energies (a.u.)
    -----------------------

    Doubly Occupied:

       1A    -20.602541     2A    -20.596480     3A    -15.843882
       4A    -11.307338     5A    -11.246778     6A    -11.240593
       7A     -1.629132     8A     -1.414384     9A     -1.142602
      10A     -0.971136    11A     -0.958473    12A     -0.813235
      13A     -0.757805    14A     -0.725640    15A     -0.721370
      16A     -0.644566    17A     -0.592963    18A     -0.587707
      19A     -0.571632    20A     -0.527194    21A     -0.521921
      22A     -0.481487    23A     -0.471155    24A     -0.446731

  @DF-RHF Final Energy:  -321.73827856935986

   => Energetics <=

    Nuclear Repulsion Energy =            256.7817377130550085
    One-Electron Energy =                -947.4065404529223997
    Two-Electron Energy =                 368.8865241705074709
    DFT Exchange-Correlation Energy =       0.0000000000000000
    Empirical Dispersion Energy =           0.0000000000000000
    PCM Polarization Energy =               0.0000000000000000
    EFP Energy =                            0.0000000000000000
    Total Energy =                       -321.7382785693599203
    Molecular point group: c1
  Basis Set: 6-31G*
  Basis Set:

  -Total Gradient:
     Atom            X                  Y                   Z
    ------   -----------------  -----------------  -----------------
       1        0.000007548254    -0.000004008092    -0.000022428509
       2       -0.000005312143    -0.000000500416     0.000026671489
       3        0.000078008538    -0.000874446294    -0.000254787851
       4        0.000011015104    -0.000007456674     0.000003323649
       5       -0.000014673467     0.000006226233    -0.000005085870
       6       -0.000000662412     0.000006213272     0.000010659244
       7       -0.000303708666    -0.000684099743     0.000933244111
       8        0.000015565765     0.000951049349     0.000004651728
       9       -0.000005062567     0.000007657642     0.000005990798
      10       -0.000006845466     0.000006912949    -0.000003146701
      11        0.000009043594    -0.000008616999    -0.000010409940
      12        0.000224029487     0.000619585411    -0.000683697340
      13       -0.000008946023    -0.000018516638    -0.000004984810

  **** Optimization is complete! (in 8 steps) ****
    Final optimized geometry and variables:
    Molecular point group: c1

    Geometry (in Angstrom), charge = 0, multiplicity = 1:

    H           -2.370707357994    -1.285967117825    -0.356689628793
    C           -1.354947169755    -1.258272135413     0.019845156995
    C           -0.684070481968     0.028525557404    -0.454358498690
    H           -0.826167308184    -2.128633836375    -0.342485351282
    H           -1.392965142670    -1.292671967950     1.103303159068
    C           -1.386403903810     1.291270410272     0.013817766684
    N            0.745512761558    -0.002207434188     0.012388989390
    H           -0.589980803759     0.021445087049    -1.531079244113
    H           -2.383988859469     1.303694107596    -0.411666312888
    H           -0.864139157183     2.180792719993    -0.312544746855
    H           -1.469259738129     1.320446869905     1.091998324796
    O            1.101652533375     0.792942839792     0.824601405670
    O            1.439170196955    -0.844672593411    -0.471991380537

  Mulliken Charges: (a.u.)
   Center  Symbol    Alpha    Beta     Spin     Total
       1     H     0.40712  0.40712  0.00000  0.18575
       2     C     3.24993  3.24993  0.00000 -0.49986
       3     C     3.02452  3.02452  0.00000 -0.04905
       4     H     0.39225  0.39225  0.00000  0.21550
       5     H     0.40561  0.40561  0.00000  0.18877
       6     C     3.24215  3.24215  0.00000 -0.48431
       7     N     3.21803  3.21803  0.00000  0.56395
       8     H     0.38659  0.38659  0.00000  0.22682
       9     H     0.41244  0.41244  0.00000  0.17512
      10     H     0.40133  0.40133  0.00000  0.19734
      11     H     0.40179  0.40179  0.00000  0.19642
      12     O     4.22749  4.22749  0.00000 -0.45498
      13     O     4.23074  4.23074  0.00000 -0.46148

   Total alpha = 24.00000, Total beta = 24.00000, Total charge =  0.00000
