                              Psi4 1.0.54 Driver

  ==> Input File <==

--------------------------------------------------------------------------
set {
	reference rhf
	basis cc-pvtz
}

set_num_threads( 4 )
memory 2 gb

molecule MOL {
0 1

O	 -0.294688	 1.318815	 -0.000872
C	 -0.448732	 0.145721	 -0.000187
C	 -1.780748	 -0.548101	 0.000195
O	 0.550743	 -0.719877	 0.000412
H	 -1.859389	 -1.183260	 -0.872613
H	 -2.570236	 0.185547	 -0.001342
H	 -1.860233	 -1.180337	 0.875064
C	 1.040368	 -1.143262	 1.257424
H	 1.413406	 -0.302646	 1.823318
H	 1.839539	 -1.835304	 1.047453
H	 0.262038	 -1.632417	 1.823949

	symmetry c1
}
set optking {
	frozen_dihedral = ("
		8 4 2 1
	")
}

ee,wfn = optimize('scf', return_wfn=True)
oeprop( wfn, 'DIPOLE', 'QUADRUPOLE', 'MULLIKEN_CHARGES')
f=open( 'psi4out.xyz', 'w' )
f.write( "11  " )
f.write( str(ee) + "\n" )
f.write( MOL.save_string_xyz() )
f.close()
--------------------------------------------------------------------------

    Molecular point group: c1
  Charge       = 0
  Multiplicity = 1
  Basis Set: CC-PVTZ
  Basis Set:
  @DF-RHF Final Energy:  -266.91806668240247
    Total Energy =                       -266.9180666824024115
    Molecular point group: c1
  Basis Set: CC-PVTZ
  Basis Set:
  Basis Set: CC-PVTZ
  Basis Set:
  @DF-RHF Final Energy:  -266.67778666191873
    Total Energy =                       -266.6777866619186170
  Basis Set: CC-PVTZ
  Basis Set:
  Basis Set: CC-PVTZ
  Basis Set:
  @DF-RHF Final Energy:  -266.81016122044002
    Total Energy =                       -266.8101612204400226
  Basis Set: CC-PVTZ
  Basis Set:
  Basis Set: CC-PVTZ
  Basis Set:
  @DF-RHF Final Energy:  -266.66031150389006
    Total Energy =                       -266.6603115038900569
  Basis Set: CC-PVTZ
  Basis Set:
  @DF-RHF Final Energy:  -266.66848896377923
    Total Energy =                       -266.6684889637791116
  @DF-RHF Final Energy:  -266.73566842463680
    Total Energy =                       -266.7356684246369127
  @DF-RHF Final Energy:  -266.56054407004899
    Total Energy =                       -266.5605440700493318
  @DF-RHF Final Energy:  -266.59633099408154
    Total Energy =                       -266.5963309940816544
  @DF-RHF Final Energy:  -266.65014679721639
    Total Energy =                       -266.6501467972167347
  @DF-RHF Final Energy:  -266.60503585090987
    Total Energy =                       -266.6050358509098146
  @DF-RHF Final Energy:  -266.74582328405393
    Total Energy =                       -266.7458232840538130
  @DF-RHF Final Energy:  -266.62032297322321
    Total Energy =                       -266.6203229732232103
  @DF-RHF Final Energy:  -266.69367659135855
    Total Energy =                       -266.6936765913585532
  @DF-RHF Final Energy:  -266.60077868532380
    Total Energy =                       -266.6007786853238031
  @DF-RHF Final Energy:  -266.66407978224015
    Total Energy =                       -266.6640797822401510
  @DF-RHF Final Energy:  -266.64398059174653
    Total Energy =                       -266.6439805917466970
  @DF-RHF Final Energy:  -266.62590874594264
    Total Energy =                       -266.6259087459425245
  @DF-RHF Final Energy:  -266.60651004299712
    Total Energy =                       -266.6065100429972290
  @DF-RHF Final Energy:  -266.58327297904589
    Total Energy =                       -266.5832729790458870
  @DF-RHF Final Energy:  -266.54423619917452
    Total Energy =                       -266.5442361991744065
  @DF-RHF Final Energy:  -266.91412280706822
    Total Energy =                       -266.9141228070683951
  @DF-RHF Final Energy:  -266.84403866664144
    Total Energy =                       -266.8440386666416089
  @DF-RHF Final Energy:  -266.83554412805256
    Total Energy =                       -266.8355441280525042
  @DF-RHF Final Energy:  -266.85482165820918
    Total Energy =                       -266.8548216582089481
  @DF-RHF Final Energy:  -266.89230274145154
    Total Energy =                       -266.8923027414516582
  @DF-RHF Final Energy:  -266.91577239442142
    Total Energy =                       -266.9157723944214240
  @DF-RHF Final Energy:  -266.90626758287618
    Total Energy =                       -266.9062675828760121
  @DF-RHF Final Energy:  -266.91634164219704
    Total Energy =                       -266.9163416421972101
  @DF-RHF Final Energy:  -266.91784413683445
    Total Energy =                       -266.9178441368343329
  @DF-RHF Final Energy:  -266.91859798972206
    Total Energy =                       -266.9185979897220022
  @DF-RHF Final Energy:  -266.91880961821357
    Total Energy =                       -266.9188096182135723
  @DF-RHF Final Energy:  -266.91889936080668
    Total Energy =                       -266.9188993608066767
  @DF-RHF Final Energy:  -266.91908349616904
    Total Energy =                       -266.9190834961690371
  @DF-RHF Final Energy:  -266.91926345473428
    Total Energy =                       -266.9192634547343914
  @DF-RHF Final Energy:  -266.91940977190018
    Total Energy =                       -266.9194097719002343
  @DF-RHF Final Energy:  -266.91951946460972
    Total Energy =                       -266.9195194646096070
  Basis Set: CC-PVTZ
  Basis Set:
  @DF-RHF Final Energy:  -266.91958384898135
    Total Energy =                       -266.9195838489814037
  Basis Set: CC-PVTZ
  Basis Set:
  Basis Set: CC-PVTZ
  Basis Set:
  @DF-RHF Final Energy:  -266.91960515936489
    Total Energy =                       -266.9196051593648917
  Basis Set: CC-PVTZ
  Basis Set:
  Basis Set: CC-PVTZ
  Basis Set:
  @DF-RHF Final Energy:  -266.91961050971179
    Total Energy =                       -266.9196105097119016
  Basis Set: CC-PVTZ
  Basis Set:
  Charge       = 0
  Multiplicity = 1
  Basis Set: CC-PVTZ
  Basis Set:

    Orbital Energies (a.u.)
    -----------------------

    Doubly Occupied:

       1A    -20.580173     2A    -20.547679     3A    -11.372385
       4A    -11.290811     5A    -11.238062     6A     -1.463984
       7A     -1.372227     8A     -1.027616     9A     -0.964472
      10A     -0.780261    11A     -0.697186    12A     -0.687064
      13A     -0.671477    14A     -0.615185    15A     -0.590387
      16A     -0.579319    17A     -0.543000    18A     -0.499499
      19A     -0.463411    20A     -0.444805

  @DF-RHF Final Energy:  -266.91961072440711

   => Energetics <=

    Nuclear Repulsion Energy =            182.7445310506611804
    One-Electron Energy =                -726.4702866732125131
    Two-Electron Energy =                 276.8061448981442254
    DFT Exchange-Correlation Energy =       0.0000000000000000
    Empirical Dispersion Energy =           0.0000000000000000
    PCM Polarization Energy =               0.0000000000000000
    EFP Energy =                            0.0000000000000000
    Total Energy =                       -266.9196107244071072
    Molecular point group: c1
  Basis Set: CC-PVTZ
  Basis Set:

  -Total Gradient:
     Atom            X                  Y                   Z
    ------   -----------------  -----------------  -----------------
       1        0.002014621354    -0.001010256189    -0.001790705911
       2       -0.003598173786     0.000719512036     0.002257072626
       3       -0.000002910845    -0.000049864098     0.000032175379
       4        0.003022657353     0.001939719299     0.000223659259
       5       -0.000008875277     0.000033352528    -0.000001196538
       6        0.000009011013     0.000007620715    -0.000019703111
       7        0.000001220822     0.000002436219     0.000000905869
       8       -0.001424514143    -0.001649605959    -0.000727684165
       9        0.000003426565    -0.000001538893     0.000008605625
      10       -0.000002469709     0.000011442815     0.000015638679
      11       -0.000013993348    -0.000002818473     0.000001232286

  **** Optimization is complete! (in 43 steps) ****
    Final optimized geometry and variables:
    Molecular point group: c1

    Geometry (in Angstrom), charge = 0, multiplicity = 1:

    O            0.506231417774     1.319982450983    -0.585894400435
    C            0.076329148401     0.234712057706    -0.448713947420
    C           -0.930847983947    -0.404897299688    -1.362405320624
    O            0.522888481623    -0.587591299399     0.524835354963
    H           -0.467141752423    -1.254364189006    -1.848606830305
    H           -1.267752571730     0.305348152645    -2.100042589751
    H           -1.772974890061    -0.778125495521    -0.792964205136
    C           -0.145379064616    -0.528546928749     1.764374089618
    H           -0.071131683405     0.463136088317     2.191732611082
    H            0.341445176368    -1.237212387457     2.414212578087
    H           -1.189710897685    -0.802676975100     1.661306628420

  Mulliken Charges: (a.u.)
   Center  Symbol    Alpha    Beta     Spin     Total
       1     O     4.16767  4.16767  0.00000 -0.33534
       2     C     2.79842  2.79842  0.00000  0.40316
       3     C     3.14069  3.14069  0.00000 -0.28138
       4     O     4.16589  4.16589  0.00000 -0.33178
       5     H     0.44349  0.44349  0.00000  0.11301
       6     H     0.43728  0.43728  0.00000  0.12543
       7     H     0.45101  0.45101  0.00000  0.09798
       8     C     3.02979  3.02979  0.00000 -0.05957
       9     H     0.45427  0.45427  0.00000  0.09146
      10     H     0.44338  0.44338  0.00000  0.11325
      11     H     0.46811  0.46811  0.00000  0.06378

   Total alpha = 20.00000, Total beta = 20.00000, Total charge = -0.00000

*** Psi4 exiting successfully. Buy a developer a beer!
