  ==> Input File <==

--------------------------------------------------------------------------
set {
	reference rhf
	basis 6-31G*
}

set_num_threads( 1 )
memory 2 gb

molecule MOL {
0 1

H	 2.591676	 2.013956	 0.335017
O	 3.341076	 1.666752	 -0.126416
C	 3.569581	 0.339145	 0.272707
C	 3.252316	 -0.679182	 -0.816825
H	 4.619973	 0.285392	 0.528562
H	 3.004924	 0.110171	 1.175764
C	 1.776538	 -0.718765	 -1.221028
H	 3.863227	 -0.454511	 -1.687272
H	 3.556320	 -1.662214	 -0.461020
C	 1.481108	 -1.787681	 -2.276943
H	 1.483874	 0.256412	 -1.600163
H	 1.164573	 -0.909096	 -0.339204
C	 0.002048	 -1.927602	 -2.655287
H	 2.063180	 -1.576942	 -3.172280
H	 1.833744	 -2.747641	 -1.905696
C	 -0.596184	 -0.716321	 -3.375978
H	 -0.105652	 -2.800257	 -3.296138
H	 -0.579826	 -2.137814	 -1.759145
C	 -2.040874	 -0.944013	 -3.825940
H	 0.015972	 -0.476824	 -4.244320
H	 -0.563389	 0.157510	 -2.729724
C	 -2.642557	 0.265879	 -4.539944
H	 -2.080441	 -1.808285	 -4.485452
H	 -2.652135	 -1.192982	 -2.960920
H	 -2.072015	 0.520316	 -5.428745
H	 -3.665522	 0.072752	 -4.847971
H	 -2.651468	 1.138852	 -3.893260

	symmetry c1
}
set optking {
	frozen_dihedral = ("
		14 10 7 4,
		14 10 13 16,
		10 7 4 8,
		8 4 3 2,
		10 13 16 20,
		20 16 19 22
	")
}

ee = energy('scf')
oeprop('DIPOLE', 'QUADRUPOLE', 'MULLIKEN_CHARGES')
f=open( 'psi4out.xyz', 'w' )
f.write( "27  " )
f.write( str(ee) + "\n" )
f.write( MOL.save_string_xyz() )
f.close()
--------------------------------------------------------------------------

    Molecular point group: c1

    Geometry (in Angstrom), charge = 0, multiplicity = 1:

       Center              X                  Y                   Z               Mass
    ------------   -----------------  -----------------  -----------------  -----------------
           H          1.662124858682     2.464730289589     2.366617441862     1.007825032070
           O          2.411524858682     2.117526289589     1.905184441862    15.994914619560
           C          2.640029858682     0.789919289589     2.304307441862    12.000000000000
           C          2.322764858682    -0.228407710411     1.214775441862    12.000000000000
           H          3.690421858682     0.736166289589     2.560162441862     1.007825032070
           H          2.075372858682     0.560945289589     3.207364441862     1.007825032070
           C          0.846986858682    -0.267990710411     0.810572441862    12.000000000000
           H          2.933675858682    -0.003736710411     0.344328441862     1.007825032070
           H          2.626768858682    -1.211439710411     1.570580441862     1.007825032070
           C          0.551556858682    -1.336906710411    -0.245342558138    12.000000000000
           H          0.554322858682     0.707186289589     0.431437441862     1.007825032070
           H          0.235021858682    -0.458321710411     1.692396441862     1.007825032070
           C         -0.927503141318    -1.476827710411    -0.623686558138    12.000000000000
           H          1.133628858682    -1.126167710411    -1.140679558138     1.007825032070
           H          0.904192858682    -2.296866710411     0.125904441862     1.007825032070
           C         -1.525735141318    -0.265546710411    -1.344377558138    12.000000000000
           H         -1.035203141318    -2.349482710411    -1.264537558138     1.007825032070
           H         -1.509377141318    -1.687039710411     0.272455441862     1.007825032070
           C         -2.970425141318    -0.493238710411    -1.794339558138    12.000000000000
           H         -0.913579141318    -0.026049710411    -2.212719558138     1.007825032070
           H         -1.492940141318     0.608284289589    -0.698123558138     1.007825032070
           C         -3.572108141318     0.716653289589    -2.508343558138    12.000000000000
           H         -3.009992141318    -1.357510710411    -2.453851558138     1.007825032070
           H         -3.581686141318    -0.742207710411    -0.929319558138     1.007825032070
           H         -3.001566141318     0.971090289589    -3.397144558138     1.007825032070
           H         -4.595073141318     0.523526289589    -2.816370558138     1.007825032070
           H         -3.581019141318     1.589626289589    -1.861659558138     1.007825032070

  Charge       = 0
  Multiplicity = 1
  Basis Set: 6-31G*
  Basis Set:

    Orbital Energies (a.u.)
    -----------------------

    Doubly Occupied:

       1A    -20.552138     2A    -11.267429     3A    -11.213711
       4A    -11.213176     5A    -11.212866     6A    -11.212451
       7A    -11.212203     8A    -11.211091     9A    -11.207386
      10A     -1.359201    11A     -1.091354    12A     -1.058427
      13A     -1.009371    14A     -0.945664    15A     -0.883760
      16A     -0.815600    17A     -0.797692    18A     -0.774049
      19A     -0.702912    20A     -0.647288    21A     -0.630189
      22A     -0.620072    23A     -0.591115    24A     -0.581393
      25A     -0.578487    26A     -0.547134    27A     -0.540185
      28A     -0.526201    29A     -0.506105    30A     -0.485266
      31A     -0.481846    32A     -0.473136    33A     -0.465586
      34A     -0.458009    35A     -0.452687    36A     -0.440750
      37A     -0.417846

  @DF-RHF Final Energy:  -388.28038278936606

   => Energetics <=

    Nuclear Repulsion Energy =            459.0899929991385306
    One-Electron Energy =               -1436.3731906994701149
    Two-Electron Energy =                 589.0028149109664355
    DFT Exchange-Correlation Energy =       0.0000000000000000
    Empirical Dispersion Energy =           0.0000000000000000
    PCM Polarization Energy =               0.0000000000000000
    EFP Energy =                            0.0000000000000000
    Total Energy =                       -388.2803827893651487

  Mulliken Charges: (a.u.)
   Center  Symbol    Alpha    Beta     Spin     Total
       1     H     0.27961  0.27961  0.00000  0.44078
       2     O     4.37099  4.37099  0.00000 -0.74197
       3     C     2.99940  2.99940  0.00000  0.00119
       4     C     3.15751  3.15751  0.00000 -0.31503
       5     H     0.41863  0.41863  0.00000  0.16274
       6     H     0.43274  0.43274  0.00000  0.13452
       7     C     3.15984  3.15984  0.00000 -0.31968
       8     H     0.41527  0.41527  0.00000  0.16946
       9     H     0.42534  0.42534  0.00000  0.14932
      10     C     3.15259  3.15259  0.00000 -0.30519
      11     H     0.41367  0.41367  0.00000  0.17266
      12     H     0.42919  0.42919  0.00000  0.14162
      13     C     3.15308  3.15308  0.00000 -0.30615
      14     H     0.42237  0.42237  0.00000  0.15526
      15     H     0.42321  0.42321  0.00000  0.15358
      16     C     3.15241  3.15241  0.00000 -0.30482
      17     H     0.42207  0.42207  0.00000  0.15586
      18     H     0.42495  0.42495  0.00000  0.15010
      19     C     3.15112  3.15112  0.00000 -0.30224
      20     H     0.42376  0.42376  0.00000  0.15249
      21     H     0.42269  0.42269  0.00000  0.15462
      22     C     3.23904  3.23904  0.00000 -0.47808
      23     H     0.42326  0.42326  0.00000  0.15347
      24     H     0.42374  0.42374  0.00000  0.15252
      25     H     0.42153  0.42153  0.00000  0.15695
      26     H     0.41974  0.41974  0.00000  0.16052
      27     H     0.42225  0.42225  0.00000  0.15549

   Total alpha = 37.00000, Total beta = 37.00000, Total charge = -0.00000
