  ==> Input File <==

--------------------------------------------------------------------------
set {
	reference rhf
	basis 6-31G*
}

set_num_threads( 4 )
memory 2 gb

molecule MOL {
0 1

O	 -0.291628	 1.323815	 -0.000732
C	 -0.449655	 0.146360	 0.000961
C	 -1.783294	 -0.549321	 -0.000296
O	 0.550821	 -0.724572	 0.000672
H	 -1.863538	 -1.185371	 -0.874187
H	 -2.574672	 0.185258	 -0.002793
H	 -1.866414	 -1.182381	 0.875436
C	 0.618832	 -1.623516	 -1.091828
H	 -0.271794	 -2.233488	 -1.137394
H	 1.485882	 -2.239906	 -0.912845
H	 0.728095	 -1.083485	 -2.021221

	symmetry c1
}
set optking {
	frozen_dihedral = ("
		8 4 2 1
	")
}

ee = optimize('scf')
oeprop('DIPOLE', 'QUADRUPOLE', 'MULLIKEN_CHARGES')
f=open( 'psi4out.xyz', 'w' )
f.write( "11  " )
f.write( str(ee) + "\n" )
f.write( MOL.save_string_xyz() )
f.close()
--------------------------------------------------------------------------

    Molecular point group: c1
  Charge       = 0
  Multiplicity = 1
  Basis Set: 6-31G*
  Basis Set:
  @DF-RHF Final Energy:  -266.81151882581514
    Total Energy =                       -266.8115188258151989
    Molecular point group: c1
  Basis Set: 6-31G*
  Basis Set:
  Basis Set: 6-31G*
  Basis Set:
  @DF-RHF Final Energy:  -266.81160126047700
    Total Energy =                       -266.8116012604768912
  Basis Set: 6-31G*
  Basis Set:
  Basis Set: 6-31G*
  Basis Set:
  @DF-RHF Final Energy:  -266.81462650683966
    Total Energy =                       -266.8146265068398293
  Basis Set: 6-31G*
  Basis Set:
  Basis Set: 6-31G*
  Basis Set:
  @DF-RHF Final Energy:  -266.81560383808545
    Total Energy =                       -266.8156038380855648
  Basis Set: 6-31G*
  Basis Set:
  @DF-RHF Final Energy:  -266.81584731007217
    Total Energy =                       -266.8158473100720585
  @DF-RHF Final Energy:  -266.81590864318775
    Total Energy =                       -266.8159086431875266
  @DF-RHF Final Energy:  -266.81597306868338
    Total Energy =                       -266.8159730686832063
  @DF-RHF Final Energy:  -266.81599969888794
    Total Energy =                       -266.8159996988881630
  Basis Set: 6-31G*
  Basis Set:
  @DF-RHF Final Energy:  -266.81601788821473
    Total Energy =                       -266.8160178882147875
  Basis Set: 6-31G*
  Basis Set:
  Basis Set: 6-31G*
  Basis Set:
  @DF-RHF Final Energy:  -266.81602797377491
    Total Energy =                       -266.8160279737746805
  Basis Set: 6-31G*
  Basis Set:
  Basis Set: 6-31G*
  Basis Set:
  @DF-RHF Final Energy:  -266.81603041248150
    Total Energy =                       -266.8160304124816662
  Basis Set: 6-31G*
  Basis Set:
  Charge       = 0
  Multiplicity = 1
  Basis Set: 6-31G*
  Basis Set:

    Orbital Energies (a.u.)
    -----------------------

    Doubly Occupied:

       1A    -20.592104     2A    -20.554362     3A    -11.379260
       4A    -11.296599     5A    -11.241518     6A     -1.461727
       7A     -1.370100     8A     -1.023134     9A     -0.974392
      10A     -0.781264    11A     -0.695568    12A     -0.683958
      13A     -0.673158    14A     -0.615074    15A     -0.590923
      16A     -0.580266    17A     -0.544439    18A     -0.494869
      19A     -0.460878    20A     -0.439769

  @DF-RHF Final Energy:  -266.81603044874583

   => Energetics <=

    Nuclear Repulsion Energy =            182.5389574731485141
    One-Electron Energy =                -725.8032524978639231
    Two-Electron Energy =                 276.4482645759696879
    DFT Exchange-Correlation Energy =       0.0000000000000000
    Empirical Dispersion Energy =           0.0000000000000000
    PCM Polarization Energy =               0.0000000000000000
    EFP Energy =                            0.0000000000000000
    Total Energy =                       -266.8160304487457779
    Molecular point group: c1
  Basis Set: 6-31G*
  Basis Set:

  -Total Gradient:
     Atom            X                  Y                   Z
    ------   -----------------  -----------------  -----------------
       1        0.000001076327    -0.000101246151    -0.003218008905
       2        0.000702044781     0.001022093589     0.003973618812
       3        0.000002412893    -0.000000774898     0.000007913042
       4       -0.002160054464    -0.002655866796     0.000614208425
       5       -0.000000913980     0.000001059571    -0.000002582250
       6       -0.000002943814    -0.000001964652    -0.000001730786
       7        0.000001879149     0.000003332336    -0.000002320051
       8        0.001455130763     0.001735110057    -0.001371679495
       9        0.000000437469     0.000002814552     0.000002659661
      10       -0.000000204117    -0.000000093905     0.000001503772
      11        0.000001134991    -0.000004463704    -0.000003582226

  **** Optimization is complete! (in 12 steps) ****
    Final optimized geometry and variables:
    Molecular point group: c1

    Geometry (in Angstrom), charge = 0, multiplicity = 1:

    O           -0.030686898898     1.608307567144     0.182887367165
    C           -0.210564517742     0.441577100844     0.212504599425
    C           -1.581211368563    -0.191029255773     0.254834719862
    O            0.828973339500    -0.416031076570     0.233220606704
    H           -1.835395475506    -0.604013535211    -0.716204316200
    H           -2.310472998071     0.563946863760     0.508318542320
    H           -1.607134487323    -0.996950950316     0.978479473122
    C            0.956370626918    -1.350645228478    -0.814950891437
    H            0.160961059167    -2.087046548315    -0.796487698641
    H            1.900815450032    -1.848652954057    -0.662439830949
    H            0.968868642141    -0.850904915396    -1.776650239003

  Mulliken Charges: (a.u.)
   Center  Symbol    Alpha    Beta     Spin     Total
       1     O     4.24807  4.24807  0.00000 -0.49615
       2     C     2.62650  2.62650  0.00000  0.74701
       3     C     3.29884  3.29884  0.00000 -0.59767
       4     O     4.30421  4.30421  0.00000 -0.60842
       5     H     0.40345  0.40345  0.00000  0.19310
       6     H     0.39130  0.39130  0.00000  0.21740
       7     H     0.40076  0.40076  0.00000  0.19847
       8     C     3.09379  3.09379  0.00000 -0.18758
       9     H     0.41975  0.41975  0.00000  0.16050
      10     H     0.39966  0.39966  0.00000  0.20068
      11     H     0.41366  0.41366  0.00000  0.17268

   Total alpha = 20.00000, Total beta = 20.00000, Total charge = -0.00000
