                              Psi4 1.0.54 Driver

  ==> Input File <==

--------------------------------------------------------------------------
set {
	reference rhf
	basis cc-pvtz
}

set_num_threads( 4 )
memory 2 gb

molecule MOL {
0 1

H	 -1.088256	 -1.364742	 0.152233
O	 -1.432053	 -0.565244	 -0.200812
C	 -0.727158	 0.534527	 0.310686
C	 0.680222	 0.664433	 -0.252229
H	 -1.306802	 1.408001	 0.044211
H	 -0.690821	 0.490158	 1.397609
C	 1.069374	 -0.457932	 -1.209781
H	 0.764757	 1.621747	 -0.755850
H	 1.374716	 0.683426	 0.583215
H	 0.433623	 -0.470283	 -2.088298
H	 2.088997	 -0.337282	 -1.555271
H	 0.997586	 -1.428510	 -0.728345

	symmetry c1
}
set optking {
	frozen_dihedral = ("
		8 4 3 2
	")
}

ee,wfn = optimize('scf', return_wfn=True)
oeprop( wfn, 'DIPOLE', 'QUADRUPOLE', 'MULLIKEN_CHARGES')
f=open( 'psi4out.xyz', 'w' )
f.write( "12  " )
f.write( str(ee) + "\n" )
f.write( MOL.save_string_xyz() )
f.close()
--------------------------------------------------------------------------

    Molecular point group: c1
  Charge       = 0
  Multiplicity = 1
  Basis Set: CC-PVTZ
  Basis Set:
  @DF-RHF Final Energy:  -193.18115236647753
    Total Energy =                       -193.1811523664776189
    Molecular point group: c1
  Basis Set: CC-PVTZ
  Basis Set:
  Basis Set: CC-PVTZ
  Basis Set:
  @DF-RHF Final Energy:  -193.18175670863539
    Total Energy =                       -193.1817567086353620
  Basis Set: CC-PVTZ
  Basis Set:
  Basis Set: CC-PVTZ
  Basis Set:
  @DF-RHF Final Energy:  -193.18241257791109
    Total Energy =                       -193.1824125779110943
  Basis Set: CC-PVTZ
  Basis Set:
  Basis Set: CC-PVTZ
  Basis Set:
  @DF-RHF Final Energy:  -193.18243124792539
    Total Energy =                       -193.1824312479253081
  Basis Set: CC-PVTZ
  Basis Set:
  Basis Set: CC-PVTZ
  Basis Set:
  @DF-RHF Final Energy:  -193.18243520929812
    Total Energy =                       -193.1824352092982622
  Basis Set: CC-PVTZ
  Basis Set:
  Charge       = 0
  Multiplicity = 1
  Basis Set: CC-PVTZ
  Basis Set:

    Orbital Energies (a.u.)
    -----------------------

    Doubly Occupied:

       1A    -20.546306     2A    -11.266459     3A    -11.216827
       4A    -11.209670     5A     -1.364214     6A     -1.044297
       7A     -0.927147     8A     -0.807995     9A     -0.691995
      10A     -0.630255    11A     -0.623797    12A     -0.578459
      13A     -0.527967    14A     -0.512202    15A     -0.496886
      16A     -0.456356    17A     -0.432394

  @DF-RHF Final Energy:  -193.18243539939260

   => Energetics <=

    Nuclear Repulsion Energy =            133.3968623614591706
    One-Electron Energy =                -526.4921453010464347
    Two-Electron Energy =                 199.9128475401947185
    DFT Exchange-Correlation Energy =       0.0000000000000000
    Empirical Dispersion Energy =           0.0000000000000000
    PCM Polarization Energy =               0.0000000000000000
    EFP Energy =                            0.0000000000000000
    Total Energy =                       -193.1824353993925456
    Molecular point group: c1
  Basis Set: CC-PVTZ
  Basis Set:

  -Total Gradient:
     Atom            X                  Y                   Z
    ------   -----------------  -----------------  -----------------
       1       -0.000023540268    -0.000010758893    -0.000014791765
       2        0.000046440238    -0.000151960349     0.000070636075
       3       -0.000041483228     0.000148134336    -0.000092650968
       4       -0.000044369278    -0.000077086696    -0.000068952875
       5        0.000031433005     0.000033909211     0.000014492138
       6        0.000018590232     0.000005255936    -0.000011430659
       7       -0.000010223996    -0.000006298159    -0.000025367928
       8        0.000028125025     0.000050198108     0.000102067741
       9        0.000004085694     0.000008814501     0.000009448487
      10        0.000018329728    -0.000002415277     0.000010839226
      11       -0.000020736175    -0.000008944886     0.000011171165
      12       -0.000006650977     0.000011152168    -0.000005460638

  **** Optimization is complete! (in 6 steps) ****
    Final optimized geometry and variables:
    Molecular point group: c1

    Geometry (in Angstrom), charge = 0, multiplicity = 1:

    H           -1.018275873112    -1.350575104384     0.531207945581
    O           -1.349654383533    -0.542208363084     0.187021148605
    C           -0.581845448276     0.536643486816     0.649854509203
    C            0.842799547985     0.632519880207     0.051478262027
    H           -1.146998822752     1.419772553692     0.389092032975
    H           -0.523553676871     0.508623238837     1.733781893054
    C            1.219506204299    -0.488107741644    -0.914306052069
    H            0.941945590637     1.580648532137    -0.465187165516
    H            1.566557415067     0.656811280103     0.859532069381
    H            0.536367786812    -0.537654013745    -1.751293592898
    H            2.218760605929    -0.323114838427    -1.299962013269
    H            1.217604248184    -1.458484110602    -0.429496146424

  Mulliken Charges: (a.u.)
   Center  Symbol    Alpha    Beta     Spin     Total
       1     H     0.39316  0.39316  0.00000  0.21368
       2     O     4.20061  4.20061  0.00000 -0.40122
       3     C     2.97456  2.97456  0.00000  0.05088
       4     C     3.10355  3.10355  0.00000 -0.20710
       5     H     0.45500  0.45500  0.00000  0.09000
       6     H     0.46586  0.46586  0.00000  0.06828
       7     C     3.14573  3.14573  0.00000 -0.29146
       8     H     0.45224  0.45224  0.00000  0.09551
       9     H     0.45322  0.45322  0.00000  0.09355
      10     H     0.44402  0.44402  0.00000  0.11196
      11     H     0.44912  0.44912  0.00000  0.10176
      12     H     0.46292  0.46292  0.00000  0.07416

   Total alpha = 17.00000, Total beta = 17.00000, Total charge =  0.00000

*** Psi4 exiting successfully. Buy a developer a beer!
