  ==> Input File <==

--------------------------------------------------------------------------
set {
	reference rhf
	basis cc-pvtz
}

set_num_threads( 4 )
memory 2 gb

molecule MOL {
0 1

H	 -1.835082	 1.385983	 0.000069
C	 -1.300516	 0.441153	 -0.000028
O	 -0.006604	 0.654344	 -0.000106
O	 -1.828920	 -0.612308	 0.000113
C	 0.852093	 -0.482521	 -0.000161
C	 2.277246	 0.016082	 0.032022
H	 0.654479	 -1.069404	 -0.885867
H	 0.623294	 -1.093076	 0.861719
H	 2.490953	 0.628820	 -0.834495
H	 2.958071	 -0.826729	 0.032765
H	 2.459607	 0.605056	 0.921867

	symmetry c1
}
set optking {
	frozen_dihedral = ("
		7 5 3 2
	")
}

ee = optimize('scf')
oeprop('DIPOLE', 'QUADRUPOLE', 'MULLIKEN_CHARGES')
f=open( 'psi4out.xyz', 'w' )
f.write( "11  " )
f.write( str(ee) + "\n" )
f.write( MOL.save_string_xyz() )
f.close()
--------------------------------------------------------------------------

    Molecular point group: c1
  Charge       = 0
  Multiplicity = 1
  Basis Set: CC-PVTZ
  Basis Set:
  @DF-RHF Final Energy:  -266.93189195079572
    Total Energy =                       -266.9318919507956593
    Molecular point group: c1
  Basis Set: CC-PVTZ
  Basis Set:
  Basis Set: CC-PVTZ
  Basis Set:
  @DF-RHF Final Energy:  -266.93189156366714
    Total Energy =                       -266.9318915636670795
  Basis Set: CC-PVTZ
  Basis Set:
  Basis Set: CC-PVTZ
  Basis Set:
  @DF-RHF Final Energy:  -266.93188695344156
    Total Energy =                       -266.9318869534416194
  Basis Set: CC-PVTZ
  Basis Set:
  Charge       = 0
  Multiplicity = 1
  Basis Set: CC-PVTZ
  Basis Set:

    Orbital Energies (a.u.)
    -----------------------

    Doubly Occupied:

       1A    -20.605708     2A    -20.545763     3A    -11.370121
       4A    -11.290020     5A    -11.225134     6A     -1.479599
       7A     -1.377440     8A     -1.053889     9A     -0.903802
      10A     -0.806087    11A     -0.740639    12A     -0.693524
      13A     -0.682537    14A     -0.593502    15A     -0.578609
      16A     -0.558128    17A     -0.519346    18A     -0.516073
      19A     -0.463792    20A     -0.458250

  @DF-RHF Final Energy:  -266.93189230285759

   => Energetics <=

    Nuclear Repulsion Energy =            179.6496276497045699
    One-Electron Energy =                -720.2391071311503765
    Two-Electron Energy =                 273.6575871785883578
    DFT Exchange-Correlation Energy =       0.0000000000000000
    Empirical Dispersion Energy =           0.0000000000000000
    PCM Polarization Energy =               0.0000000000000000
    EFP Energy =                            0.0000000000000000
    Total Energy =                       -266.9318923028574204
    Molecular point group: c1
  Basis Set: CC-PVTZ
  Basis Set:

  -Total Gradient:
     Atom            X                  Y                   Z
    ------   -----------------  -----------------  -----------------
       1       -0.000003398551     0.000000990316    -0.000024373231
       2        0.000009938268     0.000009647994     0.000189839053
       3        0.000002793632     0.000026565771    -0.000211923570
       4        0.000001896356    -0.000003672881    -0.000035953520
       5       -0.000084107346    -0.000090494859     0.000171837576
       6       -0.000011807382    -0.000003090851    -0.000017135419
       7        0.000079509573     0.000069706687    -0.000067920319
       8        0.000007418152    -0.000008193244    -0.000003058558
       9        0.000005914618     0.000001948702    -0.000000068944
      10        0.000000924926     0.000000038454    -0.000000742528
      11       -0.000009082252    -0.000003446089    -0.000000500542

  **** Optimization is complete! (in 4 steps) ****
    Final optimized geometry and variables:
    Molecular point group: c1

    Geometry (in Angstrom), charge = 0, multiplicity = 1:

    H           -1.835012500841     1.386110266987    -0.004952773903
    C           -1.300470636717     0.441307354207    -0.006448692441
    O           -0.006485003985     0.654315009342    -0.005812307708
    O           -1.828819572597    -0.612194142204    -0.008962238790
    C            0.852059003324    -0.482544109158    -0.004860980994
    C            2.277234938583     0.016085580161     0.025789180328
    H            0.654643597272    -1.069581613122    -0.890656549147
    H            0.623918683767    -1.092745939215     0.857297250707
    H            2.490020032763     0.629007978428    -0.840828628971
    H            2.958109134335    -0.826703292099     0.025643941665
    H            2.460450743120     0.604894600584     0.915574526195

  Mulliken Charges: (a.u.)
   Center  Symbol    Alpha    Beta     Spin     Total
       1     H     0.44776  0.44776  0.00000  0.10448
       2     C     2.84643  2.84643  0.00000  0.30714
       3     O     4.14419  4.14419  0.00000 -0.28838
       4     O     4.19490  4.19490  0.00000 -0.38981
       5     C     2.97236  2.97236  0.00000  0.05529
       6     C     3.13325  3.13325  0.00000 -0.26650
       7     H     0.45329  0.45329  0.00000  0.09341
       8     H     0.45290  0.45290  0.00000  0.09420
       9     H     0.45033  0.45033  0.00000  0.09935
      10     H     0.45423  0.45423  0.00000  0.09154
      11     H     0.45036  0.45036  0.00000  0.09928

   Total alpha = 20.00000, Total beta = 20.00000, Total charge = -0.00000
