  ==> Input File <==

--------------------------------------------------------------------------
set {
	reference rhf
	basis cc-pvtz
}

set_num_threads( 4 )
memory 2 gb

molecule MOL {
0 1

H	 -2.797029	 0.259566	 -0.358794
O	 -2.041679	 -0.058866	 0.103463
C	 -0.959304	 0.780994	 -0.094939
C	 0.354905	 0.037902	 -0.006215
H	 -0.985899	 1.279578	 -1.057596
H	 -0.969809	 1.529522	 0.682889
F	 0.412060	 -0.931028	 -0.902708
F	 1.359641	 0.856111	 -0.239961
F	 0.545380	 -0.506387	 1.171682

	symmetry c1
}
set optking {
	frozen_dihedral = ("
		1 2 3 5
	")
}

ee = optimize('scf')
oeprop('DIPOLE', 'QUADRUPOLE', 'MULLIKEN_CHARGES')
f=open( 'psi4out.xyz', 'w' )
f.write( "9  " )
f.write( str(ee) + "\n" )
f.write( MOL.save_string_xyz() )
f.close()
--------------------------------------------------------------------------

    Molecular point group: c1
  Charge       = 0
  Multiplicity = 1
  Basis Set: CC-PVTZ
  Basis Set:
  @DF-RHF Final Energy:  -450.84310454193394
    Total Energy =                       -450.8431045419338830
    Molecular point group: c1
  Basis Set: CC-PVTZ
  Basis Set:
  Basis Set: CC-PVTZ
  Basis Set:
  @DF-RHF Final Energy:  -450.84417085773856
    Total Energy =                       -450.8441708577385043
  Basis Set: CC-PVTZ
  Basis Set:
  Basis Set: CC-PVTZ
  Basis Set:
  @DF-RHF Final Energy:  -450.84442685961176
    Total Energy =                       -450.8444268596119286
  Basis Set: CC-PVTZ
  Basis Set:
  Basis Set: CC-PVTZ
  Basis Set:
  @DF-RHF Final Energy:  -450.84443661258598
    Total Energy =                       -450.8444366125861507
  Basis Set: CC-PVTZ
  Basis Set:
  Charge       = 0
  Multiplicity = 1
  Basis Set: CC-PVTZ
  Basis Set:

    Orbital Energies (a.u.)
    -----------------------

    Doubly Occupied:

       1A    -26.333712     2A    -26.330405     3A    -26.330069
       4A    -20.582466     5A    -11.490242     6A    -11.310172
       7A     -1.741899     8A     -1.638177     9A     -1.636640
      10A     -1.406091    11A     -1.050603    12A     -0.923731
      13A     -0.833117    14A     -0.831464    15A     -0.789538
      16A     -0.740692    17A     -0.713672    18A     -0.703843
      19A     -0.671633    20A     -0.657646    21A     -0.642538
      22A     -0.641179    23A     -0.600348    24A     -0.532468
      25A     -0.483190

  @DF-RHF Final Energy:  -450.84443818736429

   => Energetics <=

    Nuclear Repulsion Energy =            277.7215038303755819
    One-Electron Energy =               -1177.9008151725988682
    Two-Electron Energy =                 449.3348731548590536
    DFT Exchange-Correlation Energy =       0.0000000000000000
    Empirical Dispersion Energy =           0.0000000000000000
    PCM Polarization Energy =               0.0000000000000000
    EFP Energy =                            0.0000000000000000
    Total Energy =                       -450.8444381873642328
    Molecular point group: c1
  Basis Set: CC-PVTZ
  Basis Set:

  -Total Gradient:
     Atom            X                  Y                   Z
    ------   -----------------  -----------------  -----------------
       1        0.000020708314    -0.000074532288    -0.000112065287
       2        0.000010259149     0.000208928673     0.000086209154
       3        0.000062661376    -0.000220164895     0.000002923665
       4        0.000071243099     0.000207733178     0.000123306837
       5       -0.000109118718     0.000063081261     0.000037580765
       6       -0.000031675844     0.000000638660    -0.000006352000
       7        0.000027761486    -0.000050037748    -0.000036876053
       8       -0.000040800826    -0.000117633073    -0.000033721954
       9       -0.000011038035    -0.000018013768    -0.000061005130

  **** Optimization is complete! (in 5 steps) ****
    Final optimized geometry and variables:
    Molecular point group: c1

    Geometry (in Angstrom), charge = 0, multiplicity = 1:

    H           -2.760003659142     0.193785702424    -0.351152864029
    O           -1.998936921169    -0.073490523100     0.128669563472
    C           -0.943386301550     0.797045510917    -0.100976809519
    C            0.351328911497     0.023636246874    -0.018813680665
    H           -0.980600957010     1.248566640058    -1.084876718840
    H           -0.899969062478     1.584057951921     0.643215912267
    F            0.428235962261    -0.907528615881    -0.942015889748
    F            1.367663649172     0.846285364073    -0.196679584517
    F            0.507157117346    -0.555797999762     1.148088088015

  Mulliken Charges: (a.u.)
   Center  Symbol    Alpha    Beta     Spin     Total
       1     H     0.38794  0.38794  0.00000  0.22413
       2     O     4.18794  4.18794  0.00000 -0.37587
       3     C     2.98662  2.98662  0.00000  0.02677
       4     C     2.67659  2.67659  0.00000  0.64682
       5     H     0.46441  0.46441  0.00000  0.07119
       6     H     0.46382  0.46382  0.00000  0.07237
       7     F     4.60992  4.60992  0.00000 -0.21984
       8     F     4.61442  4.61442  0.00000 -0.22884
       9     F     4.60837  4.60837  0.00000 -0.21673

   Total alpha = 25.00000, Total beta = 25.00000, Total charge = -0.00000
