  ==> Input File <==

--------------------------------------------------------------------------
set {
	reference rhf
	basis 6-31G*
}

set_num_threads( 4 )
memory 2 gb

molecule MOL {
0 1

H	 -2.311090	 0.456289	 3.047743
C	 -2.315327	 -0.085443	 2.121909
C	 -1.215541	 -0.172906	 1.409995
H	 -3.230555	 -0.546049	 1.800799
O	 -1.180634	 -0.819263	 0.215062
H	 -0.287083	 0.275020	 1.717441
C	 0.051604	 -1.018856	 -0.387932
C	 1.043764	 0.054862	 -0.001873
H	 -0.017620	 -1.041351	 -1.469781
H	 0.437898	 -1.966374	 -0.042284
F	 2.212596	 -0.199467	 -0.571921
F	 0.652529	 1.252447	 -0.405055
F	 1.230877	 0.110694	 1.300533

	symmetry c1
}
set optking {
	frozen_dihedral = ("
		3 5 7 9
	")
}

ee = optimize('scf')
oeprop('DIPOLE', 'QUADRUPOLE', 'MULLIKEN_CHARGES')
f=open( 'psi4out.xyz', 'w' )
f.write( "13  " )
f.write( str(ee) + "\n" )
f.write( MOL.save_string_xyz() )
f.close()
--------------------------------------------------------------------------

    Molecular point group: c1
  Charge       = 0
  Multiplicity = 1
  Basis Set: 6-31G*
  Basis Set:
  @DF-RHF Final Energy:  -527.50219149346901
    Total Energy =                       -527.5021914934691267
    Molecular point group: c1
  Basis Set: 6-31G*
  Basis Set:
  Basis Set: 6-31G*
  Basis Set:
  @DF-RHF Final Energy:  -527.52084670300292
    Total Energy =                       -527.5208467030024622
  Basis Set: 6-31G*
  Basis Set:
  Basis Set: 6-31G*
  Basis Set:
  @DF-RHF Final Energy:  -527.52628038361900
    Total Energy =                       -527.5262803836188823
  Basis Set: 6-31G*
  Basis Set:
  Basis Set: 6-31G*
  Basis Set:
  @DF-RHF Final Energy:  -527.52749808723911
    Total Energy =                       -527.5274980872391097
  Basis Set: 6-31G*
  Basis Set:
  @DF-RHF Final Energy:  -527.52796800168971
    Total Energy =                       -527.5279680016892598
  @DF-RHF Final Energy:  -527.52814400344164
    Total Energy =                       -527.5281440034416391
  @DF-RHF Final Energy:  -527.52819487544161
    Total Energy =                       -527.5281948754416135
  @DF-RHF Final Energy:  -527.52823349327093
    Total Energy =                       -527.5282334932708181
  @DF-RHF Final Energy:  -527.52827850184099
    Total Energy =                       -527.5282785018407594
  @DF-RHF Final Energy:  -527.52832586197496
    Total Energy =                       -527.5283258619750768
  Basis Set: 6-31G*
  Basis Set:
  @DF-RHF Final Energy:  -527.52836177107201
    Total Energy =                       -527.5283617710721273
  Basis Set: 6-31G*
  Basis Set:
  Basis Set: 6-31G*
  Basis Set:
  @DF-RHF Final Energy:  -527.52836678991093
    Total Energy =                       -527.5283667899109332
  Basis Set: 6-31G*
  Basis Set:
  Basis Set: 6-31G*
  Basis Set:
  @DF-RHF Final Energy:  -527.52837044321643
    Total Energy =                       -527.5283704432162040
  Basis Set: 6-31G*
  Basis Set:
  Charge       = 0
  Multiplicity = 1
  Basis Set: 6-31G*
  Basis Set:

    Orbital Energies (a.u.)
    -----------------------

    Doubly Occupied:

       1A    -26.349703     2A    -26.349570     3A    -26.348743
       4A    -20.600242     5A    -11.510463     6A    -11.317748
       7A    -11.294235     8A    -11.218717     9A     -1.748352
      10A     -1.645950    11A     -1.644748    12A     -1.426804
      13A     -1.082832    14A     -1.019631    15A     -0.929990
      16A     -0.843621    17A     -0.837731    18A     -0.833374
      19A     -0.759060    20A     -0.725533    21A     -0.719617
      22A     -0.703450    23A     -0.679161    24A     -0.663188
      25A     -0.652252    26A     -0.649681    27A     -0.644752
      28A     -0.594796    29A     -0.560576    30A     -0.524710
      31A     -0.481596    32A     -0.358455

  @DF-RHF Final Energy:  -527.52837059981834

   => Energetics <=

    Nuclear Repulsion Energy =            416.1145214622924868
    One-Electron Energy =               -1555.8472196239063123
    Two-Electron Energy =                 612.2043275617953668
    DFT Exchange-Correlation Energy =       0.0000000000000000
    Empirical Dispersion Energy =           0.0000000000000000
    PCM Polarization Energy =               0.0000000000000000
    EFP Energy =                            0.0000000000000000
    Total Energy =                       -527.5283705998184587
    Molecular point group: c1
  Basis Set: 6-31G*
  Basis Set:

  -Total Gradient:
     Atom            X                  Y                   Z
    ------   -----------------  -----------------  -----------------
       1        0.000003613207    -0.000003048950     0.000002289217
       2        0.000000628949     0.000000619919     0.000000071800
       3        0.000355707151     0.003206809321    -0.001683135666
       4       -0.000002319421     0.000000055236    -0.000000444526
       5       -0.000249856270    -0.004002039921     0.002554208969
       6       -0.000003243270    -0.000011253312     0.000001365811
       7       -0.001297528057    -0.003014574693    -0.000906518988
       8        0.000019186301     0.000001946970    -0.000013758147
       9        0.001219319572     0.003827107073     0.000011817333
      10       -0.000005839282     0.000000314467    -0.000001084219
      11       -0.000043340862     0.000019842851     0.000015653329
      12       -0.000016445558    -0.000007496127    -0.000022568164
      13        0.000020117545    -0.000018282836     0.000042103251

  **** Optimization is complete! (in 14 steps) ****
    Final optimized geometry and variables:
    Molecular point group: c1

    Geometry (in Angstrom), charge = 0, multiplicity = 1:

    H           -2.739567350924     0.431521419125     2.675941857787
    C           -2.593515323851    -0.138278643705     1.778265767100
    C           -1.648490766237     0.199727832073     0.931432906104
    H           -3.248358070879    -0.967869263213     1.587058677452
    O           -1.503110106860    -0.445217888862    -0.261005451604
    H           -0.992879906593     1.031425902773     1.100242153262
    C           -0.260289897055    -0.839376687011    -0.748914435819
    C            0.919313353467     0.047348896093    -0.403042822119
    H           -0.328661838415    -0.812405221258    -1.826394159455
    H           -0.014163145115    -1.842229313939    -0.420608159219
    F            1.965692629963    -0.352862266858    -1.106696655348
    F            0.693284175276     1.315847553083    -0.696962662057
    F            1.258133833149    -0.012135879974     0.874172669922

  Mulliken Charges: (a.u.)
   Center  Symbol    Alpha    Beta     Spin     Total
       1     H     0.40687  0.40687  0.00000  0.18627
       2     C     3.22573  3.22573  0.00000 -0.45146
       3     C     2.91051  2.91051  0.00000  0.17899
       4     H     0.40330  0.40330  0.00000  0.19340
       5     O     4.31385  4.31385  0.00000 -0.62769
       6     H     0.39821  0.39821  0.00000  0.20358
       7     C     3.02556  3.02556  0.00000 -0.05112
       8     C     2.47813  2.47813  0.00000  1.04373
       9     H     0.39597  0.39597  0.00000  0.20807
      10     H     0.40384  0.40384  0.00000  0.19233
      11     F     4.68061  4.68061  0.00000 -0.36122
      12     F     4.67885  4.67885  0.00000 -0.35770
      13     F     4.67858  4.67858  0.00000 -0.35716

   Total alpha = 32.00000, Total beta = 32.00000, Total charge =  0.00000
