                              Psi4 1.0.54 Driver

  ==> Input File <==

--------------------------------------------------------------------------
set {
	reference rhf
	basis cc-pvtz
}

set_num_threads( 4 )
memory 2 gb

molecule MOL {
0 1

O	 1.847685	 1.294399	 -0.000190
C	 1.704209	 0.119472	 -0.000093
C	 0.380337	 -0.600947	 -0.000234
O	 2.715427	 -0.733672	 0.000025
C	 -0.824290	 0.329213	 -0.000115
H	 0.371455	 -1.255476	 -0.865660
H	 0.371410	 -1.255787	 0.864952
C	 -2.146151	 -0.432825	 -0.000068
H	 -0.773936	 0.979158	 -0.866319
H	 -0.773838	 0.979034	 0.866186
C	 -3.366283	 0.483552	 0.000557
H	 -2.189286	 -1.084450	 -0.869996
H	 -2.188867	 -1.085083	 0.869399
C	 -4.529108	 -0.066634	 -0.818312
H	 -3.082089	 1.458120	 -0.386236
H	 -3.691214	 0.646136	 1.024347
H	 -4.245309	 -0.207781	 -1.855987
H	 -5.377597	 0.607416	 -0.796950
H	 -4.859516	 -1.025999	 -0.434014
C	 4.020999	 -0.192556	 0.000019
H	 4.182809	 0.412891	 -0.879449
H	 4.692590	 -1.035653	 0.000152
H	 4.182726	 0.413087	 0.879368

	symmetry c1
}
set optking {
	frozen_dihedral = ("
		15 11 8 12
	")
}

ee,wfn = optimize('scf', return_wfn=True)
oeprop( wfn, 'DIPOLE', 'QUADRUPOLE', 'MULLIKEN_CHARGES')
f=open( 'psi4out.xyz', 'w' )
f.write( "23  " )
f.write( str(ee) + "\n" )
f.write( MOL.save_string_xyz() )
f.close()
--------------------------------------------------------------------------

    Molecular point group: c1
  Charge       = 0
  Multiplicity = 1
  Basis Set: CC-PVTZ
  Basis Set:
  @DF-RHF Final Energy:  -423.12735381603170
    Total Energy =                       -423.1273538160315866
    Molecular point group: c1
  Basis Set: CC-PVTZ
  Basis Set:
  Basis Set: CC-PVTZ
  Basis Set:
  @DF-RHF Final Energy:  -423.12731997707783
    Total Energy =                       -423.1273199770778319
  Basis Set: CC-PVTZ
  Basis Set:
  Basis Set: CC-PVTZ
  Basis Set:
  @DF-RHF Final Energy:  -423.12769748267260
    Total Energy =                       -423.1276974826723745
  Basis Set: CC-PVTZ
  Basis Set:
  Basis Set: CC-PVTZ
  Basis Set:
  @DF-RHF Final Energy:  -423.12762097712783
    Total Energy =                       -423.1276209771274353
  Basis Set: CC-PVTZ
  Basis Set:
  Basis Set: CC-PVTZ
  Basis Set:
  @DF-RHF Final Energy:  -423.12770200708229
    Total Energy =                       -423.1277020070822346
  Basis Set: CC-PVTZ
  Basis Set:
  Basis Set: CC-PVTZ
  Basis Set:
  @DF-RHF Final Energy:  -423.12770920626576
    Total Energy =                       -423.1277092062655356
  Basis Set: CC-PVTZ
  Basis Set:
  Charge       = 0
  Multiplicity = 1
  Basis Set: CC-PVTZ
  Basis Set:

    Orbital Energies (a.u.)
    -----------------------

    Doubly Occupied:

       1A    -20.596339     2A    -20.534152     3A    -11.364627
       4A    -11.278497     5A    -11.233761     6A    -11.217754
       7A    -11.215582     8A    -11.214255     9A    -11.208237
      10A     -1.472262    11A     -1.365816    12A     -1.093648
      13A     -1.043963    14A     -0.988208    15A     -0.932749
      16A     -0.845120    17A     -0.796093    18A     -0.769533
      19A     -0.699236    20A     -0.686713    21A     -0.675644
      22A     -0.648118    23A     -0.610503    24A     -0.601042
      25A     -0.575089    26A     -0.566125    27A     -0.550844
      28A     -0.525840    29A     -0.522981    30A     -0.506836
      31A     -0.489327    32A     -0.471261    33A     -0.463056
      34A     -0.462108    35A     -0.456743    36A     -0.438414

  @DF-RHF Final Energy:  -423.12770930546492

   => Energetics <=

    Nuclear Repulsion Energy =            452.9689223343043523
    One-Electron Energy =               -1473.9523132923438880
    Two-Electron Energy =                 597.8556816525745035
    DFT Exchange-Correlation Energy =       0.0000000000000000
    Empirical Dispersion Energy =           0.0000000000000000
    PCM Polarization Energy =               0.0000000000000000
    EFP Energy =                            0.0000000000000000
    Total Energy =                       -423.1277093054650322
    Molecular point group: c1
  Basis Set: CC-PVTZ
  Basis Set:

  -Total Gradient:
     Atom            X                  Y                   Z
    ------   -----------------  -----------------  -----------------
       1        0.000038424608    -0.000052409990     0.000010114563
       2       -0.000021273563    -0.000004351642    -0.000021139903
       3       -0.000001447053     0.000019015162    -0.000010454664
       4       -0.000003639028     0.000046380387     0.000002465929
       5        0.000005392072    -0.000011494712     0.000042177990
       6       -0.000000114943     0.000002211373     0.000004003321
       7       -0.000010649939     0.000009639088    -0.000008102007
       8        0.002803058713     0.003800230248    -0.002199959342
       9       -0.000001155721    -0.000013682931     0.000009169574
      10        0.000008193650    -0.000002448203    -0.000004134319
      11       -0.001760975522    -0.002591535056    -0.004221617690
      12       -0.002078095188    -0.002782885778     0.002525730605
      13        0.000018109165     0.000013483245    -0.000002376444
      14       -0.000034294962    -0.000001596727     0.000027089949
      15        0.001043853254     0.001569562022     0.003859239740
      16       -0.000022592856    -0.000013512611    -0.000020198925
      17        0.000009112768     0.000020967485     0.000021268336
      18       -0.000004618071    -0.000007577954    -0.000000344704
      19       -0.000000171262    -0.000003017369    -0.000012236924
      20        0.000007567542    -0.000000867068    -0.000000819966
      21        0.000001104785    -0.000002309288     0.000009425965
      22        0.000004296803     0.000011185498    -0.000000507969
      23       -0.000000085249    -0.000004985186    -0.000008793117

  **** Optimization is complete! (in 7 steps) ****
    Final optimized geometry and variables:
    Molecular point group: c1

    Geometry (in Angstrom), charge = 0, multiplicity = 1:

    O            1.824333095732     1.292159661025    -0.002280777899
    C            1.692085542340     0.119799623527     0.093242475572
    C            0.375341487874    -0.612514397800     0.131009374995
    O            2.711367744621    -0.719032113689     0.181630119022
    C           -0.837411039702     0.301234533566     0.032355449192
    H            0.387627509679    -1.337064973696    -0.676715763087
    H            0.357066566782    -1.192757623467     1.047671911834
    C           -2.151724712252    -0.470655738772     0.063494045801
    H           -0.775157834862     0.882262534019    -0.880591893360
    H           -0.813346084431     1.017704485634     0.846080067949
    C           -3.394540078382     0.430771522158     0.033202111013
    H           -2.193994119866    -1.181987800877    -0.757651256485
    H           -2.184767875764    -1.083547735393     0.961315910474
    C           -4.589862351563    -0.196639256164    -0.673130153912
    H           -3.144301608724     1.384714643328    -0.421022696504
    H           -3.674649115640     0.675393786608     1.053806436633
    H           -4.369269292519    -0.388953512493    -1.717729875697
    H           -5.457251634818     0.451961491628    -0.630597369447
    H           -4.861447346687    -1.142156983774    -0.214803376401
    C            4.011354604747    -0.165245152236     0.158700507555
    H            4.182994363219     0.366827655134    -0.765230885272
    H            4.691106777232    -0.997783212324     0.240413536210
    H            4.151553535762     0.513149771974     0.987152997132

  Mulliken Charges: (a.u.)
   Center  Symbol    Alpha    Beta     Spin     Total
       1     O     4.19699  4.19699  0.00000 -0.39398
       2     C     2.80647  2.80647  0.00000  0.38706
       3     C     3.10229  3.10229  0.00000 -0.20459
       4     O     4.14648  4.14648  0.00000 -0.29296
       5     C     3.08330  3.08330  0.00000 -0.16660
       6     H     0.43977  0.43977  0.00000  0.12046
       7     H     0.43997  0.43997  0.00000  0.12006
       8     C     3.09279  3.09279  0.00000 -0.18558
       9     H     0.44621  0.44621  0.00000  0.10757
      10     H     0.44541  0.44541  0.00000  0.10919
      11     C     3.08617  3.08617  0.00000 -0.17235
      12     H     0.45542  0.45542  0.00000  0.08916
      13     H     0.45467  0.45467  0.00000  0.09066
      14     C     3.14836  3.14836  0.00000 -0.29673
      15     H     0.45245  0.45245  0.00000  0.09510
      16     H     0.45290  0.45290  0.00000  0.09420
      17     H     0.45528  0.45528  0.00000  0.08944
      18     H     0.44856  0.44856  0.00000  0.10289
      19     H     0.45477  0.45477  0.00000  0.09046
      20     C     3.03771  3.03771  0.00000 -0.07542
      21     H     0.45434  0.45434  0.00000  0.09132
      22     H     0.44533  0.44533  0.00000  0.10933
      23     H     0.45436  0.45436  0.00000  0.09129

   Total alpha = 36.00000, Total beta = 36.00000, Total charge = -0.00000

*** Psi4 exiting successfully. Buy a developer a beer!
