  ==> Input File <==

--------------------------------------------------------------------------
set {
	reference rhf
	basis 6-31G*
}

set_num_threads( 4 )
memory 2 gb

molecule MOL {
0 1

O	 1.408985	 2.058496	 0.295126
C	 0.408908	 2.372634	 0.855735
C	 -0.888324	 1.601482	 0.836247
O	 0.304476	 3.470329	 1.594178
C	 -0.823008	 0.326187	 0.001381
H	 -1.152162	 1.383844	 1.867624
H	 -1.659786	 2.273104	 0.469518
C	 -2.149452	 -0.435131	 -0.000098
H	 -0.032084	 -0.311353	 0.383703
H	 -0.541358	 0.578829	 -1.016044
C	 -3.368779	 0.488503	 -0.000883
H	 -2.193746	 -1.087250	 -0.871175
H	 -2.195311	 -1.087803	 0.870418
C	 -4.693822	 -0.272754	 -0.001129
H	 -3.325798	 1.139422	 -0.871284
H	 -3.326423	 1.139959	 0.869145
H	 -4.781274	 -0.907928	 -0.878124
H	 -5.538651	 0.408946	 -0.001420
H	 -4.781694	 -0.907783	 0.875984
C	 1.456529	 4.286992	 1.698054
H	 2.273105	 3.737285	 2.143648
H	 1.175040	 5.115501	 2.329095
H	 1.758504	 4.643908	 0.723925

	symmetry c1
}
set optking {
	frozen_dihedral = ("
		9 5 8 12
	")
}

ee = optimize('scf')
oeprop('DIPOLE', 'QUADRUPOLE', 'MULLIKEN_CHARGES')
f=open( 'psi4out.xyz', 'w' )
f.write( "23  " )
f.write( str(ee) + "\n" )
f.write( MOL.save_string_xyz() )
f.close()
--------------------------------------------------------------------------

    Molecular point group: c1
  Charge       = 0
  Multiplicity = 1
  Basis Set: 6-31G*
  Basis Set:
  @DF-RHF Final Energy:  -422.96902016599341
    Total Energy =                       -422.9690201659933564
    Molecular point group: c1
  Basis Set: 6-31G*
  Basis Set:
  Basis Set: 6-31G*
  Basis Set:
  @DF-RHF Final Energy:  -422.96970632172059
    Total Energy =                       -422.9697063217205368
  Basis Set: 6-31G*
  Basis Set:
  Basis Set: 6-31G*
  Basis Set:
  @DF-RHF Final Energy:  -422.97154796142109
    Total Energy =                       -422.9715479614210381
  Basis Set: 6-31G*
  Basis Set:
  Basis Set: 6-31G*
  Basis Set:
  @DF-RHF Final Energy:  -422.97158321025069
    Total Energy =                       -422.9715832102513104
  Basis Set: 6-31G*
  Basis Set:
  @DF-RHF Final Energy:  -422.97171168263930
    Total Energy =                       -422.9717116826400343
  Basis Set: 6-31G*
  Basis Set:
  @DF-RHF Final Energy:  -422.97178477385421
    Total Energy =                       -422.9717847738535283
  Basis Set: 6-31G*
  Basis Set:
  Basis Set: 6-31G*
  Basis Set:
  @DF-RHF Final Energy:  -422.97178025327929
    Total Energy =                       -422.9717802532794622
  Basis Set: 6-31G*
  Basis Set:
  Basis Set: 6-31G*
  Basis Set:
  @DF-RHF Final Energy:  -422.97178860834839
    Total Energy =                       -422.9717886083478788
  Basis Set: 6-31G*
  Basis Set:
  Charge       = 0
  Multiplicity = 1
  Basis Set: 6-31G*
  Basis Set:

    Orbital Energies (a.u.)
    -----------------------

    Doubly Occupied:

       1A    -20.603316     2A    -20.545242     3A    -11.371913
       4A    -11.280653     5A    -11.234623     6A    -11.219702
       7A    -11.218978     8A    -11.218095     9A    -11.211174
      10A     -1.469050    11A     -1.362497    12A     -1.092958
      13A     -1.041472    14A     -0.986663    15A     -0.932736
      16A     -0.852379    17A     -0.792035    18A     -0.760485
      19A     -0.699920    20A     -0.682998    21A     -0.671207
      22A     -0.646854    23A     -0.613534    24A     -0.600674
      25A     -0.576932    26A     -0.559657    27A     -0.551585
      28A     -0.526688    29A     -0.520682    30A     -0.510819
      31A     -0.493588    32A     -0.466226    33A     -0.463217
      34A     -0.456857    35A     -0.452207    36A     -0.437435

  @DF-RHF Final Energy:  -422.97178883549765

   => Energetics <=

    Nuclear Repulsion Energy =            458.4533688322885041
    One-Electron Energy =               -1484.6002156636177460
    Two-Electron Energy =                 603.1750579958310254
    DFT Exchange-Correlation Energy =       0.0000000000000000
    Empirical Dispersion Energy =           0.0000000000000000
    PCM Polarization Energy =               0.0000000000000000
    EFP Energy =                            0.0000000000000000
    Total Energy =                       -422.9717888354981596
    Molecular point group: c1
  Basis Set: 6-31G*
  Basis Set:

  -Total Gradient:
     Atom            X                  Y                   Z
    ------   -----------------  -----------------  -----------------
       1        0.000004091676     0.000008183137    -0.000006110519
       2       -0.000003040198     0.000002872159    -0.000005780309
       3        0.000022016748    -0.000030286959     0.000026940593
       4        0.000012940466    -0.000005973289     0.000018871145
       5        0.000612999892    -0.001551099566    -0.007100562173
       6       -0.000008163965     0.000009605812    -0.000011011120
       7       -0.000006619429    -0.000000279988    -0.000018956434
       8        0.002947013853    -0.004382974986     0.004862494031
       9       -0.000955116385     0.001973414568     0.005256703424
      10        0.000004328315     0.000006491217     0.000007994774
      11        0.000003366256    -0.000013270685     0.000011131051
      12       -0.002620576831     0.003980089876    -0.003027682566
      13       -0.000006453163     0.000006295879     0.000002097567
      14       -0.000006909203    -0.000001824329    -0.000002871217
      15        0.000011216949     0.000001970296     0.000002475937
      16       -0.000000232382    -0.000007944343    -0.000002746270
      17       -0.000001210398    -0.000000295127     0.000001101842
      18       -0.000004941665    -0.000001944472    -0.000001590514
      19       -0.000000059246     0.000000324032    -0.000001799248
      20       -0.000005359782     0.000012484458    -0.000017894495
      21       -0.000002502999    -0.000005652147     0.000001403106
      22       -0.000000023866    -0.000001841830     0.000002193567
      23        0.000003235347     0.000001656281     0.000003597828

  **** Optimization is complete! (in 9 steps) ****
    Final optimized geometry and variables:
    Molecular point group: c1

    Geometry (in Angstrom), charge = 0, multiplicity = 1:

    O            2.331018036683     0.449781853537    -0.292282298586
    C            1.347286276806     0.820195068974     0.262957697770
    C            0.006924815669     0.125401880953     0.239784529741
    O            1.300614531335     1.926342398796     0.995131861554
    C            0.014841292695    -1.153023143376    -0.600048044063
    H           -0.266033937000    -0.081409495813     1.271401810351
    H           -0.718057506908     0.847747469917    -0.119519978911
    C           -1.293306005671    -1.960893822642    -0.535827477441
    H            0.823623593454    -1.768289306722    -0.221961219587
    H            0.253929172490    -0.901254758113    -1.627188841841
    C           -2.586099619946    -1.137256269320    -0.590411834522
    H           -1.313435591964    -2.627427884738    -1.394612302015
    H           -1.303736043324    -2.580468561135     0.357540470082
    C           -3.831589431966    -2.019051877406    -0.679496312161
    H           -2.555860376410    -0.471237218024    -1.450947689404
    H           -2.667583693132    -0.501839380297     0.286987370815
    H           -3.814263960104    -2.634551082496    -1.574331031890
    H           -4.736427972564    -1.419907548138    -0.707280610602
    H           -3.901855718114    -2.684378247020     0.176554449060
    C            2.495815090594     2.678149831719     1.100455954651
    H            3.278544905938     2.086369810520     1.552870597258
    H            2.257996303333     3.524428371084     1.725963402673
    H            2.821698771397     3.012565739050     0.126038850456

  Mulliken Charges: (a.u.)
   Center  Symbol    Alpha    Beta     Spin     Total
       1     O     4.28602  4.28602  0.00000 -0.57203
       2     C     2.60465  2.60465  0.00000  0.79071
       3     C     3.21234  3.21234  0.00000 -0.42467
       4     O     4.30742  4.30742  0.00000 -0.61484
       5     C     3.15356  3.15356  0.00000 -0.30712
       6     H     0.40127  0.40127  0.00000  0.19746
       7     H     0.39842  0.39842  0.00000  0.20316
       8     C     3.15417  3.15417  0.00000 -0.30833
       9     H     0.40866  0.40866  0.00000  0.18268
      10     H     0.41187  0.41187  0.00000  0.17626
      11     C     3.15770  3.15770  0.00000 -0.31539
      12     H     0.41893  0.41893  0.00000  0.16214
      13     H     0.42149  0.42149  0.00000  0.15703
      14     C     3.23887  3.23887  0.00000 -0.47773
      15     H     0.42274  0.42274  0.00000  0.15452
      16     H     0.42170  0.42170  0.00000  0.15661
      17     H     0.42099  0.42099  0.00000  0.15802
      18     H     0.41870  0.41870  0.00000  0.16260
      19     H     0.42137  0.42137  0.00000  0.15725
      20     C     3.09236  3.09236  0.00000 -0.18472
      21     H     0.40915  0.40915  0.00000  0.18170
      22     H     0.40851  0.40851  0.00000  0.18297
      23     H     0.40913  0.40913  0.00000  0.18175

   Total alpha = 36.00000, Total beta = 36.00000, Total charge =  0.00000
