  ==> Input File <==

--------------------------------------------------------------------------
set {
	reference rhf
	basis 6-31G*
}

set_num_threads( 1 )
memory 2 gb

molecule MOL {
0 1

O	 -0.669333	 -0.087309	 -0.110761
C	 0.486307	 0.169203	 0.000779
C	 1.608116	 -0.841643	 0.000302
O	 0.949858	 1.402840	 0.145243
C	 2.990107	 -0.200498	 -0.000684
H	 1.468623	 -1.481519	 -0.865924
H	 1.469683	 -1.481289	 0.866878
H	 3.129736	 0.423364	 -0.875135
H	 3.757882	 -0.966877	 -0.001197
H	 3.130964	 0.423383	 0.873533
C	 0.000821	 2.464136	 0.164711
C	 0.769199	 3.756877	 0.340004
H	 -0.695263	 2.299736	 0.975898
H	 -0.558669	 2.453884	 -0.760738
H	 1.328434	 3.749160	 1.268635
H	 0.081092	 4.595770	 0.360398
H	 1.465774	 3.904282	 -0.477499

	symmetry c1
}
set optking {
	frozen_dihedral = ("
		2 4 11 13,
		11 4 2 3
	")
}

ee = energy('scf')
oeprop('DIPOLE', 'QUADRUPOLE', 'MULLIKEN_CHARGES')
f=open( 'psi4out.xyz', 'w' )
f.write( "17  " )
f.write( str(ee) + "\n" )
f.write( MOL.save_string_xyz() )
f.close()
--------------------------------------------------------------------------

    Molecular point group: c1

    Geometry (in Angstrom), charge = 0, multiplicity = 1:

       Center              X                  Y                   Z               Mass
    ------------   -----------------  -----------------  -----------------  -----------------
           O         -1.545551158802    -1.059674935260    -0.189026503452    15.994914619560
           C         -0.389911158802    -0.803162935260    -0.077486503452    12.000000000000
           C          0.731897841198    -1.814008935260    -0.077963503452    12.000000000000
           O          0.073639841198     0.430474064740     0.066977496548    15.994914619560
           C          2.113888841198    -1.172863935260    -0.078949503452    12.000000000000
           H          0.592404841198    -2.453884935260    -0.944189503452     1.007825032070
           H          0.593464841198    -2.453654935260     0.788612496548     1.007825032070
           H          2.253517841198    -0.549001935260    -0.953400503452     1.007825032070
           H          2.881663841198    -1.939242935260    -0.079462503452     1.007825032070
           H          2.254745841198    -0.548982935260     0.795267496548     1.007825032070
           C         -0.875397158802     1.491770064740     0.086445496548    12.000000000000
           C         -0.107019158802     2.784511064740     0.261738496548    12.000000000000
           H         -1.571481158802     1.327370064740     0.897632496548     1.007825032070
           H         -1.434887158802     1.481518064740    -0.839003503452     1.007825032070
           H          0.452215841198     2.776794064740     1.190369496548     1.007825032070
           H         -0.795126158802     3.623404064740     0.282132496548     1.007825032070
           H          0.589555841198     2.931916064740    -0.555764503452     1.007825032070

  Charge       = 0
  Multiplicity = 1
  Basis Set: 6-31G*
  Basis Set:

    Orbital Energies (a.u.)
    -----------------------

    Doubly Occupied:

       1A    -20.602721     2A    -20.540968     3A    -11.371658
       4A    -11.285276     5A    -11.237527     6A    -11.223119
       7A    -11.217699     8A     -1.468231     9A     -1.360906
      10A     -1.075271    11A     -1.028920    12A     -0.902565
      13A     -0.861209    14A     -0.777967    15A     -0.690710
      16A     -0.681447    17A     -0.671636    18A     -0.629928
      19A     -0.572362    20A     -0.569617    21A     -0.552080
      22A     -0.548510    23A     -0.521807    24A     -0.518820
      25A     -0.505469    26A     -0.491716    27A     -0.449847
      28A     -0.430445

  @DF-RHF Final Energy:  -344.90806907365589

   => Energetics <=

    Nuclear Repulsion Energy =            319.4255457059161358
    One-Electron Energy =               -1103.0903893813942886
    Two-Electron Energy =                 438.7567746018216894
    DFT Exchange-Correlation Energy =       0.0000000000000000
    Empirical Dispersion Energy =           0.0000000000000000
    PCM Polarization Energy =               0.0000000000000000
    EFP Energy =                            0.0000000000000000
    Total Energy =                       -344.9080690736564065

  Mulliken Charges: (a.u.)
   Center  Symbol    Alpha    Beta     Spin     Total
       1     O     4.28855  4.28855  0.00000 -0.57710
       2     C     2.60172  2.60172  0.00000  0.79656
       3     C     3.21220  3.21220  0.00000 -0.42440
       4     O     4.31222  4.31222  0.00000 -0.62443
       5     C     3.23667  3.23667  0.00000 -0.47334
       6     H     0.39772  0.39772  0.00000  0.20456
       7     H     0.39797  0.39797  0.00000  0.20405
       8     H     0.41353  0.41353  0.00000  0.17294
       9     H     0.41824  0.41824  0.00000  0.16353
      10     H     0.41083  0.41083  0.00000  0.17835
      11     C     3.00188  3.00188  0.00000 -0.00375
      12     C     3.24877  3.24877  0.00000 -0.49754
      13     H     0.40983  0.40983  0.00000  0.18034
      14     H     0.40980  0.40980  0.00000  0.18040
      15     H     0.41211  0.41211  0.00000  0.17578
      16     H     0.41596  0.41596  0.00000  0.16808
      17     H     0.41201  0.41201  0.00000  0.17598

   Total alpha = 28.00000, Total beta = 28.00000, Total charge = -0.00000
