  ==> Input File <==

--------------------------------------------------------------------------
set {
	reference rhf
	basis cc-pvtz
}

set_num_threads( 4 )
memory 2 gb

molecule MOL {
0 1

O	 -2.817697	 1.304178	 0.001046
C	 -2.664672	 0.129869	 0.003507
C	 -3.797908	 -0.860100	 -0.001145
O	 -1.481217	 -0.452708	 0.001092
H	 -4.408836	 -0.679689	 -0.875387
H	 -3.443486	 -1.878443	 -0.002770
H	 -4.412123	 -0.683688	 0.871605
C	 -0.332055	 0.384012	 -0.000250
C	 0.892252	 -0.506059	 -0.000295
H	 -0.360822	 1.020205	 -0.874146
H	 -0.359817	 1.021310	 0.872861
C	 1.478404	 -0.676932	 1.398129
H	 1.636940	 -0.080035	 -0.664835
H	 0.623502	 -1.474165	 -0.410429
C	 2.714512	 -1.571666	 1.422897
H	 1.735080	 0.297911	 1.805286
H	 0.722792	 -1.093590	 2.059507
C	 3.299864	 -1.743635	 2.820323
H	 3.470980	 -1.155395	 0.763707
H	 2.459201	 -2.546172	 1.016399
H	 3.596983	 -0.788642	 3.240506
H	 4.174517	 -2.383312	 2.802961
H	 2.577240	 -2.189901	 3.495241

	symmetry c1
}
set optking {
	frozen_dihedral = ("
		13 9 8 10
	")
}

ee = optimize('scf')
oeprop('DIPOLE', 'QUADRUPOLE', 'MULLIKEN_CHARGES')
f=open( 'psi4out.xyz', 'w' )
f.write( "23  " )
f.write( str(ee) + "\n" )
f.write( MOL.save_string_xyz() )
f.close()
--------------------------------------------------------------------------

    Molecular point group: c1
  Charge       = 0
  Multiplicity = 1
  Basis Set: CC-PVTZ
  Basis Set:
  @DF-RHF Final Energy:  -423.13057397178028
    Total Energy =                       -423.1305739717799952
    Molecular point group: c1
  Basis Set: CC-PVTZ
  Basis Set:
  Basis Set: CC-PVTZ
  Basis Set:
  @DF-RHF Final Energy:  -423.13092408868050
    Total Energy =                       -423.1309240886812404
  Basis Set: CC-PVTZ
  Basis Set:
  Basis Set: CC-PVTZ
  Basis Set:
  @DF-RHF Final Energy:  -423.12946054163166
    Total Energy =                       -423.1294605416321701
  Basis Set: CC-PVTZ
  Basis Set:
  Basis Set: CC-PVTZ
  Basis Set:
  @DF-RHF Final Energy:  -423.13113233661176
    Total Energy =                       -423.1311323366121542
  Basis Set: CC-PVTZ
  Basis Set:
  Basis Set: CC-PVTZ
  Basis Set:
  @DF-RHF Final Energy:  -423.13114457348240
    Total Energy =                       -423.1311445734817198
  Basis Set: CC-PVTZ
  Basis Set:
  Basis Set: CC-PVTZ
  Basis Set:
  @DF-RHF Final Energy:  -423.13114706155778
    Total Energy =                       -423.1311470615578401
  Basis Set: CC-PVTZ
  Basis Set:
  Charge       = 0
  Multiplicity = 1
  Basis Set: CC-PVTZ
  Basis Set:

    Orbital Energies (a.u.)
    -----------------------

    Doubly Occupied:

       1A    -20.596769     2A    -20.529984     3A    -11.366739
       4A    -11.279535     5A    -11.231137     6A    -11.222320
       7A    -11.218800     8A    -11.217931     9A    -11.210123
      10A     -1.471587    11A     -1.364496    12A     -1.092885
      13A     -1.042344    14A     -1.003578    15A     -0.931884
      16A     -0.843699    17A     -0.800025    18A     -0.783653
      19A     -0.691266    20A     -0.683907    21A     -0.670377
      22A     -0.644911    23A     -0.609366    24A     -0.584850
      25A     -0.578625    26A     -0.574715    27A     -0.559881
      28A     -0.535784    29A     -0.529835    30A     -0.503534
      31A     -0.498724    32A     -0.475050    33A     -0.470885
      34A     -0.465510    35A     -0.447296    36A     -0.440128

  @DF-RHF Final Energy:  -423.13114724804825

   => Energetics <=

    Nuclear Repulsion Energy =            455.2134609838971073
    One-Electron Energy =               -1478.3449480963035967
    Two-Electron Energy =                 600.0003398643586934
    DFT Exchange-Correlation Energy =       0.0000000000000000
    Empirical Dispersion Energy =           0.0000000000000000
    PCM Polarization Energy =               0.0000000000000000
    EFP Energy =                            0.0000000000000000
    Total Energy =                       -423.1311472480477960
    Molecular point group: c1
  Basis Set: CC-PVTZ
  Basis Set:

  -Total Gradient:
     Atom            X                  Y                   Z
    ------   -----------------  -----------------  -----------------
       1       -0.000023451111     0.000015188420    -0.000001050567
       2        0.000038853366    -0.000008224845     0.000001119138
       3        0.000004103993     0.000005997316    -0.000004309838
       4       -0.000017598364    -0.000027310068     0.000001333203
       5        0.000001071275     0.000001449497     0.000000807096
       6        0.000001433095    -0.000001168008     0.000000008162
       7        0.000003232166     0.000000960010     0.000001751068
       8       -0.003133156954    -0.004785635884    -0.003662361777
       9        0.002511503436     0.003939461800     0.004813910426
      10        0.002213460845     0.003348639966     0.002265790596
      11       -0.000010679304    -0.000006032384     0.000004019012
      12       -0.000016146936    -0.000010643128     0.000002134273
      13       -0.001582013088    -0.002467343004    -0.003424492402
      14        0.000003311505    -0.000008342300     0.000002907421
      15       -0.000000421022     0.000003964312    -0.000004122669
      16        0.000003864129    -0.000007944587    -0.000003047502
      17       -0.000004220208     0.000003769769     0.000003180150
      18        0.000006786253     0.000003471558     0.000000528439
      19        0.000003298958    -0.000004700868    -0.000000339158
      20       -0.000004537601     0.000003252261     0.000002197563
      21       -0.000000630652     0.000000509659     0.000002476673
      22        0.000001672869     0.000001537461     0.000000921811
      23        0.000000263343    -0.000000856955    -0.000003361115

  **** Optimization is complete! (in 7 steps) ****
    Final optimized geometry and variables:
    Molecular point group: c1

    Geometry (in Angstrom), charge = 0, multiplicity = 1:

    O           -2.512880442576     1.730614657354    -0.646975139738
    C           -2.342641493118     0.558925859491    -0.625407175081
    C           -3.461432053070    -0.446710931041    -0.582480927273
    O           -1.150975003016    -0.006997873443    -0.637761704092
    H           -4.093792795061    -0.294667001809    -1.446863352454
    H           -3.092796486975    -1.459965945641    -0.569110486703
    H           -4.058847673307    -0.258879448399     0.299576057711
    C           -0.014656740558     0.846040741898    -0.675847662299
    C            1.241736177861    -0.014219017595    -0.631152053923
    H           -0.049757234481     1.465946400864    -1.559810847437
    H           -0.060329970330     1.518001546309     0.170631842473
    C            1.804092304642    -0.221321522011     0.770999931108
    H            1.988622210992     0.418983542424    -1.288495242493
    H            0.999381020273    -0.975904609837    -1.071372546821
    C            3.021514208610    -1.139884154567     0.801510840397
    H            2.070740476904     0.742659727900     1.197203687068
    H            1.025628621310    -0.632929821388     1.408305362753
    C            3.587546086174    -1.336503470583     2.203762536825
    H            3.794267040719    -0.732797810968     0.154881178930
    H            2.752063790151    -2.105506241924     0.382780608415
    H            3.899118491030    -0.391603499614     2.636279571207
    H            4.449217960376    -1.993778255389     2.190444832268
    H            2.848047313955    -1.773929782859     2.866154426618

  Mulliken Charges: (a.u.)
   Center  Symbol    Alpha    Beta     Spin     Total
       1     O     4.20224  4.20224  0.00000 -0.40448
       2     C     2.81264  2.81264  0.00000  0.37472
       3     C     3.13923  3.13923  0.00000 -0.27846
       4     O     4.14815  4.14815  0.00000 -0.29629
       5     H     0.44182  0.44182  0.00000  0.11637
       6     H     0.44229  0.44229  0.00000  0.11541
       7     H     0.44210  0.44210  0.00000  0.11581
       8     C     2.98482  2.98482  0.00000  0.03035
       9     C     3.09060  3.09060  0.00000 -0.18120
      10     H     0.44719  0.44719  0.00000  0.10561
      11     H     0.45533  0.45533  0.00000  0.08935
      12     C     3.08942  3.08942  0.00000 -0.17885
      13     H     0.44820  0.44820  0.00000  0.10361
      14     H     0.45008  0.45008  0.00000  0.09984
      15     C     3.08629  3.08629  0.00000 -0.17258
      16     H     0.45371  0.45371  0.00000  0.09259
      17     H     0.45129  0.45129  0.00000  0.09741
      18     C     3.14966  3.14966  0.00000 -0.29932
      19     H     0.45441  0.45441  0.00000  0.09118
      20     H     0.45325  0.45325  0.00000  0.09351
      21     H     0.45471  0.45471  0.00000  0.09058
      22     H     0.44789  0.44789  0.00000  0.10423
      23     H     0.45470  0.45470  0.00000  0.09060

   Total alpha = 36.00000, Total beta = 36.00000, Total charge =  0.00000
