  ==> Input File <==

--------------------------------------------------------------------------
set {
	reference rhf
	basis 6-31G*
}

set_num_threads( 1 )
memory 2 gb

molecule MOL {
0 1

H	 -3.261111	 -0.295142	 1.469456
C	 -3.306842	 -0.277400	 0.373456
C	 -2.660244	 0.921717	 -0.272021
O	 -3.838538	 -1.161155	 -0.216482
C	 -1.127879	 0.831888	 -0.278547
H	 -3.057659	 1.026227	 -1.274941
H	 -2.965230	 1.796632	 0.300833
C	 -0.585872	 -0.287303	 -1.171261
H	 -0.728947	 1.785029	 -0.612704
H	 -0.769705	 0.694599	 0.740580
C	 0.942470	 -0.357682	 -1.177043
H	 -0.946472	 -0.138525	 -2.186977
H	 -0.987604	 -1.245390	 -0.846882
C	 1.481511	 -1.467659	 -2.083318
H	 1.338037	 0.604742	 -1.491684
H	 1.299805	 -0.518577	 -0.160771
C	 3.005631	 -1.630383	 -2.057853
H	 1.157128	 -1.286278	 -3.106827
H	 1.028880	 -2.410941	 -1.784894
C	 3.781305	 -0.443299	 -2.631247
H	 3.264896	 -2.521509	 -2.624090
H	 3.331099	 -1.815521	 -1.036229
H	 3.464706	 -0.224653	 -3.647725
H	 3.642780	 0.456231	 -2.040798
H	 4.846019	 -0.654897	 -2.655871

	symmetry c1
}
set optking {
	frozen_dihedral = ("
		6 3 5 8,
		3 5 8 12,
		12 8 11 14,
		8 11 14 18,
		20 17 14 18
	")
}

ee = energy('scf')
oeprop('DIPOLE', 'QUADRUPOLE', 'MULLIKEN_CHARGES')
f=open( 'psi4out.xyz', 'w' )
f.write( "25  " )
f.write( str(ee) + "\n" )
f.write( MOL.save_string_xyz() )
f.close()
--------------------------------------------------------------------------

    Molecular point group: c1

    Geometry (in Angstrom), charge = 0, multiplicity = 1:

       Center              X                  Y                   Z               Mass
    ------------   -----------------  -----------------  -----------------  -----------------
           H         -3.009034133447     0.141004604054     2.532209900222     1.007825032070
           C         -3.054765133447     0.158746604054     1.436209900222    12.000000000000
           C         -2.408167133447     1.357863604054     0.790732900222    12.000000000000
           O         -3.586461133447    -0.725008395946     0.846271900222    15.994914619560
           C         -0.875802133447     1.268034604054     0.784206900222    12.000000000000
           H         -2.805582133447     1.462373604054    -0.212187099778     1.007825032070
           H         -2.713153133447     2.232778604054     1.363586900222     1.007825032070
           C         -0.333795133447     0.148843604054    -0.108507099778    12.000000000000
           H         -0.476870133447     2.221175604054     0.450049900222     1.007825032070
           H         -0.517628133447     1.130745604054     1.803333900222     1.007825032070
           C          1.194546866553     0.078464604054    -0.114289099778    12.000000000000
           H         -0.694395133447     0.297621604054    -1.124223099778     1.007825032070
           H         -0.735527133447    -0.809243395946     0.215871900222     1.007825032070
           C          1.733587866553    -1.031512395946    -1.020564099778    12.000000000000
           H          1.590113866553     1.040888604054    -0.428930099778     1.007825032070
           H          1.551881866553    -0.082430395946     0.901982900222     1.007825032070
           C          3.257707866553    -1.194236395946    -0.995099099778    12.000000000000
           H          1.409204866553    -0.850131395946    -2.044073099778     1.007825032070
           H          1.280956866553    -1.974794395946    -0.722140099778     1.007825032070
           C          4.033381866553    -0.007152395946    -1.568493099778    12.000000000000
           H          3.516972866553    -2.085362395946    -1.561336099778     1.007825032070
           H          3.583175866553    -1.379374395946     0.026524900222     1.007825032070
           H          3.716782866553     0.211493604054    -2.584971099778     1.007825032070
           H          3.894856866553     0.892377604054    -0.978044099778     1.007825032070
           H          5.098095866553    -0.218750395946    -1.593117099778     1.007825032070

  Charge       = 0
  Multiplicity = 1
  Basis Set: 6-31G*
  Basis Set:

    Orbital Energies (a.u.)
    -----------------------

    Doubly Occupied:

       1A    -20.562816     2A    -11.326300     3A    -11.235590
       4A    -11.234505     5A    -11.220012     6A    -11.217482
       7A    -11.216407     8A    -11.214962     9A    -11.209399
      10A     -1.402772    11A     -1.101775    12A     -1.068154
      13A     -1.012021    14A     -0.941830    15A     -0.875082
      16A     -0.818065    17A     -0.785489    18A     -0.778645
      19A     -0.670165    20A     -0.661752    21A     -0.631655
      22A     -0.620935    23A     -0.596836    24A     -0.589377
      25A     -0.579778    26A     -0.549645    27A     -0.536687
      28A     -0.520021    29A     -0.508683    30A     -0.494392
      31A     -0.489766    32A     -0.476975    33A     -0.462707
      34A     -0.456795    35A     -0.439671    36A     -0.409034

  @DF-RHF Final Energy:  -387.12136434873941

   => Energetics <=

    Nuclear Repulsion Energy =            441.0653740124120645
    One-Electron Energy =               -1398.5411356075869662
    Two-Electron Energy =                 570.3543972464353828
    DFT Exchange-Correlation Energy =       0.0000000000000000
    Empirical Dispersion Energy =           0.0000000000000000
    PCM Polarization Energy =               0.0000000000000000
    EFP Energy =                            0.0000000000000000
    Total Energy =                       -387.1213643487394620

  Mulliken Charges: (a.u.)
   Center  Symbol    Alpha    Beta     Spin     Total
       1     H     0.43147  0.43147  0.00000  0.13705
       2     C     2.83523  2.83523  0.00000  0.32955
       3     C     3.20405  3.20405  0.00000 -0.40809
       4     O     4.23622  4.23622  0.00000 -0.47245
       5     C     3.16516  3.16516  0.00000 -0.33033
       6     H     0.40029  0.40029  0.00000  0.19942
       7     H     0.41229  0.41229  0.00000  0.17543
       8     C     3.15490  3.15490  0.00000 -0.30980
       9     H     0.41283  0.41283  0.00000  0.17435
      10     H     0.41927  0.41927  0.00000  0.16146
      11     C     3.15451  3.15451  0.00000 -0.30903
      12     H     0.41862  0.41862  0.00000  0.16277
      13     H     0.41359  0.41359  0.00000  0.17282
      14     C     3.15299  3.15299  0.00000 -0.30598
      15     H     0.42181  0.42181  0.00000  0.15639
      16     H     0.42427  0.42427  0.00000  0.15146
      17     C     3.15267  3.15267  0.00000 -0.30534
      18     H     0.42315  0.42315  0.00000  0.15370
      19     H     0.42015  0.42015  0.00000  0.15971
      20     C     3.24122  3.24122  0.00000 -0.48243
      21     H     0.42017  0.42017  0.00000  0.15966
      22     H     0.42339  0.42339  0.00000  0.15322
      23     H     0.42204  0.42204  0.00000  0.15592
      24     H     0.42076  0.42076  0.00000  0.15849
      25     H     0.41897  0.41897  0.00000  0.16206

   Total alpha = 36.00000, Total beta = 36.00000, Total charge =  0.00000
