  ==> Input File <==

--------------------------------------------------------------------------
set {
	reference rhf
	basis cc-pvtz
}

set_num_threads( 4 )
memory 2 gb

molecule MOL {
0 1

H	 4.556179	 0.351908	 0.850498
C	 3.710946	 -0.300974	 0.667645
C	 2.410431	 0.491783	 0.598003
H	 3.897657	 -0.829299	 -0.261360
H	 3.683415	 -1.035975	 1.465161
C	 1.195359	 -0.387698	 0.342897
H	 2.469910	 1.237581	 -0.186862
H	 2.269404	 1.034296	 1.529865
N	 -0.018273	 0.395747	 0.258946
H	 1.323623	 -0.911354	 -0.599706
H	 1.136573	 -1.157977	 1.117686
C	 -1.215959	 -0.382435	 0.027143
H	 -0.125774	 0.940571	 1.088963
C	 -2.451944	 0.502410	 -0.038737
H	 -1.099441	 -0.906065	 -0.917003
H	 -1.361991	 -1.152527	 0.790498
C	 -3.752217	 -0.292550	 0.005776
H	 -2.407325	 1.093801	 -0.946480
H	 -2.431979	 1.206234	 0.790023
H	 -3.817783	 -0.982946	 -0.828547
H	 -4.612613	 0.364348	 -0.042306
H	 -3.830160	 -0.871666	 0.919868

	symmetry c1
}
set optking {
	frozen_dihedral = ("
		15 12 14 18
	")
}

ee = optimize('scf')
oeprop('DIPOLE', 'QUADRUPOLE', 'MULLIKEN_CHARGES')
f=open( 'psi4out.xyz', 'w' )
f.write( "22  " )
f.write( str(ee) + "\n" )
f.write( MOL.save_string_xyz() )
f.close()
--------------------------------------------------------------------------

    Molecular point group: c1
  Charge       = 0
  Multiplicity = 1
  Basis Set: CC-PVTZ
  Basis Set:
  @DF-RHF Final Energy:  -290.48942489182582
    Total Energy =                       -290.4894248918257063
    Molecular point group: c1
  Basis Set: CC-PVTZ
  Basis Set:
  Basis Set: CC-PVTZ
  Basis Set:
  @DF-RHF Final Energy:  -290.48951215236343
    Total Energy =                       -290.4895121523634316
  Basis Set: CC-PVTZ
  Basis Set:
  Basis Set: CC-PVTZ
  Basis Set:
  @DF-RHF Final Energy:  -290.48953282719236
    Total Energy =                       -290.4895328271921358
  Basis Set: CC-PVTZ
  Basis Set:
  Charge       = 0
  Multiplicity = 1
  Basis Set: CC-PVTZ
  Basis Set:

    Orbital Energies (a.u.)
    -----------------------

    Doubly Occupied:

       1A    -15.527831     2A    -11.236293     3A    -11.236054
       4A    -11.211884     5A    -11.211759     6A    -11.207514
       7A    -11.207314     8A     -1.207178     9A     -1.060243
      10A     -1.026911    11A     -0.928604    12A     -0.868830
      13A     -0.811685    14A     -0.793878    15A     -0.670175
      16A     -0.627896    17A     -0.616336    18A     -0.612679
      19A     -0.575055    20A     -0.563180    21A     -0.531269
      22A     -0.528951    23A     -0.513966    24A     -0.485342
      25A     -0.483470    26A     -0.474638    27A     -0.466504
      28A     -0.451759    29A     -0.361284

  @DF-RHF Final Energy:  -290.48953311694152

   => Energetics <=

    Nuclear Repulsion Energy =            313.6752666059697958
    One-Electron Energy =               -1013.3326269548105074
    Two-Electron Energy =                 409.1678272318990821
    DFT Exchange-Correlation Energy =       0.0000000000000000
    Empirical Dispersion Energy =           0.0000000000000000
    PCM Polarization Energy =               0.0000000000000000
    EFP Energy =                            0.0000000000000000
    Total Energy =                       -290.4895331169416295
    Molecular point group: c1
  Basis Set: CC-PVTZ
  Basis Set:

  -Total Gradient:
     Atom            X                  Y                   Z
    ------   -----------------  -----------------  -----------------
       1        0.000000923072    -0.000000570024     0.000001801640
       2        0.000000214759    -0.000000274751     0.000011013480
       3       -0.000000907514    -0.000008673281    -0.000002014980
       4       -0.000002688523     0.000002840142    -0.000000321334
       5        0.000002035725    -0.000002516430    -0.000000690617
       6        0.000000943083     0.000023974698    -0.000030442739
       7       -0.000007581037    -0.000005882314    -0.000001634899
       8        0.000004547607     0.000003401568     0.000001780177
       9       -0.000007448116    -0.000044776985     0.000001514762
      10        0.000007363008    -0.000010875914     0.000000890663
      11        0.000006540506     0.000002389351     0.000002713817
      12       -0.002037288952    -0.002734817462     0.000844887833
      13       -0.000023079021    -0.000011831623    -0.000021582655
      14        0.001862999928     0.002722295782     0.001352263254
      15        0.001464166150     0.001933435997    -0.000882743720
      16       -0.000009510379    -0.000005091967    -0.000005597500
      17        0.000000667503     0.000013663533     0.000013253336
      18       -0.001239616646    -0.001849541053    -0.001272669106
      19       -0.000003493046    -0.000011876881    -0.000005748891
      20       -0.000002563182    -0.000004506868    -0.000003803242
      21       -0.000007572385    -0.000002492046    -0.000000505731
      22       -0.000008652543    -0.000008273475    -0.000002363550

  **** Optimization is complete! (in 4 steps) ****
    Final optimized geometry and variables:
    Molecular point group: c1

    Geometry (in Angstrom), charge = 0, multiplicity = 1:

    H            4.579093507764     0.360833678820     0.545423936105
    C            3.733354839817    -0.292938930959     0.368058270591
    C            2.430192486989     0.496945899528     0.319300159866
    H            3.910282019478    -0.814369670184    -0.566736551521
    H            3.716997231772    -1.033444579936     1.160779901401
    C            1.214363388836    -0.383689694702     0.071764538559
    H            2.478655277614     1.248523836085    -0.460785306419
    H            2.298697459379     1.032212200311     1.256738617695
    N           -0.001676065964     0.397465744286     0.005766251198
    H            1.334255688242    -0.901569887424    -0.875154591993
    H            1.165804362733    -1.158730578252     0.842636296871
    C           -1.202085488640    -0.382437757779    -0.211760119314
    H           -0.098864072556     0.940530927801     0.838053918842
    C           -2.432797776141     0.510295804929    -0.302426343857
    H           -1.076698445868    -0.912224892632    -1.150921868307
    H           -1.349931028862    -1.138206439922     0.564532058672
    C           -3.735888856994    -0.283311245917    -0.299452911538
    H           -2.372702502554     1.095673125400    -1.212961759344
    H           -2.434281505851     1.210974849971     0.527911688903
    H           -3.765191146976    -0.991040966472    -1.121626381680
    H           -4.592537909312     0.372660866015    -0.400419232353
    H           -3.855289101661    -0.843944696817     0.621528462293

  Mulliken Charges: (a.u.)
   Center  Symbol    Alpha    Beta     Spin     Total
       1     H     0.44772  0.44772  0.00000  0.10457
       2     C     3.15359  3.15359  0.00000 -0.30718
       3     C     3.08028  3.08028  0.00000 -0.16056
       4     H     0.45476  0.45476  0.00000  0.09049
       5     H     0.45613  0.45613  0.00000  0.08774
       6     C     3.02203  3.02203  0.00000 -0.04406
       7     H     0.44913  0.44913  0.00000  0.10174
       8     H     0.45969  0.45969  0.00000  0.08062
       9     N     3.63989  3.63989  0.00000 -0.27977
      10     H     0.45932  0.45932  0.00000  0.08137
      11     H     0.47532  0.47532  0.00000  0.04935
      12     C     3.02432  3.02432  0.00000 -0.04864
      13     H     0.44512  0.44512  0.00000  0.10976
      14     C     3.07818  3.07818  0.00000 -0.15636
      15     H     0.45794  0.45794  0.00000  0.08412
      16     H     0.47410  0.47410  0.00000  0.05179
      17     C     3.15402  3.15402  0.00000 -0.30804
      18     H     0.44986  0.44986  0.00000  0.10028
      19     H     0.45946  0.45946  0.00000  0.08107
      20     H     0.45510  0.45510  0.00000  0.08979
      21     H     0.44784  0.44784  0.00000  0.10432
      22     H     0.45619  0.45619  0.00000  0.08762

   Total alpha = 29.00000, Total beta = 29.00000, Total charge = -0.00000
