  ==> Input File <==

--------------------------------------------------------------------------
set {
	reference rhf
	basis 6-31G*
}

set_num_threads( 1 )
memory 2 gb

molecule MOL {
0 1

H	 2.246025	 -3.153082	 1.893359
C	 2.366470	 -2.354327	 1.168629
C	 1.090661	 -1.521669	 1.050491
H	 3.205828	 -1.743190	 1.488341
H	 2.631859	 -2.808610	 0.218133
C	 1.217350	 -0.386724	 0.039429
H	 0.829001	 -1.097831	 2.015004
H	 0.264026	 -2.168739	 0.761758
N	 0.000003	 0.397874	 -0.023260
H	 2.025602	 0.273896	 0.341547
H	 1.500443	 -0.795397	 -0.936390
C	 -1.217365	 -0.386708	 0.039277
H	 -0.000031	 1.072115	 0.718656
C	 -2.452633	 0.504241	 -0.042481
H	 -1.215291	 -1.074557	 -0.802042
H	 -1.269739	 -1.003477	 0.942735
C	 -3.758029	 -0.289423	 -0.010781
H	 -2.394220	 1.093569	 -0.952170
H	 -2.440793	 1.210787	 0.785871
H	 -3.816659	 -0.981993	 -0.845726
H	 -4.617837	 0.370165	 -0.069296
H	 -3.847478	 -0.867502	 0.904682

	symmetry c1
}
set optking {
	frozen_dihedral = ("
		15 12 14 18
	")
}

ee = energy('scf')
oeprop('DIPOLE', 'QUADRUPOLE', 'MULLIKEN_CHARGES')
f=open( 'psi4out.xyz', 'w' )
f.write( "22  " )
f.write( str(ee) + "\n" )
f.write( MOL.save_string_xyz() )
f.close()
--------------------------------------------------------------------------

    Molecular point group: c1

    Geometry (in Angstrom), charge = 0, multiplicity = 1:

       Center              X                  Y                   Z               Mass
    ------------   -----------------  -----------------  -----------------  -----------------
           H          2.641550941154    -2.565574176856     1.565788233755     1.007825032070
           C          2.761995941154    -1.766819176856     0.841058233755    12.000000000000
           C          1.486186941154    -0.934161176856     0.722920233755    12.000000000000
           H          3.601353941154    -1.155682176856     1.160770233755     1.007825032070
           H          3.027384941154    -2.221102176856    -0.109437766245     1.007825032070
           C          1.612875941154     0.200783823144    -0.288141766245    12.000000000000
           H          1.224526941154    -0.510323176856     1.687433233755     1.007825032070
           H          0.659551941154    -1.581231176856     0.434187233755     1.007825032070
           N          0.395528941154     0.985381823144    -0.350830766245    14.003074004780
           H          2.421127941154     0.861403823144     0.013976233755     1.007825032070
           H          1.895968941154    -0.207889176856    -1.263960766245     1.007825032070
           C         -0.821839058846     0.200799823144    -0.288293766245    12.000000000000
           H          0.395494941154     1.659622823144     0.391085233755     1.007825032070
           C         -2.057107058846     1.091748823144    -0.370051766245    12.000000000000
           H         -0.819765058846    -0.487049176856    -1.129612766245     1.007825032070
           H         -0.874213058846    -0.415969176856     0.615164233755     1.007825032070
           C         -3.362503058846     0.298084823144    -0.338351766245    12.000000000000
           H         -1.998694058846     1.681076823144    -1.279740766245     1.007825032070
           H         -2.045267058846     1.798294823144     0.458300233755     1.007825032070
           H         -3.421133058846    -0.394485176856    -1.173296766245     1.007825032070
           H         -4.222311058846     0.957672823144    -0.396866766245     1.007825032070
           H         -3.451952058846    -0.279994176856     0.577111233755     1.007825032070

  Charge       = 0
  Multiplicity = 1
  Basis Set: 6-31G*
  Basis Set:

    Orbital Energies (a.u.)
    -----------------------

    Doubly Occupied:

       1A    -15.532498     2A    -11.239001     3A    -11.236024
       4A    -11.212439     5A    -11.211145     6A    -11.209389
       7A    -11.209284     8A     -1.207762     9A     -1.055790
      10A     -1.026385    11A     -0.928874    12A     -0.875813
      13A     -0.816266    14A     -0.786465    15A     -0.666822
      16A     -0.631577    17A     -0.618717    18A     -0.603419
      19A     -0.579081    20A     -0.560125    21A     -0.542491
      22A     -0.526162    23A     -0.499923    24A     -0.495765
      25A     -0.483548    26A     -0.468839    27A     -0.464990
      28A     -0.460971    29A     -0.351953

  @DF-RHF Final Energy:  -290.37249894366772

   => Energetics <=

    Nuclear Repulsion Energy =            321.3886376864891758
    One-Electron Energy =               -1028.5193209381823181
    Two-Electron Energy =                 416.7581843080230897
    DFT Exchange-Correlation Energy =       0.0000000000000000
    Empirical Dispersion Energy =           0.0000000000000000
    PCM Polarization Energy =               0.0000000000000000
    EFP Energy =                            0.0000000000000000
    Total Energy =                       -290.3724989436701094

  Mulliken Charges: (a.u.)
   Center  Symbol    Alpha    Beta     Spin     Total
       1     H     0.41887  0.41887  0.00000  0.16227
       2     C     3.24113  3.24113  0.00000 -0.48226
       3     C     3.16662  3.16662  0.00000 -0.33324
       4     H     0.42261  0.42261  0.00000  0.15478
       5     H     0.42110  0.42110  0.00000  0.15780
       6     C     3.05259  3.05259  0.00000 -0.10519
       7     H     0.42492  0.42492  0.00000  0.15016
       8     H     0.41625  0.41625  0.00000  0.16750
       9     N     3.85041  3.85041  0.00000 -0.70081
      10     H     0.42099  0.42099  0.00000  0.15802
      11     H     0.42108  0.42108  0.00000  0.15785
      12     C     3.05940  3.05940  0.00000 -0.11880
      13     H     0.33440  0.33440  0.00000  0.33120
      14     C     3.15296  3.15296  0.00000 -0.30592
      15     H     0.42141  0.42141  0.00000  0.15717
      16     H     0.43064  0.43064  0.00000  0.13873
      17     C     3.24324  3.24324  0.00000 -0.48647
      18     H     0.41326  0.41326  0.00000  0.17347
      19     H     0.42731  0.42731  0.00000  0.14539
      20     H     0.42095  0.42095  0.00000  0.15811
      21     H     0.41778  0.41778  0.00000  0.16444
      22     H     0.42210  0.42210  0.00000  0.15579

   Total alpha = 29.00000, Total beta = 29.00000, Total charge =  0.00000
