  ==> Input File <==

--------------------------------------------------------------------------
set {
	reference rhf
	basis 6-31G*
}

set_num_threads( 1 )
memory 2 gb

molecule MOL {
0 1

H	 -3.151636	 -1.197561	 -0.024167
O	 -2.310168	 -0.871793	 -0.309793
C	 -2.026376	 0.340750	 0.341611
C	 -0.673256	 0.843270	 -0.132153
H	 -2.792215	 1.080697	 0.115987
H	 -2.013526	 0.200402	 1.421792
C	 0.486613	 -0.083066	 0.235839
H	 -0.715586	 0.970948	 -1.210718
H	 -0.508072	 1.829858	 0.297090
C	 1.840406	 0.433480	 -0.254303
H	 0.300215	 -1.068318	 -0.178947
H	 0.519509	 -0.203625	 1.318070
C	 3.000220	 -0.489290	 0.118523
H	 1.809207	 0.553576	 -1.335192
H	 2.021860	 1.424500	 0.157276
H	 2.864959	 -1.479103	 -0.307933
H	 3.946603	 -0.099227	 -0.243630
H	 3.080049	 -0.602997	 1.196117

	symmetry c1
}
set optking {
	frozen_dihedral = ("
		14 10 7 11,
		10 7 4 8,
		2 3 4 8
	")
}

ee = energy('scf')
oeprop('DIPOLE', 'QUADRUPOLE', 'MULLIKEN_CHARGES')
f=open( 'psi4out.xyz', 'w' )
f.write( "18  " )
f.write( str(ee) + "\n" )
f.write( MOL.save_string_xyz() )
f.close()
--------------------------------------------------------------------------

    Molecular point group: c1

    Geometry (in Angstrom), charge = 0, multiplicity = 1:

       Center              X                  Y                   Z               Mass
    ------------   -----------------  -----------------  -----------------  -----------------
           H         -3.151450550257    -1.197761366448    -0.023874924423     1.007825032070
           O         -2.309982550257    -0.871993366448    -0.309500924423    15.994914619560
           C         -2.026190550257     0.340549633552     0.341903075577    12.000000000000
           C         -0.673070550257     0.843069633552    -0.131860924423    12.000000000000
           H         -2.792029550257     1.080496633552     0.116279075577     1.007825032070
           H         -2.013340550257     0.200201633552     1.422084075577     1.007825032070
           C          0.486798449743    -0.083266366448     0.236131075577    12.000000000000
           H         -0.715400550257     0.970747633552    -1.210425924423     1.007825032070
           H         -0.507886550257     1.829657633552     0.297382075577     1.007825032070
           C          1.840591449743     0.433279633552    -0.254010924423    12.000000000000
           H          0.300400449743    -1.068518366448    -0.178654924423     1.007825032070
           H          0.519694449743    -0.203825366448     1.318362075577     1.007825032070
           C          3.000405449743    -0.489490366448     0.118815075577    12.000000000000
           H          1.809392449743     0.553375633552    -1.334899924423     1.007825032070
           H          2.022045449743     1.424299633552     0.157568075577     1.007825032070
           H          2.865144449743    -1.479303366448    -0.307640924423     1.007825032070
           H          3.946788449743    -0.099427366448    -0.243337924423     1.007825032070
           H          3.080234449743    -0.603197366448     1.196409075577     1.007825032070

  Charge       = 0
  Multiplicity = 1
  Basis Set: 6-31G*
  Basis Set:

    Orbital Energies (a.u.)
    -----------------------

    Doubly Occupied:

       1A    -20.553039     2A    -11.268037     3A    -11.211978
       4A    -11.210675     5A    -11.206324     6A    -11.204470
       7A     -1.359766     8A     -1.074706     9A     -1.008683
      10A     -0.913009    11A     -0.817571    12A     -0.783759
      13A     -0.704926    14A     -0.642149    15A     -0.625075
      16A     -0.579189    17A     -0.570993    18A     -0.557738
      19A     -0.522114    20A     -0.501173    21A     -0.488138
      22A     -0.467199    23A     -0.458230    24A     -0.447272
      25A     -0.429043

  @DF-RHF Final Energy:  -271.17994918683246

   => Energetics <=

    Nuclear Repulsion Energy =            249.0426137796320916
    One-Electron Energy =                -861.2345875136788891
    Two-Electron Energy =                 341.0120245472140823
    DFT Exchange-Correlation Energy =       0.0000000000000000
    Empirical Dispersion Energy =           0.0000000000000000
    PCM Polarization Energy =               0.0000000000000000
    EFP Energy =                            0.0000000000000000
    Total Energy =                       -271.1799491868326868

  Mulliken Charges: (a.u.)
   Center  Symbol    Alpha    Beta     Spin     Total
       1     H     0.28057  0.28057  0.00000  0.43886
       2     O     4.36967  4.36967  0.00000 -0.73935
       3     C     2.99728  2.99728  0.00000  0.00544
       4     C     3.16021  3.16021  0.00000 -0.32041
       5     H     0.42942  0.42942  0.00000  0.14117
       6     H     0.43251  0.43251  0.00000  0.13499
       7     C     3.15307  3.15307  0.00000 -0.30615
       8     H     0.41519  0.41519  0.00000  0.16961
       9     H     0.42420  0.42420  0.00000  0.15161
      10     C     3.15179  3.15179  0.00000 -0.30358
      11     H     0.40784  0.40784  0.00000  0.18433
      12     H     0.42759  0.42759  0.00000  0.14482
      13     C     3.23891  3.23891  0.00000 -0.47781
      14     H     0.42250  0.42250  0.00000  0.15500
      15     H     0.42535  0.42535  0.00000  0.14931
      16     H     0.42086  0.42086  0.00000  0.15828
      17     H     0.42038  0.42038  0.00000  0.15924
      18     H     0.42267  0.42267  0.00000  0.15465

   Total alpha = 25.00000, Total beta = 25.00000, Total charge =  0.00000
