  ==> Input File <==

--------------------------------------------------------------------------
set {
	reference rhf
	basis 6-31G*
}

set_num_threads( 4 )
memory 2 gb

molecule MOL {
0 1

H	 -2.116253	 -0.284124	 -0.771836
O	 -1.422729	 -0.573567	 -0.196946
C	 -0.731407	 0.539437	 0.309156
C	 0.680193	 0.672443	 -0.251532
H	 -1.319765	 1.404033	 0.030086
H	 -0.700012	 0.506517	 1.397677
C	 1.599139	 -0.492137	 0.118598
H	 0.616402	 0.758534	 -1.332349
H	 1.107032	 1.602637	 0.117369
H	 1.239738	 -1.428634	 -0.297334
H	 2.601428	 -0.335055	 -0.265730
H	 1.674954	 -0.608418	 1.197020

	symmetry c1
}
set optking {
	frozen_dihedral = ("
		1 2 3 4
	")
}

ee = optimize('scf')
oeprop('DIPOLE', 'QUADRUPOLE', 'MULLIKEN_CHARGES')
f=open( 'psi4out.xyz', 'w' )
f.write( "12  " )
f.write( str(ee) + "\n" )
f.write( MOL.save_string_xyz() )
f.close()
--------------------------------------------------------------------------

    Molecular point group: c1
  Charge       = 0
  Multiplicity = 1
  Basis Set: 6-31G*
  Basis Set:
  @DF-RHF Final Energy:  -193.10708626247958
    Total Energy =                       -193.1070862624796689
    Molecular point group: c1
  Basis Set: 6-31G*
  Basis Set:
  Basis Set: 6-31G*
  Basis Set:
  @DF-RHF Final Energy:  -193.10828538488659
    Total Energy =                       -193.1082853848866421
  Basis Set: 6-31G*
  Basis Set:
  Basis Set: 6-31G*
  Basis Set:
  @DF-RHF Final Energy:  -193.10869151050372
    Total Energy =                       -193.1086915105037747
  Basis Set: 6-31G*
  Basis Set:
  Basis Set: 6-31G*
  Basis Set:
  @DF-RHF Final Energy:  -193.10869731213990
    Total Energy =                       -193.1086973121398671
  Basis Set: 6-31G*
  Basis Set:
  Charge       = 0
  Multiplicity = 1
  Basis Set: 6-31G*
  Basis Set:

    Orbital Energies (a.u.)
    -----------------------

    Doubly Occupied:

       1A    -20.552210     2A    -11.268578     3A    -11.214490
       4A    -11.202863     5A     -1.358620     6A     -1.046086
       7A     -0.918120     8A     -0.804435     9A     -0.696940
      10A     -0.639033    11A     -0.601347    12A     -0.565425
      13A     -0.533012    14A     -0.510091    15A     -0.480038
      16A     -0.466031    17A     -0.427898

  @DF-RHF Final Energy:  -193.10869808293143

   => Energetics <=

    Nuclear Repulsion Energy =            133.0434906498977057
    One-Electron Energy =                -525.7339452734599945
    Two-Electron Energy =                 199.5817565406308347
    DFT Exchange-Correlation Energy =       0.0000000000000000
    Empirical Dispersion Energy =           0.0000000000000000
    PCM Polarization Energy =               0.0000000000000000
    EFP Energy =                            0.0000000000000000
    Total Energy =                       -193.1086980829314541
    Molecular point group: c1
  Basis Set: 6-31G*
  Basis Set:

  -Total Gradient:
     Atom            X                  Y                   Z
    ------   -----------------  -----------------  -----------------
       1       -0.000746597746     0.000037549074     0.000891659146
       2        0.001035816369    -0.000178887836    -0.000863312822
       3       -0.000555689392     0.000492900457    -0.000624595368
       4        0.000239024083    -0.000406803402     0.000584274540
       5        0.000015590802     0.000012095423    -0.000007773693
       6        0.000029700200     0.000009631053     0.000004096740
       7       -0.000006977020     0.000026934868    -0.000003210573
       8       -0.000002155735     0.000007265718     0.000001770161
       9        0.000002365177     0.000006525960     0.000008541844
      10       -0.000006789765    -0.000002626431     0.000001780433
      11       -0.000013103779     0.000003734123    -0.000003264633
      12        0.000008816807    -0.000008319005     0.000010034225

  **** Optimization is complete! (in 5 steps) ****
    Final optimized geometry and variables:
    Molecular point group: c1

    Geometry (in Angstrom), charge = 0, multiplicity = 1:

    H           -2.050539827725    -0.374448302803    -0.776597825870
    O           -1.362160799198    -0.615304790630    -0.176257057673
    C           -0.723314592271     0.539529684172     0.317350175583
    C            0.690297177023     0.671263230985    -0.233375082709
    H           -1.300740105315     1.428940881545     0.078340712103
    H           -0.690809720633     0.459726963257     1.399518104955
    C            1.583996323421    -0.512016271951     0.132812726491
    H            0.637507311715     0.770795762872    -1.315027100780
    H            1.122875860284     1.594683240900     0.147193371452
    H            1.166469520867    -1.439193483943    -0.240718828301
    H            2.577864726978    -0.393007799719    -0.287361713864
    H            1.688612461198    -0.602377497948     1.210725266280

  Mulliken Charges: (a.u.)
   Center  Symbol    Alpha    Beta     Spin     Total
       1     H     0.27955  0.27955  0.00000  0.44090
       2     O     4.37166  4.37166  0.00000 -0.74331
       3     C     2.99990  2.99990  0.00000  0.00020
       4     C     3.15607  3.15607  0.00000 -0.31214
       5     H     0.42926  0.42926  0.00000  0.14147
       6     H     0.42161  0.42161  0.00000  0.15678
       7     C     3.24199  3.24199  0.00000 -0.48398
       8     H     0.42324  0.42324  0.00000  0.15353
       9     H     0.42541  0.42541  0.00000  0.14917
      10     H     0.40682  0.40682  0.00000  0.18636
      11     H     0.42113  0.42113  0.00000  0.15774
      12     H     0.42335  0.42335  0.00000  0.15330

   Total alpha = 17.00000, Total beta = 17.00000, Total charge = -0.00000
