  ==> Input File <==

--------------------------------------------------------------------------
set {
	reference rhf
	basis cc-pvtz
}

set_num_threads( 4 )
memory 2 gb

molecule MOL {
0 1

H	 -2.362939	 -1.309000	 -0.383250
C	 -1.359344	 -1.272457	 0.020748
C	 -0.684082	 0.000127	 -0.464918
H	 -0.825835	 -2.151141	 -0.318537
H	 -1.416276	 -1.292399	 1.099455
C	 -1.359089	 1.272668	 0.021259
N	 0.742439	 -0.000109	 0.007333
H	 -0.596914	 0.000345	 -1.538146
H	 -2.362696	 1.309620	 -0.382686
H	 -0.825392	 2.151374	 -0.317674
H	 -1.415983	 1.292181	 1.099973
O	 1.005736	 -0.676755	 0.943532
O	 1.514885	 0.676242	 -0.586103

	symmetry c1
}
set optking {
	frozen_dihedral = ("
		12 7 3 8
	")
}

ee = optimize('scf')
oeprop('DIPOLE', 'QUADRUPOLE', 'MULLIKEN_CHARGES')
f=open( 'psi4out.xyz', 'w' )
f.write( "13  " )
f.write( str(ee) + "\n" )
f.write( MOL.save_string_xyz() )
f.close()
--------------------------------------------------------------------------

    Molecular point group: c1
  Charge       = 0
  Multiplicity = 1
  Basis Set: CC-PVTZ
  Basis Set:
  @DF-RHF Final Energy:  -321.86316616765703
    Total Energy =                       -321.8631661676569138
    Molecular point group: c1
  Basis Set: CC-PVTZ
  Basis Set:
  Basis Set: CC-PVTZ
  Basis Set:
  @DF-RHF Final Energy:  -321.86249835997626
    Total Energy =                       -321.8624983599762572
  Basis Set: CC-PVTZ
  Basis Set:
  Basis Set: CC-PVTZ
  Basis Set:
  @DF-RHF Final Energy:  -321.85854141815150
    Total Energy =                       -321.8585414181513897
  Basis Set: CC-PVTZ
  Basis Set:
  Basis Set: CC-PVTZ
  Basis Set:
  @DF-RHF Final Energy:  -321.86373767382213
    Total Energy =                       -321.8637376738222997
  Basis Set: CC-PVTZ
  Basis Set:
  Basis Set: CC-PVTZ
  Basis Set:
  @DF-RHF Final Energy:  -321.86382726720967
    Total Energy =                       -321.8638272672096718
  Basis Set: CC-PVTZ
  Basis Set:
  Basis Set: CC-PVTZ
  Basis Set:
  @DF-RHF Final Energy:  -321.86386747963962
    Total Energy =                       -321.8638674796392820
  Basis Set: CC-PVTZ
  Basis Set:
  Basis Set: CC-PVTZ
  Basis Set:
  @DF-RHF Final Energy:  -321.86387096361887
    Total Energy =                       -321.8638709636190924
  Basis Set: CC-PVTZ
  Basis Set:
  Charge       = 0
  Multiplicity = 1
  Basis Set: CC-PVTZ
  Basis Set:

    Orbital Energies (a.u.)
    -----------------------

    Doubly Occupied:

       1A    -20.590848     2A    -20.586534     3A    -15.833079
       4A    -11.305183     5A    -11.244749     6A    -11.238316
       7A     -1.634122     8A     -1.418274     9A     -1.141789
      10A     -0.971908    11A     -0.957496    12A     -0.815929
      13A     -0.757823    14A     -0.731020    15A     -0.725628
      16A     -0.646683    17A     -0.593580    18A     -0.587749
      19A     -0.571219    20A     -0.528404    21A     -0.521752
      22A     -0.484864    23A     -0.471444    24A     -0.451523

  @DF-RHF Final Energy:  -321.86387131971412

   => Energetics <=

    Nuclear Repulsion Energy =            257.3796666656547814
    One-Electron Energy =                -948.8672532364874996
    Two-Electron Energy =                 369.6237152511183695
    DFT Exchange-Correlation Energy =       0.0000000000000000
    Empirical Dispersion Energy =           0.0000000000000000
    PCM Polarization Energy =               0.0000000000000000
    EFP Energy =                            0.0000000000000000
    Total Energy =                       -321.8638713197143488
    Molecular point group: c1
  Basis Set: CC-PVTZ
  Basis Set:

  -Total Gradient:
     Atom            X                  Y                   Z
    ------   -----------------  -----------------  -----------------
       1        0.000006110530     0.000004416036     0.000002420404
       2        0.000007729601     0.000013411058    -0.000004889937
       3        0.000036064901     0.000870671492    -0.000259071019
       4       -0.000004105015     0.000004335976     0.000000414633
       5       -0.000003652992    -0.000006898143     0.000011845319
       6       -0.000001508367     0.000001063379     0.000002914644
       7       -0.000328735460     0.000887606983     0.000860156079
       8        0.000016658035    -0.000997392882    -0.000008726649
       9        0.000002079757    -0.000008642798     0.000000027503
      10        0.000007951463    -0.000000689515    -0.000002711638
      11        0.000000491969    -0.000004756400     0.000001004462
      12        0.000253635583    -0.000744792690    -0.000633049844
      13        0.000007279996    -0.000018332496     0.000029666043

  **** Optimization is complete! (in 8 steps) ****
    Final optimized geometry and variables:
    Molecular point group: c1

    Geometry (in Angstrom), charge = 0, multiplicity = 1:

    H           -2.375120884175    -1.309242911491    -0.427281397549
    C           -1.385582783814    -1.289415653152     0.012746277756
    C           -0.684417505919    -0.030366475361    -0.456374475735
    H           -0.854664560525    -2.177291050830    -0.300854194366
    H           -1.482854716026    -1.311341648048     1.088100017186
    C           -1.348560723865     1.254435211473     0.022341207314
    N            0.746780314007     0.001665025436     0.011285717559
    H           -0.592896170659    -0.022210990140    -1.531126291252
    H           -2.364767938897     1.283369952100    -0.348131551096
    H           -0.821697369522     2.123160048072    -0.344089268810
    H           -1.379165825616     1.288357027307     1.104365817692
    O            1.055152621084    -0.664088694490     0.940365389482
    O            1.477772548688     0.719545495284    -0.586355037815

  Mulliken Charges: (a.u.)
   Center  Symbol    Alpha    Beta     Spin     Total
       1     H     0.45020  0.45020  0.00000  0.09961
       2     C     3.14325  3.14325  0.00000 -0.28650
       3     C     3.00744  3.00744  0.00000 -0.01488
       4     H     0.43958  0.43958  0.00000  0.12084
       5     H     0.44034  0.44034  0.00000  0.11932
       6     C     3.14336  3.14336  0.00000 -0.28672
       7     N     3.27434  3.27434  0.00000  0.45132
       8     H     0.42715  0.42715  0.00000  0.14571
       9     H     0.44866  0.44866  0.00000  0.10268
      10     H     0.43411  0.43411  0.00000  0.13178
      11     H     0.44441  0.44441  0.00000  0.11118
      12     O     4.17156  4.17156  0.00000 -0.34311
      13     O     4.17562  4.17562  0.00000 -0.35123

   Total alpha = 24.00000, Total beta = 24.00000, Total charge = -0.00000
