  ==> Input File <==

--------------------------------------------------------------------------
set {
	reference rhf
	basis cc-pvtz
}

set_num_threads( 4 )
memory 2 gb

molecule MOL {
0 1

H	 1.097818	 -0.601522	 -0.237622
C	 0.848385	 0.440008	 0.000011
C	 -0.623497	 0.751021	 0.000090
O	 1.707242	 1.218716	 0.230711
C	 -1.523725	 -0.474323	 -0.000013
H	 -0.813143	 1.382932	 -0.864897
H	 -0.813071	 1.382716	 0.865253
H	 -1.342980	 -1.087348	 -0.873016
H	 -2.565269	 -0.177464	 0.000070
H	 -1.342898	 -1.087564	 0.872820

	symmetry c1
}
set optking {
	frozen_dihedral = ("
		4 2 3 6
	")
}

ee = optimize('scf')
oeprop('DIPOLE', 'QUADRUPOLE', 'MULLIKEN_CHARGES')
f=open( 'psi4out.xyz', 'w' )
f.write( "10  " )
f.write( str(ee) + "\n" )
f.write( MOL.save_string_xyz() )
f.close()
--------------------------------------------------------------------------

    Molecular point group: c1
  Charge       = 0
  Multiplicity = 1
  Basis Set: CC-PVTZ
  Basis Set:
  @DF-RHF Final Energy:  -192.02191165408908
    Total Energy =                       -192.0219116540890809
    Molecular point group: c1
  Basis Set: CC-PVTZ
  Basis Set:
  Basis Set: CC-PVTZ
  Basis Set:
  @DF-RHF Final Energy:  -192.02173252356596
    Total Energy =                       -192.0217325235658166
  Basis Set: CC-PVTZ
  Basis Set:
  Basis Set: CC-PVTZ
  Basis Set:
  @DF-RHF Final Energy:  -192.02191349132823
    Total Energy =                       -192.0219134913282346
  Basis Set: CC-PVTZ
  Basis Set:
  Basis Set: CC-PVTZ
  Basis Set:
  @DF-RHF Final Energy:  -192.02215965259990
    Total Energy =                       -192.0221596526000098
  Basis Set: CC-PVTZ
  Basis Set:
  Charge       = 0
  Multiplicity = 1
  Basis Set: CC-PVTZ
  Basis Set:

    Orbital Energies (a.u.)
    -----------------------

    Doubly Occupied:

       1A    -20.552766     2A    -11.323807     3A    -11.238255
       4A    -11.230332     5A     -1.408724     6A     -1.067637
       7A     -0.902914     8A     -0.798803     9A     -0.663695
      10A     -0.643428    11A     -0.637163    12A     -0.555372
      13A     -0.547092    14A     -0.526285    15A     -0.492362
      16A     -0.415131

  @DF-RHF Final Energy:  -192.02216021610519

   => Energetics <=

    Nuclear Repulsion Energy =            117.1387147599958638
    One-Electron Energy =                -492.3142194907122757
    Two-Electron Energy =                 183.1533445146112342
    DFT Exchange-Correlation Energy =       0.0000000000000000
    Empirical Dispersion Energy =           0.0000000000000000
    PCM Polarization Energy =               0.0000000000000000
    EFP Energy =                            0.0000000000000000
    Total Energy =                       -192.0221602161051635
    Molecular point group: c1
  Basis Set: CC-PVTZ
  Basis Set:

  -Total Gradient:
     Atom            X                  Y                   Z
    ------   -----------------  -----------------  -----------------
       1       -0.000034130747    -0.000015889275    -0.000000614085
       2       -0.000050706586    -0.000126535491     0.001142398845
       3       -0.000087802105    -0.000666213399    -0.000791658920
       4        0.000004181569     0.000199193417    -0.000741168146
       5        0.000020822408    -0.000013383656     0.000008002071
       6        0.000141436160     0.000609727404     0.000385524656
       7       -0.000001306951    -0.000000695550    -0.000003458661
       8        0.000002707816     0.000001710738     0.000001367784
       9        0.000006113575     0.000016273556    -0.000000092813
      10       -0.000001315137    -0.000004187743    -0.000000300732

  **** Optimization is complete! (in 5 steps) ****
    Final optimized geometry and variables:
    Molecular point group: c1

    Geometry (in Angstrom), charge = 0, multiplicity = 1:

    H            1.012628460094    -1.088636582441    -0.297751879155
    C            0.750262393896    -0.050085378908    -0.056677957428
    C           -0.724945137287     0.276294254795    -0.049065360615
    O            1.601049135871     0.740684634464     0.159501837995
    C           -1.623508018542    -0.953689015708    -0.057777934496
    H           -0.910798468685     0.896746004436    -0.920760730192
    H           -0.915455366667     0.902438734709     0.814228269984
    H           -1.443840141774    -1.567026213452    -0.933878655886
    H           -2.666925992665    -0.666672789686    -0.064827438083
    H           -1.456036523109    -1.570070408473     0.818600056843

  Mulliken Charges: (a.u.)
   Center  Symbol    Alpha    Beta     Spin     Total
       1     H     0.46345  0.46345  0.00000  0.07310
       2     C     2.90566  2.90566  0.00000  0.18867
       3     C     3.08250  3.08250  0.00000 -0.16500
       4     O     4.16509  4.16509  0.00000 -0.33018
       5     C     3.15408  3.15408  0.00000 -0.30815
       6     H     0.44224  0.44224  0.00000  0.11552
       7     H     0.43925  0.43925  0.00000  0.12150
       8     H     0.45298  0.45298  0.00000  0.09405
       9     H     0.44419  0.44419  0.00000  0.11161
      10     H     0.45057  0.45057  0.00000  0.09886

   Total alpha = 16.00000, Total beta = 16.00000, Total charge = -0.00000
