  ==> Input File <==

--------------------------------------------------------------------------
set {
	reference rhf
	basis cc-pvtz
}

set_num_threads( 4 )
memory 2 gb

molecule MOL {
0 1

H	 2.190573	 -0.629143	 -0.208718
O	 1.355408	 -0.529451	 0.208662
C	 0.700177	 0.619554	 -0.266242
C	 -0.713111	 0.588314	 0.266177
H	 0.678680	 0.627133	 -1.351786
H	 1.199747	 1.521489	 0.077736
O	 -1.421673	 -0.521378	 -0.196983
H	 -1.244794	 1.469161	 -0.069059
H	 -0.685100	 0.604721	 1.352683
H	 -0.975539	 -1.300575	 0.085576

	symmetry c1
}
set optking {
	frozen_dihedral = ("
		10 7 4 3
	")
}

ee = optimize('scf')
oeprop('DIPOLE', 'QUADRUPOLE', 'MULLIKEN_CHARGES')
f=open( 'psi4out.xyz', 'w' )
f.write( "10  " )
f.write( str(ee) + "\n" )
f.write( MOL.save_string_xyz() )
f.close()
--------------------------------------------------------------------------

    Molecular point group: c1
  Charge       = 0
  Multiplicity = 1
  Basis Set: CC-PVTZ
  Basis Set:
  @DF-RHF Final Energy:  -229.02882595605416
    Total Energy =                       -229.0288259560541633
    Molecular point group: c1
  Basis Set: CC-PVTZ
  Basis Set:
  Basis Set: CC-PVTZ
  Basis Set:
  @DF-RHF Final Energy:  -229.02883118538080
    Total Energy =                       -229.0288311853806249
  Basis Set: CC-PVTZ
  Basis Set:
  Charge       = 0
  Multiplicity = 1
  Basis Set: CC-PVTZ
  Basis Set:

    Orbital Energies (a.u.)
    -----------------------

    Doubly Occupied:

       1A    -20.559496     2A    -20.543163     3A    -11.272916
       4A    -11.266888     5A     -1.384058     6A     -1.356169
       7A     -1.003643     8A     -0.844163     9A     -0.729459
      10A     -0.684193    11A     -0.648606    12A     -0.607001
      13A     -0.577900    14A     -0.531843    15A     -0.493914
      16A     -0.455257    17A     -0.436687

  @DF-RHF Final Energy:  -229.02883610929507

   => Energetics <=

    Nuclear Repulsion Energy =            134.4276855873731620
    One-Electron Energy =                -580.1223300451201794
    Two-Electron Energy =                 216.6658083484518897
    DFT Exchange-Correlation Energy =       0.0000000000000000
    Empirical Dispersion Energy =           0.0000000000000000
    PCM Polarization Energy =               0.0000000000000000
    EFP Energy =                            0.0000000000000000
    Total Energy =                       -229.0288361092951277
    Molecular point group: c1
  Basis Set: CC-PVTZ
  Basis Set:

  -Total Gradient:
     Atom            X                  Y                   Z
    ------   -----------------  -----------------  -----------------
       1        0.000011785092    -0.000011588064     0.000010261774
       2        0.000042300855    -0.000075688565    -0.000004164163
       3       -0.000153585460     0.000359362863    -0.000355459203
       4        0.000069377660    -0.000340600265     0.000626123019
       5       -0.000023282287    -0.000017764368     0.000040926877
       6        0.000014697553     0.000026302282    -0.000014948391
       7        0.000448461368     0.000069095709    -0.000925928743
       8       -0.000002305484     0.000035358524     0.000019176580
       9        0.000036496625     0.000008225240    -0.000027068023
      10       -0.000443945917    -0.000052703355     0.000631080273

  **** Optimization is complete! (in 3 steps) ****
    Final optimized geometry and variables:
    Molecular point group: c1

    Geometry (in Angstrom), charge = 0, multiplicity = 1:

    H            2.195269674029    -0.626992855549    -0.206312418926
    O            1.362235095161    -0.525133644866     0.214817657171
    C            0.700040427292     0.615555119137    -0.269729591402
    C           -0.711892878545     0.584884918926     0.266198452141
    H            0.674020328872     0.612405160911    -1.355058883830
    H            1.197135950158     1.523331609129     0.063221861103
    O           -1.426365021803    -0.518581113206    -0.203453848124
    H           -1.241207858636     1.469525505947    -0.063101925286
    H           -0.681813382520     0.595875605913     1.352543608021
    H           -0.984491131595    -1.303068288869     0.070400533063

  Mulliken Charges: (a.u.)
   Center  Symbol    Alpha    Beta     Spin     Total
       1     H     0.39105  0.39105  0.00000  0.21790
       2     O     4.20677  4.20677  0.00000 -0.41353
       3     C     2.97216  2.97216  0.00000  0.05567
       4     C     2.96607  2.96607  0.00000  0.06787
       5     H     0.46956  0.46956  0.00000  0.06088
       6     H     0.47263  0.47263  0.00000  0.05475
       7     O     4.20906  4.20906  0.00000 -0.41813
       8     H     0.45774  0.45774  0.00000  0.08452
       9     H     0.46927  0.46927  0.00000  0.06146
      10     H     0.38570  0.38570  0.00000  0.22861

   Total alpha = 17.00000, Total beta = 17.00000, Total charge = -0.00000
