  ==> Input File <==

--------------------------------------------------------------------------
set {
	reference rhf
	basis 6-31G*
}

set_num_threads( 4 )
memory 2 gb

molecule MOL {
0 1

H	 -0.944757	 -0.000069	 1.678017
O	 -0.042387	 -0.000390	 1.388199
C	 -0.001487	 0.000018	 -0.026623
C	 0.262908	 -1.419734	 -0.531636
C	 -1.324427	 0.536259	 -0.577005
C	 1.152007	 0.927626	 -0.391886
H	 0.341913	 -1.446917	 -1.613725
H	 -0.544093	 -2.089125	 -0.242549
H	 1.184867	 -1.802908	 -0.108330
H	 -1.310922	 0.586787	 -1.661143
H	 -2.152388	 -0.106482	 -0.286665
H	 -1.517791	 1.529592	 -0.187421
H	 1.269222	 0.997079	 -1.468539
H	 2.078392	 0.558982	 0.034026
H	 0.972138	 1.921761	 0.001477

	symmetry c1
}
set optking {
	frozen_dihedral = ("
		4 3 2 1
	")
}

ee = optimize('scf')
oeprop('DIPOLE', 'QUADRUPOLE', 'MULLIKEN_CHARGES')
f=open( 'psi4out.xyz', 'w' )
f.write( "15  " )
f.write( str(ee) + "\n" )
f.write( MOL.save_string_xyz() )
f.close()
--------------------------------------------------------------------------

    Molecular point group: c1
  Charge       = 0
  Multiplicity = 1
  Basis Set: 6-31G*
  Basis Set:
  @DF-RHF Final Energy:  -232.15132623307801
    Total Energy =                       -232.1513262330777820
    Molecular point group: c1
  Basis Set: 6-31G*
  Basis Set:
  Basis Set: 6-31G*
  Basis Set:
  @DF-RHF Final Energy:  -232.15148890512037
    Total Energy =                       -232.1514889051202317
  Basis Set: 6-31G*
  Basis Set:
  Basis Set: 6-31G*
  Basis Set:
  @DF-RHF Final Energy:  -232.15153901801875
    Total Energy =                       -232.1515390180185250
  Basis Set: 6-31G*
  Basis Set:
  Charge       = 0
  Multiplicity = 1
  Basis Set: 6-31G*
  Basis Set:

    Orbital Energies (a.u.)
    -----------------------

    Doubly Occupied:

       1A    -20.547254     2A    -11.281923     3A    -11.217825
       4A    -11.205332     5A    -11.204344     6A     -1.358764
       7A     -1.063643     8A     -0.945367     9A     -0.935533
      10A     -0.775626    11A     -0.669578    12A     -0.622569
      13A     -0.621000    14A     -0.574835    15A     -0.556462
      16A     -0.532873    17A     -0.516724    18A     -0.508748
      19A     -0.501818    20A     -0.457089    21A     -0.422985

  @DF-RHF Final Energy:  -232.15153849261179

   => Energetics <=

    Nuclear Repulsion Energy =            200.2801659668860452
    One-Electron Energy =                -711.8228233609206654
    Two-Electron Energy =                 279.3911189014228285
    DFT Exchange-Correlation Energy =       0.0000000000000000
    Empirical Dispersion Energy =           0.0000000000000000
    PCM Polarization Energy =               0.0000000000000000
    EFP Energy =                            0.0000000000000000
    Total Energy =                       -232.1515384926117918
    Molecular point group: c1
  Basis Set: 6-31G*
  Basis Set:

  -Total Gradient:
     Atom            X                  Y                   Z
    ------   -----------------  -----------------  -----------------
       1        0.000212704039     0.002020548966    -0.000100518691
       2        0.000389869609    -0.002526527899    -0.000140833604
       3       -0.001902328545     0.000176716189    -0.000261532621
       4        0.001121176038     0.000004786445     0.000093285082
       5       -0.000052943578    -0.000217410161     0.000148069746
       6       -0.000116062434     0.000151682763     0.000134945810
       7        0.000171348703    -0.000007185794    -0.000124289904
       8        0.000116798025     0.000182110586     0.000046036441
       9       -0.000065968357    -0.000084233719     0.000021931793
      10        0.000062043067    -0.000005330003     0.000125660473
      11       -0.000020514224     0.000034069433     0.000057402718
      12        0.000073895125     0.000216743990    -0.000119570132
      13       -0.000072769331    -0.000128066367     0.000096324097
      14        0.000013300499     0.000014167714     0.000044825666
      15        0.000069451363     0.000167927855    -0.000021736877

  **** Optimization is complete! (in 4 steps) ****
    Final optimized geometry and variables:
    Molecular point group: c1

    Geometry (in Angstrom), charge = 0, multiplicity = 1:

    H           -0.931063872441    -0.042382414849     1.696468497871
    O           -0.035835107796    -0.034173247892     1.391183360520
    C           -0.000992087081    -0.002652357450    -0.026695621314
    C            0.265132506136    -1.421122380301    -0.532557475500
    C           -1.322274312082     0.537087383109    -0.573176776888
    C            1.153971094873     0.923780006279    -0.398639985054
    H            0.359918913173    -1.447748295480    -1.614210232636
    H           -0.543767484177    -2.085933713471    -0.245049265379
    H            1.181137616350    -1.803293086167    -0.096561646647
    H           -1.307317814974     0.583407077844    -1.656505847332
    H           -2.152660992723    -0.102728502227    -0.282511235896
    H           -1.511685291722     1.537212309697    -0.194796015390
    H            1.291776600057     0.965459467073    -1.474570626230
    H            2.074242807198     0.568972030778     0.051999996624
    H            0.967031540991     1.927733521295    -0.033166602362

  Mulliken Charges: (a.u.)
   Center  Symbol    Alpha    Beta     Spin     Total
       1     H     0.28069  0.28069  0.00000  0.43863
       2     O     4.38170  4.38170  0.00000 -0.76341
       3     C     2.84669  2.84669  0.00000  0.30663
       4     C     3.23259  3.23259  0.00000 -0.46517
       5     C     3.25726  3.25726  0.00000 -0.51452
       6     C     3.23221  3.23221  0.00000 -0.46443
       7     H     0.42542  0.42542  0.00000  0.14916
       8     H     0.42331  0.42331  0.00000  0.15337
       9     H     0.41285  0.41285  0.00000  0.17431
      10     H     0.41511  0.41511  0.00000  0.16978
      11     H     0.42247  0.42247  0.00000  0.15506
      12     H     0.41422  0.41422  0.00000  0.17155
      13     H     0.42540  0.42540  0.00000  0.14921
      14     H     0.41282  0.41282  0.00000  0.17436
      15     H     0.41726  0.41726  0.00000  0.16549

   Total alpha = 21.00000, Total beta = 21.00000, Total charge =  0.00000
