                              Psi4 1.0.54 Driver

  ==> Input File <==

--------------------------------------------------------------------------
set {
	reference rhf
	basis cc-pvtz
}

set_num_threads( 4 )
memory 2 gb

molecule MOL {
0 1

H	 -2.362939	 -1.309000	 -0.383250
C	 -1.359344	 -1.272457	 0.020748
C	 -0.684082	 0.000127	 -0.464918
H	 -0.825835	 -2.151141	 -0.318537
H	 -1.416276	 -1.292399	 1.099455
C	 -1.359089	 1.272668	 0.021259
N	 0.742439	 -0.000109	 0.007333
H	 -0.596914	 0.000345	 -1.538146
H	 -2.362696	 1.309620	 -0.382686
H	 -0.825392	 2.151374	 -0.317674
H	 -1.415983	 1.292181	 1.099973
O	 1.589871	 -0.000015	 -0.820618
O	 0.930711	 -0.000205	 1.178163

	symmetry c1
}
set optking {
	frozen_dihedral = ("
		12 7 3 8
	")
}

ee,wfn = optimize('scf', return_wfn=True)
oeprop( wfn, 'DIPOLE', 'QUADRUPOLE', 'MULLIKEN_CHARGES')
f=open( 'psi4out.xyz', 'w' )
f.write( "13  " )
f.write( str(ee) + "\n" )
f.write( MOL.save_string_xyz() )
f.close()
--------------------------------------------------------------------------

    Molecular point group: c1
  Charge       = 0
  Multiplicity = 1
  Basis Set: CC-PVTZ
  Basis Set:
  @DF-RHF Final Energy:  -321.86463060700720
    Total Energy =                       -321.8646306070073706
    Molecular point group: c1
  Basis Set: CC-PVTZ
  Basis Set:
  Basis Set: CC-PVTZ
  Basis Set:
  @DF-RHF Final Energy:  -321.86462960377156
    Total Energy =                       -321.8646296037715615
  Basis Set: CC-PVTZ
  Basis Set:
  Charge       = 0
  Multiplicity = 1
  Basis Set: CC-PVTZ
  Basis Set:

    Orbital Energies (a.u.)
    -----------------------

    Doubly Occupied:

       1A    -20.590668     2A    -20.587578     3A    -15.832555
       4A    -11.304115     5A    -11.243230     6A    -11.243216
       7A     -1.633877     8A     -1.418166     9A     -1.142658
      10A     -0.974371    11A     -0.957236    12A     -0.816687
      13A     -0.751244    14A     -0.733120    15A     -0.726615
      16A     -0.650797    17A     -0.595283    18A     -0.588838
      19A     -0.570779    20A     -0.529769    21A     -0.522951
      22A     -0.485761    23A     -0.469556    24A     -0.452313

  @DF-RHF Final Energy:  -321.86463061448887

   => Energetics <=

    Nuclear Repulsion Energy =            257.3251561139705927
    One-Electron Energy =                -948.7368118382639750
    Two-Electron Energy =                 369.5470251098045082
    DFT Exchange-Correlation Energy =       0.0000000000000000
    Empirical Dispersion Energy =           0.0000000000000000
    PCM Polarization Energy =               0.0000000000000000
    EFP Energy =                            0.0000000000000000
    Total Energy =                       -321.8646306144888740
    Molecular point group: c1
  Basis Set: CC-PVTZ
  Basis Set:

  -Total Gradient:
     Atom            X                  Y                   Z
    ------   -----------------  -----------------  -----------------
       1        0.000000637806     0.000000118647    -0.000000014114
       2       -0.000002640528     0.000001212197     0.000002680577
       3        0.000009374337    -0.000000162392    -0.000008456984
       4        0.000000443257     0.000001288221     0.000000214057
       5       -0.000000667177    -0.000001440152     0.000001316595
       6       -0.000001244953    -0.000001015969     0.000003425486
       7       -0.000018968531     0.000000866675    -0.000024395104
       8       -0.000003275701    -0.000000208818    -0.000001930823
       9        0.000002230694    -0.000001453832    -0.000000133185
      10        0.000000634817    -0.000001293474    -0.000000224248
      11       -0.000000990856     0.000001686936     0.000002549268
      12        0.000003849607     0.000000091748     0.000011972903
      13        0.000010617230     0.000000310214     0.000012995570

  **** Optimization is complete! (in 3 steps) ****
    Final optimized geometry and variables:
    Molecular point group: c1

    Geometry (in Angstrom), charge = 0, multiplicity = 1:

    H           -2.363160414792    -1.308631498870    -0.383388651414
    C           -1.359540960053    -1.272220581316     0.020567656519
    C           -0.684145091088     0.000332908758    -0.464982047820
    H           -0.826138304636    -2.150917597290    -0.318831801393
    H           -1.416452708937    -1.292297881835     1.099279486688
    C           -1.358898084636     1.272872800084     0.021492074250
    N            0.742432104704    -0.000186155435     0.007318712509
    H           -0.596969340828     0.000699534335    -1.538210777056
    H           -2.362498133271     1.310067796747    -0.382436199700
    H           -0.825059109064     2.151546426529    -0.317282069755
    H           -1.415796859982     1.292203118270     1.100219606689
    O            1.589927050122    -0.000093432219    -0.820595308363
    O            0.930716954828    -0.000650902602     1.178148286099

  Mulliken Charges: (a.u.)
   Center  Symbol    Alpha    Beta     Spin     Total
       1     H     0.44909  0.44909  0.00000  0.10182
       2     C     3.14435  3.14435  0.00000 -0.28871
       3     C     3.00759  3.00759  0.00000 -0.01518
       4     H     0.44078  0.44078  0.00000  0.11844
       5     H     0.43874  0.43874  0.00000  0.12253
       6     C     3.14435  3.14435  0.00000 -0.28871
       7     N     3.27557  3.27557  0.00000  0.44886
       8     H     0.42466  0.42466  0.00000  0.15068
       9     H     0.44909  0.44909  0.00000  0.10181
      10     H     0.44078  0.44078  0.00000  0.11844
      11     H     0.43874  0.43874  0.00000  0.12253
      12     O     4.16831  4.16831  0.00000 -0.33662
      13     O     4.17795  4.17795  0.00000 -0.35590

   Total alpha = 24.00000, Total beta = 24.00000, Total charge = -0.00000

*** Psi4 exiting successfully. Buy a developer a beer!
