                              Psi4 1.0.54 Driver

  ==> Input File <==

--------------------------------------------------------------------------
set {
	reference rhf
	basis cc-pvtz
}

set_num_threads( 4 )
memory 2 gb

molecule MOL {
0 1

H	 -1.055003	 -1.828807	 -4.859151
O	 -1.301616	 -2.700104	 -5.107856
C	 -0.668213	 -3.639218	 -4.279522
C	 -1.236829	 -3.684942	 -2.869107
H	 -0.810360	 -4.598704	 -4.758231
H	 0.403385	 -3.452435	 -4.244321
C	 -1.015566	 -2.407701	 -2.061921
H	 -2.299665	 -3.898455	 -2.931945
H	 -0.776626	 -4.522504	 -2.350357
C	 -1.570310	 -2.502672	 -0.641331
H	 -1.480527	 -1.573322	 -2.576339
H	 0.050435	 -2.191594	 -2.014759
C	 -1.311023	 -1.277304	 0.237018
H	 -2.640189	 -2.690892	 -0.687813
H	 -1.131957	 -3.370927	 -0.157131
C	 -2.041121	 -0.006551	 -0.194127
H	 -1.608021	 -1.517968	 1.254073
H	 -0.241509	 -1.082548	 0.273945
C	 -3.489218	 0.042606	 0.286507
H	 -2.022185	 0.066287	 -1.279394
H	 -1.518764	 0.869305	 0.178730
C	 -4.219984	 1.311773	 -0.139038
H	 -4.022855	 -0.824300	 -0.093339
H	 -3.510372	 -0.038577	 1.370031
H	 -4.244251	 1.405725	 -1.219696
H	 -5.244345	 1.313233	 0.215630
H	 -3.732090	 2.196311	 0.257073

	symmetry c1
}
set optking {
	frozen_dihedral = ("
		10 13 16 20
	")
}

ee,wfn = optimize('scf', return_wfn=True)
oeprop( wfn, 'DIPOLE', 'QUADRUPOLE', 'MULLIKEN_CHARGES')
f=open( 'psi4out.xyz', 'w' )
f.write( "27  " )
f.write( str(ee) + "\n" )
f.write( MOL.save_string_xyz() )
f.close()
--------------------------------------------------------------------------

    Molecular point group: c1
  Charge       = 0
  Multiplicity = 1
  Basis Set: CC-PVTZ
  Basis Set:
  @DF-RHF Final Energy:  -388.42481175879999
    Total Energy =                       -388.4248117587994784
    Molecular point group: c1
  Basis Set: CC-PVTZ
  Basis Set:
  Basis Set: CC-PVTZ
  Basis Set:
  @DF-RHF Final Energy:  -388.41876403623945
    Total Energy =                       -388.4187640362393950
  Basis Set: CC-PVTZ
  Basis Set:
  Basis Set: CC-PVTZ
  Basis Set:
  @DF-RHF Final Energy:  -388.42502134901787
    Total Energy =                       -388.4250213490179249
  Basis Set: CC-PVTZ
  Basis Set:
  Basis Set: CC-PVTZ
  Basis Set:
  @DF-RHF Final Energy:  -388.42521878370349
    Total Energy =                       -388.4252187837039401
  Basis Set: CC-PVTZ
  Basis Set:
  Basis Set: CC-PVTZ
  Basis Set:
  @DF-RHF Final Energy:  -388.42523461748380
    Total Energy =                       -388.4252346174839658
  Basis Set: CC-PVTZ
  Basis Set:
  Basis Set: CC-PVTZ
  Basis Set:
  @DF-RHF Final Energy:  -388.42524698860637
    Total Energy =                       -388.4252469886062045
  Basis Set: CC-PVTZ
  Basis Set:
  Charge       = 0
  Multiplicity = 1
  Basis Set: CC-PVTZ
  Basis Set:

    Orbital Energies (a.u.)
    -----------------------

    Doubly Occupied:

       1A    -20.545612     2A    -11.265199     3A    -11.216841
       4A    -11.214590     5A    -11.213418     6A    -11.213270
       7A    -11.213037     8A    -11.211755     9A    -11.206611
      10A     -1.363473    11A     -1.095875    12A     -1.061526
      13A     -1.011107    14A     -0.949596    15A     -0.887290
      16A     -0.827358    17A     -0.803269    18A     -0.770563
      19A     -0.696687    20A     -0.654519    21A     -0.633188
      22A     -0.612887    23A     -0.605699    24A     -0.590672
      25A     -0.576121    26A     -0.562857    27A     -0.534203
      28A     -0.528270    29A     -0.508243    30A     -0.494075
      31A     -0.487671    32A     -0.481962    33A     -0.467979
      34A     -0.452424    35A     -0.447258    36A     -0.446456
      37A     -0.426612

  @DF-RHF Final Energy:  -388.42524708978891

   => Energetics <=

    Nuclear Repulsion Energy =            464.5655091753964712
    One-Electron Energy =               -1447.4251581481653375
    Two-Electron Energy =                 594.4344018829797278
    DFT Exchange-Correlation Energy =       0.0000000000000000
    Empirical Dispersion Energy =           0.0000000000000000
    PCM Polarization Energy =               0.0000000000000000
    EFP Energy =                            0.0000000000000000
    Total Energy =                       -388.4252470897890817
    Molecular point group: c1
  Basis Set: CC-PVTZ
  Basis Set:

  -Total Gradient:
     Atom            X                  Y                   Z
    ------   -----------------  -----------------  -----------------
       1        0.000005866291    -0.000020115783    -0.000005502019
       2       -0.000011859210    -0.000019592667    -0.000017766262
       3        0.000050198183     0.000039330017     0.000018353919
       4       -0.000025679769    -0.000009571425    -0.000003760382
       5       -0.000005058593     0.000008647565    -0.000005951164
       6        0.000008226102    -0.000000665658    -0.000012722766
       7       -0.000015741849    -0.000005852265    -0.000002508546
       8       -0.000007113458     0.000011607669     0.000008075692
       9       -0.000008874731    -0.000001913947     0.000006973747
      10        0.000982339822     0.000523264787    -0.001005287560
      11       -0.000006330501    -0.000005153413     0.000019268815
      12       -0.000008457902     0.000002842635    -0.000005579635
      13       -0.001730443045    -0.001073316014     0.001499326532
      14        0.000009931030     0.000009145604    -0.000003858140
      15       -0.000001689754    -0.000001541107    -0.000001223014
      16        0.002301603960     0.001872306121    -0.000620484590
      17        0.000012609710    -0.000006633567     0.000008174763
      18        0.000003382271    -0.000016002518    -0.000000229224
      19       -0.000013997007    -0.000000953607    -0.000032147626
      20       -0.001536782994    -0.001301688957     0.000153054192
      21       -0.000001878300    -0.000006623585    -0.000008354726
      22        0.000001614015    -0.000001862638     0.000013706369
      23       -0.000002747955     0.000002324646     0.000004340391
      24        0.000001214686     0.000002752332    -0.000009410090
      25        0.000002411000    -0.000004797194     0.000003262233
      26       -0.000007251566     0.000002062030     0.000003470774
      27        0.000004509565     0.000002000936    -0.000003221682

  **** Optimization is complete! (in 7 steps) ****
    Final optimized geometry and variables:
    Molecular point group: c1

    Geometry (in Angstrom), charge = 0, multiplicity = 1:

    H            0.892138131981    -0.173629137597    -3.220607991212
    O            0.695354708904    -1.067504811259    -3.429999086941
    C            1.394596921524    -1.932117096516    -2.573935150163
    C            0.838341137986    -1.963981971909    -1.158279143903
    H            1.313848621859    -2.915684872150    -3.016710721836
    H            2.451475524412    -1.673518297815    -2.554308446561
    C            0.969923290625    -0.643315012043    -0.403220278246
    H           -0.206256293997    -2.256720309385    -1.204046790226
    H            1.361328054132    -2.744982813465    -0.611498115755
    C            0.461163720839    -0.729495094643     1.035101712987
    H            0.427082190181     0.130314536386    -0.936183317894
    H            2.014640753713    -0.338376254368    -0.390880676657
    C            0.588340478535     0.573048423585     1.831896305609
    H           -0.573000256428    -1.062337506156     1.029920502857
    H            1.021515322762    -1.504850166330     1.549832115734
    C           -0.406611436387     1.677263151783     1.451924472725
    H            0.477465391386     0.353908955442     2.889684559704
    H            1.601124648503     0.947300529341     1.710246463272
    C           -1.781097752727     1.515921978322     2.101491606214
    H           -0.537000702504     1.707986879466     0.374610851979
    H            0.001341305872     2.641433634953     1.739803339227
    C           -2.766854728353     2.603599941868     1.687767130021
    H           -2.196056441944     0.544590828971     1.849886825746
    H           -1.666314390610     1.526666815277     3.181882292905
    H           -2.935455415100     2.592515757798     0.616004871243
    H           -3.726473610226     2.470370361359     2.174011003560
    H           -2.396231001528     3.588569804837     1.952114004956

  Mulliken Charges: (a.u.)
   Center  Symbol    Alpha    Beta     Spin     Total
       1     H     0.39215  0.39215  0.00000  0.21571
       2     O     4.20564  4.20564  0.00000 -0.41129
       3     C     2.98029  2.98029  0.00000  0.03943
       4     C     3.08892  3.08892  0.00000 -0.17784
       5     H     0.44854  0.44854  0.00000  0.10292
       6     H     0.46919  0.46919  0.00000  0.06161
       7     C     3.10161  3.10161  0.00000 -0.20322
       8     H     0.45072  0.45072  0.00000  0.09856
       9     H     0.45518  0.45518  0.00000  0.08964
      10     C     3.09889  3.09889  0.00000 -0.19779
      11     H     0.45601  0.45601  0.00000  0.08797
      12     H     0.45373  0.45373  0.00000  0.09254
      13     C     3.10891  3.10891  0.00000 -0.21781
      14     H     0.45098  0.45098  0.00000  0.09804
      15     H     0.44716  0.44716  0.00000  0.10568
      16     C     3.09615  3.09615  0.00000 -0.19230
      17     H     0.44717  0.44717  0.00000  0.10565
      18     H     0.44785  0.44785  0.00000  0.10430
      19     C     3.08197  3.08197  0.00000 -0.16395
      20     H     0.45506  0.45506  0.00000  0.08989
      21     H     0.44721  0.44721  0.00000  0.10558
      22     C     3.15018  3.15018  0.00000 -0.30037
      23     H     0.45414  0.45414  0.00000  0.09173
      24     H     0.45428  0.45428  0.00000  0.09144
      25     H     0.45490  0.45490  0.00000  0.09020
      26     H     0.44814  0.44814  0.00000  0.10373
      27     H     0.45503  0.45503  0.00000  0.08994

   Total alpha = 37.00000, Total beta = 37.00000, Total charge =  0.00000

*** Psi4 exiting successfully. Buy a developer a beer!
