  ==> Input File <==

--------------------------------------------------------------------------
set {
	reference rhf
	basis cc-pvtz
}

set_num_threads( 4 )
memory 2 gb

molecule MOL {
0 1

H	 1.266152	 -1.708065	 1.261879
O	 0.593815	 -1.140659	 0.933143
C	 1.135873	 0.113391	 0.608264
C	 0.027642	 1.012027	 0.090274
H	 1.896510	 0.008741	 -0.161313
H	 1.613073	 0.556968	 1.477736
C	 -1.138737	 0.285728	 -0.581921
H	 0.464661	 1.708096	 -0.618252
H	 -0.340737	 1.603071	 0.925246
C	 -1.933983	 -0.631436	 0.343653
H	 -0.763151	 -0.285569	 -1.422081
H	 -1.808359	 1.035291	 -0.992333
H	 -2.789188	 -1.049673	 -0.174718
H	 -1.335629	 -1.461368	 0.700418
H	 -2.305435	 -0.092167	 1.209725

	symmetry c1
}
set optking {
	frozen_dihedral = ("
		2 3 4 8
	")
}

ee = optimize('scf')
oeprop('DIPOLE', 'QUADRUPOLE', 'MULLIKEN_CHARGES')
f=open( 'psi4out.xyz', 'w' )
f.write( "15  " )
f.write( str(ee) + "\n" )
f.write( MOL.save_string_xyz() )
f.close()
--------------------------------------------------------------------------

    Molecular point group: c1
  Charge       = 0
  Multiplicity = 1
  Basis Set: CC-PVTZ
  Basis Set:
  @DF-RHF Final Energy:  -232.22252674404720
    Total Energy =                       -232.2225267440469452
    Molecular point group: c1
  Basis Set: CC-PVTZ
  Basis Set:
  Basis Set: CC-PVTZ
  Basis Set:
  @DF-RHF Final Energy:  -232.22930190790302
    Total Energy =                       -232.2293019079029364
  Basis Set: CC-PVTZ
  Basis Set:
  Basis Set: CC-PVTZ
  Basis Set:
  @DF-RHF Final Energy:  -232.23087620622093
    Total Energy =                       -232.2308762062206711
  Basis Set: CC-PVTZ
  Basis Set:
  Basis Set: CC-PVTZ
  Basis Set:
  @DF-RHF Final Energy:  -232.23145914632508
    Total Energy =                       -232.2314591463250508
  Basis Set: CC-PVTZ
  Basis Set:
  Basis Set: CC-PVTZ
  Basis Set:
  @DF-RHF Final Energy:  -232.23151018389805
    Total Energy =                       -232.2315101838984219
  Basis Set: CC-PVTZ
  Basis Set:
  Basis Set: CC-PVTZ
  Basis Set:
  @DF-RHF Final Energy:  -232.23151687750132
    Total Energy =                       -232.2315168775014058
  Basis Set: CC-PVTZ
  Basis Set:
  Basis Set: CC-PVTZ
  Basis Set:
  @DF-RHF Final Energy:  -232.23151810159035
    Total Energy =                       -232.2315181015901544
  Basis Set: CC-PVTZ
  Basis Set:
  Charge       = 0
  Multiplicity = 1
  Basis Set: CC-PVTZ
  Basis Set:

    Orbital Energies (a.u.)
    -----------------------

    Doubly Occupied:

       1A    -20.547667     2A    -11.267604     3A    -11.212107
       4A    -11.206693     5A    -11.191734     6A     -1.365956
       7A     -1.059769     8A     -0.970044     9A     -0.861053
      10A     -0.777261    11A     -0.707572    12A     -0.647913
      13A     -0.606571    14A     -0.580613    15A     -0.546153
      16A     -0.538653    17A     -0.510077    18A     -0.474623
      19A     -0.460914    20A     -0.446572    21A     -0.431423

  @DF-RHF Final Energy:  -232.23151834359885

   => Energetics <=

    Nuclear Repulsion Energy =            192.9496636182701081
    One-Electron Energy =                -697.5404198630069459
    Two-Electron Energy =                 272.3592379011378739
    DFT Exchange-Correlation Energy =       0.0000000000000000
    Empirical Dispersion Energy =           0.0000000000000000
    PCM Polarization Energy =               0.0000000000000000
    EFP Energy =                            0.0000000000000000
    Total Energy =                       -232.2315183435989638
    Molecular point group: c1
  Basis Set: CC-PVTZ
  Basis Set:

  -Total Gradient:
     Atom            X                  Y                   Z
    ------   -----------------  -----------------  -----------------
       1        0.000002342959    -0.000000082139    -0.000001114799
       2        0.000657072545    -0.000920567163    -0.004151714721
       3       -0.001029714808     0.000582359313     0.004666229230
       4        0.001209503034     0.003521888544     0.003752254906
       5       -0.000005988540     0.000001783431     0.000003001159
       6       -0.000011287484     0.000004447896     0.000005471057
       7        0.000007590283     0.000003054401    -0.000027190451
       8       -0.000835304118    -0.003191428411    -0.004273952283
       9        0.000005476181     0.000004942374    -0.000005703966
      10       -0.000000420073     0.000010081115     0.000029134432
      11       -0.000004200481     0.000004241353     0.000006176962
      12        0.000013081795     0.000006536785     0.000009631491
      13       -0.000017742440    -0.000015656186    -0.000000903537
      14        0.000001321547    -0.000001627160     0.000002858996
      15        0.000008269599    -0.000009974152    -0.000014178476

  **** Optimization is complete! (in 8 steps) ****
    Final optimized geometry and variables:
    Molecular point group: c1

    Geometry (in Angstrom), charge = 0, multiplicity = 1:

    H            1.825963843901    -1.574856284337     0.764439675840
    O            1.061588826580    -1.083833765966     0.526690034122
    C            1.414354694249     0.253473094947     0.284064004191
    C            0.190841673659     1.091202686613    -0.098727467136
    H            2.130547441573     0.287234776001    -0.533633798571
    H            1.897290517258     0.687135347040     1.155085958305
    C           -0.915817411372     0.340624645847    -0.855376331980
    H            0.549699231770     1.875920391790    -0.756441958580
    H           -0.232940904748     1.566402387133     0.779181884091
    C           -1.913306150872    -0.393968021668     0.036772365847
    H           -0.468245467267    -0.357106545591    -1.554858649919
    H           -1.460513868599     1.065483020099    -1.452641629447
    H           -2.676370437962    -0.879487658168    -0.562276664514
    H           -1.425678233912    -1.146220841221     0.638936335819
    H           -2.414845751598     0.301050063082     0.703462584926

  Mulliken Charges: (a.u.)
   Center  Symbol    Alpha    Beta     Spin     Total
       1     H     0.39811  0.39811  0.00000  0.20377
       2     O     4.19213  4.19213  0.00000 -0.38427
       3     C     2.96968  2.96968  0.00000  0.06064
       4     C     3.10114  3.10114  0.00000 -0.20228
       5     H     0.47270  0.47270  0.00000  0.05459
       6     H     0.46808  0.46808  0.00000  0.06385
       7     C     3.08299  3.08299  0.00000 -0.16598
       8     H     0.44991  0.44991  0.00000  0.10017
       9     H     0.45405  0.45405  0.00000  0.09189
      10     C     3.14710  3.14710  0.00000 -0.29420
      11     H     0.45366  0.45366  0.00000  0.09269
      12     H     0.45121  0.45121  0.00000  0.09758
      13     H     0.45349  0.45349  0.00000  0.09302
      14     H     0.44509  0.44509  0.00000  0.10981
      15     H     0.46064  0.46064  0.00000  0.07871

   Total alpha = 21.00000, Total beta = 21.00000, Total charge = -0.00000
