  ==> Input File <==

--------------------------------------------------------------------------
set {
	reference rhf
	basis 6-31G*
}

set_num_threads( 4 )
memory 2 gb

molecule MOL {
0 1

H	 1.556515	 -0.089308	 -1.756187
C	 1.294695	 0.819997	 -1.201735
C	 0.692068	 0.589600	 0.160137
O	 1.491073	 1.889095	 -1.681938
C	 -0.558097	 -0.297372	 0.091132
H	 0.468539	 1.554294	 0.600456
H	 1.445563	 0.103282	 0.778661
C	 -1.850991	 0.512573	 -0.019058
H	 -0.476753	 -0.965681	 -0.762987
H	 -0.604799	 -0.930658	 0.975228
C	 -3.096943	 -0.368295	 -0.099594
H	 -1.800724	 1.150330	 -0.898172
H	 -1.931651	 1.177355	 0.838044
H	 -3.060452	 -1.020287	 -0.967456
H	 -3.996858	 0.233488	 -0.175704
H	 -3.191959	 -0.995686	 0.782074

	symmetry c1
}
set optking {
	frozen_dihedral = ("
		6 3 5 9
	")
}

ee = optimize('scf')
oeprop('DIPOLE', 'QUADRUPOLE', 'MULLIKEN_CHARGES')
f=open( 'psi4out.xyz', 'w' )
f.write( "16  " )
f.write( str(ee) + "\n" )
f.write( MOL.save_string_xyz() )
f.close()
--------------------------------------------------------------------------

    Molecular point group: c1
  Charge       = 0
  Multiplicity = 1
  Basis Set: 6-31G*
  Basis Set:
  @DF-RHF Final Energy:  -270.01718250415922
    Total Energy =                       -270.0171825041593934
    Molecular point group: c1
  Basis Set: 6-31G*
  Basis Set:
  Basis Set: 6-31G*
  Basis Set:
  @DF-RHF Final Energy:  -270.01729368830649
    Total Energy =                       -270.0172936883066086
  Basis Set: 6-31G*
  Basis Set:
  Basis Set: 6-31G*
  Basis Set:
  @DF-RHF Final Energy:  -270.01456523315051
    Total Energy =                       -270.0145652331503925
  Basis Set: 6-31G*
  Basis Set:
  Basis Set: 6-31G*
  Basis Set:
  @DF-RHF Final Energy:  -270.01740794833086
    Total Energy =                       -270.0174079483307423
  Basis Set: 6-31G*
  Basis Set:
  Basis Set: 6-31G*
  Basis Set:
  @DF-RHF Final Energy:  -270.01742677725940
    Total Energy =                       -270.0174267772592884
  Basis Set: 6-31G*
  Basis Set:
  Basis Set: 6-31G*
  Basis Set:
  @DF-RHF Final Energy:  -270.01745074002213
    Total Energy =                       -270.0174507400221273
  Basis Set: 6-31G*
  Basis Set:
  Basis Set: 6-31G*
  Basis Set:
  @DF-RHF Final Energy:  -270.01745808660417
    Total Energy =                       -270.0174580866040515
  Basis Set: 6-31G*
  Basis Set:
  Charge       = 0
  Multiplicity = 1
  Basis Set: 6-31G*
  Basis Set:

    Orbital Energies (a.u.)
    -----------------------

    Doubly Occupied:

       1A    -20.563126     2A    -11.326778     3A    -11.236348
       4A    -11.235174     5A    -11.226007     6A    -11.216469
       7A     -1.403035     8A     -1.094723     9A     -1.016267
      10A     -0.904684    11A     -0.814262    12A     -0.792687
      13A     -0.669505    14A     -0.654980    15A     -0.614083
      16A     -0.607179    17A     -0.590254    18A     -0.539674
      19A     -0.527762    20A     -0.523114    21A     -0.485648
      22A     -0.480836    23A     -0.466428    24A     -0.410486

  @DF-RHF Final Energy:  -270.01745855629031

   => Energetics <=

    Nuclear Repulsion Energy =            232.4992574152704492
    One-Electron Energy =                -826.2344116003542922
    Two-Electron Energy =                 323.7176956287933081
    DFT Exchange-Correlation Energy =       0.0000000000000000
    Empirical Dispersion Energy =           0.0000000000000000
    PCM Polarization Energy =               0.0000000000000000
    EFP Energy =                            0.0000000000000000
    Total Energy =                       -270.0174585562905349
    Molecular point group: c1
  Basis Set: 6-31G*
  Basis Set:

  -Total Gradient:
     Atom            X                  Y                   Z
    ------   -----------------  -----------------  -----------------
       1       -0.000019553966     0.000004557948    -0.000011874088
       2        0.000038887400     0.000061775337     0.000033827915
       3        0.000566162365    -0.001154120128     0.003756164486
       4        0.000016711491    -0.000024603277     0.000000336774
       5        0.001876765878    -0.002730475794     0.001810245903
       6       -0.000814003270     0.001350353482    -0.003429756468
       7        0.000040450597     0.000019887976    -0.000013015261
       8        0.000001073958    -0.000027827527     0.000010700112
       9       -0.001693606942     0.002494762360    -0.002147382413
      10       -0.000021874374     0.000003315756     0.000000298333
      11        0.000001333394     0.000000254451    -0.000017448758
      12       -0.000004938728     0.000006329649    -0.000001143658
      13        0.000011235754    -0.000005219418     0.000004294409
      14        0.000005353478    -0.000006718120     0.000007318299
      15        0.000000137701    -0.000000096475    -0.000008606777
      16       -0.000004134743     0.000007823781     0.000006041192

  **** Optimization is complete! (in 8 steps) ****
    Final optimized geometry and variables:
    Molecular point group: c1

    Geometry (in Angstrom), charge = 0, multiplicity = 1:

    H            1.885543645218    -0.608604204089    -1.304935458707
    C            1.622653887577     0.295104636125    -0.741523362198
    C            1.070504486255     0.049748492765     0.641427081005
    O            1.774241417119     1.367815270040    -1.229421070542
    C           -0.191040965655    -0.835318598198     0.598145084653
    H            0.858968317607     1.020993469575     1.072600274066
    H            1.852265395302    -0.430987035833     1.225013932679
    C           -1.478133521966    -0.016815838208     0.456108565206
    H           -0.129194771758    -1.517476453059    -0.248436837669
    H           -0.246012881708    -1.447943543575     1.492079160798
    C           -2.725761658467    -0.890992435897     0.342581822212
    H           -1.403052377021     0.625702470158    -0.418187772643
    H           -1.575607145513     0.645384064041     1.312839641237
    H           -2.674959881963    -1.538208079270    -0.528416934906
    H           -3.620905338186    -0.284356946072     0.251235313328
    H           -2.842767394981    -1.523718760774     1.217961847013

  Mulliken Charges: (a.u.)
   Center  Symbol    Alpha    Beta     Spin     Total
       1     H     0.43183  0.43183  0.00000  0.13634
       2     C     2.83334  2.83334  0.00000  0.33331
       3     C     3.20883  3.20883  0.00000 -0.41766
       4     O     4.23629  4.23629  0.00000 -0.47259
       5     C     3.16692  3.16692  0.00000 -0.33384
       6     H     0.39840  0.39840  0.00000  0.20319
       7     H     0.40646  0.40646  0.00000  0.18708
       8     C     3.15376  3.15376  0.00000 -0.30752
       9     H     0.41906  0.41906  0.00000  0.16188
      10     H     0.41295  0.41295  0.00000  0.17410
      11     C     3.24071  3.24071  0.00000 -0.48142
      12     H     0.41522  0.41522  0.00000  0.16956
      13     H     0.41869  0.41869  0.00000  0.16261
      14     H     0.42070  0.42070  0.00000  0.15860
      15     H     0.41585  0.41585  0.00000  0.16831
      16     H     0.42097  0.42097  0.00000  0.15806

   Total alpha = 24.00000, Total beta = 24.00000, Total charge = -0.00000
