  ==> Input File <==

--------------------------------------------------------------------------
set {
	reference rhf
	basis 6-31G*
}

set_num_threads( 4 )
memory 2 gb

molecule MOL {
0 1

O	 1.254121	 -2.496520	 1.128140
C	 0.375733	 -1.893597	 0.602502
C	 -1.059535	 -2.338091	 0.531817
O	 0.550821	 -0.724572	 0.000672
H	 -1.695963	 -1.596264	 1.000150
H	 -1.168990	 -3.288885	 1.031720
H	 -1.364725	 -2.425569	 -0.504420
C	 1.863949	 -0.193559	 -0.000319
H	 2.028859	 0.409284	 -0.881648
H	 2.526261	 -1.045082	 -0.000003
H	 2.029520	 0.410555	 0.880008

	symmetry c1
}
set optking {
	frozen_dihedral = ("
		2 4 8 9
	")
}

ee = optimize('scf')
oeprop('DIPOLE', 'QUADRUPOLE', 'MULLIKEN_CHARGES')
f=open( 'psi4out.xyz', 'w' )
f.write( "11  " )
f.write( str(ee) + "\n" )
f.write( MOL.save_string_xyz() )
f.close()
--------------------------------------------------------------------------

    Molecular point group: c1
  Charge       = 0
  Multiplicity = 1
  Basis Set: 6-31G*
  Basis Set:
  @DF-RHF Final Energy:  -266.83348963757965
    Total Energy =                       -266.8334896375795324
    Molecular point group: c1
  Basis Set: 6-31G*
  Basis Set:
  Basis Set: 6-31G*
  Basis Set:
  @DF-RHF Final Energy:  -266.83475683655627
    Total Energy =                       -266.8347568365560960
  Basis Set: 6-31G*
  Basis Set:
  Basis Set: 6-31G*
  Basis Set:
  @DF-RHF Final Energy:  -266.83523998924727
    Total Energy =                       -266.8352399892472135
  Basis Set: 6-31G*
  Basis Set:
  Basis Set: 6-31G*
  Basis Set:
  @DF-RHF Final Energy:  -266.83449832731145
    Total Energy =                       -266.8344983273114508
  Basis Set: 6-31G*
  Basis Set:
  Basis Set: 6-31G*
  Basis Set:
  @DF-RHF Final Energy:  -266.83526209754314
    Total Energy =                       -266.8352620975432501
  Basis Set: 6-31G*
  Basis Set:
  Charge       = 0
  Multiplicity = 1
  Basis Set: 6-31G*
  Basis Set:

    Orbital Energies (a.u.)
    -----------------------

    Doubly Occupied:

       1A    -20.605352     2A    -20.546094     3A    -11.377176
       4A    -11.281424     5A    -11.234258     6A     -1.469620
       7A     -1.364863     8A     -1.035974     9A     -0.953276
      10A     -0.777769    11A     -0.696200    12A     -0.680119
      13A     -0.677035    14A     -0.597043    15A     -0.591004
      16A     -0.560483    17A     -0.527460    18A     -0.520336
      19A     -0.456407    20A     -0.442164

  @DF-RHF Final Energy:  -266.83526359911343

   => Energetics <=

    Nuclear Repulsion Energy =            183.0513519081663674
    One-Electron Energy =                -726.9851174187308516
    Two-Electron Energy =                 277.0985019114509100
    DFT Exchange-Correlation Energy =       0.0000000000000000
    Empirical Dispersion Energy =           0.0000000000000000
    PCM Polarization Energy =               0.0000000000000000
    EFP Energy =                            0.0000000000000000
    Total Energy =                       -266.8352635991136026
    Molecular point group: c1
  Basis Set: 6-31G*
  Basis Set:

  -Total Gradient:
     Atom            X                  Y                   Z
    ------   -----------------  -----------------  -----------------
       1       -0.000075959675    -0.000139896992     0.000085402689
       2        0.000385553952    -0.000650907477    -0.001317853142
       3        0.000042741651     0.000045280810     0.000008083081
       4       -0.000290552774     0.000795271212     0.001628634380
       5        0.000021914470     0.000001254253     0.000001160033
       6        0.000013540418    -0.000007132221     0.000004496723
       7        0.000017912062    -0.000000662286    -0.000007993630
       8       -0.000546118460     0.001326368406     0.000442544870
       9        0.000510944604    -0.001340290193    -0.000848618498
      10       -0.000055764563    -0.000020715882    -0.000005980304
      11       -0.000024211687    -0.000008569631     0.000010123800

  **** Optimization is complete! (in 6 steps) ****
    Final optimized geometry and variables:
    Molecular point group: c1

    Geometry (in Angstrom), charge = 0, multiplicity = 1:

    O            0.620925277304    -1.001665419302     0.694352317074
    C           -0.238936538172    -0.380495464126     0.159766424895
    C           -1.678332926124    -0.806854251272     0.062991186036
    O           -0.047910055571     0.792103535643    -0.431825471209
    H           -2.312056562305    -0.061856600241     0.529963897654
    H           -1.806760914688    -1.761108040128     0.551513913594
    H           -1.969361255277    -0.879472593747    -0.978478287363
    C            1.265220439523     1.324405740480    -0.461016305876
    H            1.333847563310     1.916121478608    -1.361149745555
    H            1.997552131044     0.533577023647    -0.480225857273
    H            1.426447673449     1.946735290107     0.408789987136

  Mulliken Charges: (a.u.)
   Center  Symbol    Alpha    Beta     Spin     Total
       1     O     4.28180  4.28180  0.00000 -0.56360
       2     C     2.62229  2.62229  0.00000  0.75543
       3     C     3.28187  3.28187  0.00000 -0.56373
       4     O     4.30058  4.30058  0.00000 -0.60117
       5     H     0.39988  0.39988  0.00000  0.20024
       6     H     0.39673  0.39673  0.00000  0.20653
       7     H     0.40019  0.40019  0.00000  0.19963
       8     C     3.09527  3.09527  0.00000 -0.19054
       9     H     0.40959  0.40959  0.00000  0.18082
      10     H     0.39935  0.39935  0.00000  0.20130
      11     H     0.41246  0.41246  0.00000  0.17509

   Total alpha = 20.00000, Total beta = 20.00000, Total charge =  0.00000
