  ==> Input File <==

--------------------------------------------------------------------------
set {
	reference rhf
	basis 6-31G*
}

set_num_threads( 4 )
memory 2 gb

molecule MOL {
0 1

H	 -4.031818	 -0.453427	 0.000382
C	 -2.967712	 -0.297022	 0.000317
C	 -2.458620	 0.992929	 0.000301
C	 -2.109895	 -1.385637	 0.000247
H	 -3.124998	 1.836319	 0.000355
C	 -1.090278	 1.193236	 0.000216
H	 -2.506361	 -2.384847	 0.000258
C	 -0.739812	 -1.187531	 0.000161
H	 -0.678594	 2.184290	 0.000205
C	 -0.226438	 0.104061	 0.000146
H	 -0.072310	 -2.027032	 0.000106
C	 1.239129	 0.373821	 0.000060
O	 1.970282	 -0.730723	 0.000018
O	 1.714856	 1.465857	 0.000035
C	 3.377318	 -0.566646	 -0.000065
H	 3.695437	 -0.028981	 -0.881264
H	 3.789299	 -1.563704	 0.000236
H	 3.695516	 -0.028316	 0.880770

	symmetry c1
}
set optking {
	frozen_dihedral = ("
		10 12 13 15
	")
}

ee = optimize('scf')
oeprop('DIPOLE', 'QUADRUPOLE', 'MULLIKEN_CHARGES')
f=open( 'psi4out.xyz', 'w' )
f.write( "18  " )
f.write( str(ee) + "\n" )
f.write( MOL.save_string_xyz() )
f.close()
--------------------------------------------------------------------------

    Molecular point group: c1
  Charge       = 0
  Multiplicity = 1
  Basis Set: 6-31G*
  Basis Set:

    Orbital Energies (a.u.)
    -----------------------

    Doubly Occupied:

       1A    -20.607643     2A    -20.544457     3A    -11.377894
       4A    -11.282964     5A    -11.245570     6A    -11.245282
       7A    -11.244139     8A    -11.241722     9A    -11.237478
      10A    -11.236718    11A     -1.472775    12A     -1.363917
      13A     -1.165294    14A     -1.048120    15A     -1.024799
      16A     -0.978115    17A     -0.860200    18A     -0.834336
      19A     -0.777744    20A     -0.739922    21A     -0.683338
      22A     -0.677422    23A     -0.671883    24A     -0.631075
      25A     -0.623944    26A     -0.597771    27A     -0.584644
      28A     -0.561510    29A     -0.529333    30A     -0.516637
      31A     -0.503413    32A     -0.498936    33A     -0.459235
      34A     -0.444418    35A     -0.344871    36A     -0.340977

  @DF-RHF Final Energy:  -457.35066780325411

   => Energetics <=

    Nuclear Repulsion Energy =            493.0137815911500070
    One-Electron Energy =               -1600.3319062230750660
    Two-Electron Energy =                 649.9674568286711747
    DFT Exchange-Correlation Energy =       0.0000000000000000
    Empirical Dispersion Energy =           0.0000000000000000
    PCM Polarization Energy =               0.0000000000000000
    EFP Energy =                            0.0000000000000000
    Total Energy =                       -457.3506678032538275
    Molecular point group: c1
  Basis Set: 6-31G*
  Basis Set:

  -Total Gradient:
     Atom            X                  Y                   Z
    ------   -----------------  -----------------  -----------------
       1       -0.000031863152     0.000004138298    -0.000000092290
       2        0.000001179401     0.000034861848     0.000000210003
       3       -0.000073100278    -0.000012058017    -0.000000062092
       4        0.000013885510     0.000050117690     0.000000188224
       5        0.000006775588    -0.000027094834    -0.000000013116
       6        0.000037346455    -0.000024429750    -0.000000060027
       7        0.000005357653    -0.000013189108    -0.000000044536
       8       -0.000002544935    -0.000012133049    -0.000000088109
       9        0.000017335062     0.000010409588     0.000000124854
      10        0.000067503744     0.000017987502    -0.000000286722
      11        0.000041063323     0.000008263495    -0.000000050730
      12       -0.000078863261     0.000152304027     0.000000557867
      13       -0.000029284755    -0.000051753238    -0.000003035023
      14       -0.000061101360    -0.000104415451     0.000000750977
      15        0.000078777156    -0.000011522571    -0.000027935154
      16       -0.000020736963    -0.000016065274     0.000007432919
      17        0.000036202245    -0.000017905978    -0.000004257795
      18       -0.000007931436     0.000012484824     0.000026660750

  **** Optimization is complete! (in 1 steps) ****
    Final optimized geometry and variables:
    Molecular point group: c1

    Geometry (in Angstrom), charge = 0, multiplicity = 1:

    H           -4.031817544175    -0.453426598670     0.000246023515
    C           -2.967711544175    -0.297021598670     0.000181023515
    C           -2.458619544175     0.992929401330     0.000165023515
    C           -2.109894544175    -1.385636598670     0.000111023515
    H           -3.124997544175     1.836319401330     0.000219023515
    C           -1.090277544175     1.193236401330     0.000080023515
    H           -2.506360544175    -2.384846598670     0.000122023515
    C           -0.739811544175    -1.187530598670     0.000025023515
    H           -0.678593544175     2.184290401330     0.000069023515
    C           -0.226437544175     0.104061401330     0.000010023515
    H           -0.072309544175    -2.027031598670    -0.000029976485
    C            1.239129455825     0.373821401330    -0.000075976485
    O            1.970282455825    -0.730722598670    -0.000117976485
    O            1.714856455825     1.465857401330    -0.000100976485
    C            3.377318455825    -0.566645598670    -0.000200976485
    H            3.695437455825    -0.028980598670    -0.881399976485
    H            3.789299455825    -1.563703598670     0.000100023515
    H            3.695516455825    -0.028315598670     0.880634023515

  Mulliken Charges: (a.u.)
   Center  Symbol    Alpha    Beta     Spin     Total
       1     H     0.39538  0.39538  0.00000  0.20923
       2     C     3.08998  3.08998  0.00000 -0.17997
       3     C     3.10713  3.10713  0.00000 -0.21426
       4     C     3.10718  3.10718  0.00000 -0.21436
       5     H     0.39536  0.39536  0.00000  0.20927
       6     C     3.08640  3.08640  0.00000 -0.17281
       7     H     0.39626  0.39626  0.00000  0.20748
       8     C     3.08715  3.08715  0.00000 -0.17430
       9     H     0.37596  0.37596  0.00000  0.24808
      10     C     3.07712  3.07712  0.00000 -0.15425
      11     H     0.38040  0.38040  0.00000  0.23920
      12     C     2.57966  2.57966  0.00000  0.84068
      13     O     4.31486  4.31486  0.00000 -0.62971
      14     O     4.29181  4.29181  0.00000 -0.58363
      15     C     3.09255  3.09255  0.00000 -0.18509
      16     H     0.40741  0.40741  0.00000  0.18518
      17     H     0.40796  0.40796  0.00000  0.18407
      18     H     0.40740  0.40740  0.00000  0.18519

   Total alpha = 36.00000, Total beta = 36.00000, Total charge = -0.00000
