                              Psi4 1.0.54 Driver

  ==> Input File <==

--------------------------------------------------------------------------
set {
	reference rhf
	basis cc-pvtz
}

set_num_threads( 4 )
memory 2 gb

molecule MOL {
0 1

O	 -3.327137	 0.265255	 0.975739
C	 -2.664672	 0.129869	 0.003507
C	 -3.075657	 0.612728	 -1.361126
O	 -1.481217	 -0.452708	 0.001092
H	 -3.248436	 1.679371	 -1.311108
H	 -2.328729	 0.394816	 -2.107619
H	 -4.011845	 0.139796	 -1.625629
C	 -0.332055	 0.384012	 -0.000250
C	 0.892252	 -0.506059	 -0.000295
H	 -0.360822	 1.020205	 -0.874146
H	 -0.359817	 1.021310	 0.872861
C	 2.188199	 0.299473	 -0.001416
H	 0.857046	 -1.152781	 -0.871031
H	 0.857910	 -1.151798	 0.871202
C	 3.437151	 -0.577593	 -0.000991
H	 2.209565	 0.950707	 -0.871712
H	 2.210062	 0.952234	 0.867721
C	 4.732399	 0.226982	 -0.000914
H	 3.417321	 -1.229122	 -0.869998
H	 3.416993	 -1.228707	 0.868337
H	 4.797903	 0.863451	 -0.876963
H	 5.598517	 -0.424436	 -0.000420
H	 4.797415	 0.864118	 0.874691

	symmetry c1
}
set optking {
	frozen_dihedral = ("
		1 2 4 8
	")
}

ee,wfn = optimize('scf', return_wfn=True)
oeprop( wfn, 'DIPOLE', 'QUADRUPOLE', 'MULLIKEN_CHARGES')
f=open( 'psi4out.xyz', 'w' )
f.write( "23  " )
f.write( str(ee) + "\n" )
f.write( MOL.save_string_xyz() )
f.close()
--------------------------------------------------------------------------

    Molecular point group: c1
  Charge       = 0
  Multiplicity = 1
  Basis Set: CC-PVTZ
  Basis Set:
  @DF-RHF Final Energy:  -423.11301940821880
    Total Energy =                       -423.1130194082192020
    Molecular point group: c1
  Basis Set: CC-PVTZ
  Basis Set:
  Basis Set: CC-PVTZ
  Basis Set:
  @DF-RHF Final Energy:  -423.07253561629949
    Total Energy =                       -423.0725356162993194
  Basis Set: CC-PVTZ
  Basis Set:
  Basis Set: CC-PVTZ
  Basis Set:
  @DF-RHF Final Energy:  -423.11223725540924
    Total Energy =                       -423.1122372554091271
  Basis Set: CC-PVTZ
  Basis Set:
  Basis Set: CC-PVTZ
  Basis Set:
  @DF-RHF Final Energy:  -423.11438969161981
    Total Energy =                       -423.1143896916198628
  Basis Set: CC-PVTZ
  Basis Set:
  @DF-RHF Final Energy:  -423.11447394988608
    Total Energy =                       -423.1144739498859053
  @DF-RHF Final Energy:  -423.11474368015024
    Total Energy =                       -423.1147436801505819
  @DF-RHF Final Energy:  -423.11475480602161
    Total Energy =                       -423.1147548060206418
  @DF-RHF Final Energy:  -423.11478364072769
    Total Energy =                       -423.1147836407278646
  @DF-RHF Final Energy:  -423.11480407096724
    Total Energy =                       -423.1148040709674660
  @DF-RHF Final Energy:  -423.11455581121982
    Total Energy =                       -423.1145558112195886
  @DF-RHF Final Energy:  -423.11493239426125
    Total Energy =                       -423.1149323942613591
  @DF-RHF Final Energy:  -423.11484465328056
    Total Energy =                       -423.1148446532803291
  @DF-RHF Final Energy:  -423.11501185095153
    Total Energy =                       -423.1150118509519871
  @DF-RHF Final Energy:  -423.11560257032255
    Total Energy =                       -423.1156025703226078
  @DF-RHF Final Energy:  -423.11590362984333
    Total Energy =                       -423.1159036298430465
  @DF-RHF Final Energy:  -423.11606082283453
    Total Energy =                       -423.1160608228346973
  Basis Set: CC-PVTZ
  Basis Set:
  @DF-RHF Final Energy:  -423.11606768425764
    Total Energy =                       -423.1160676842575867
  Basis Set: CC-PVTZ
  Basis Set:
  Basis Set: CC-PVTZ
  Basis Set:
  @DF-RHF Final Energy:  -423.11607348289942
    Total Energy =                       -423.1160734828993100
  Basis Set: CC-PVTZ
  Basis Set:
  Basis Set: CC-PVTZ
  Basis Set:
  @DF-RHF Final Energy:  -423.11607844299851
    Total Energy =                       -423.1160784429982868
  Basis Set: CC-PVTZ
  Basis Set:
  Charge       = 0
  Multiplicity = 1
  Basis Set: CC-PVTZ
  Basis Set:

    Orbital Energies (a.u.)
    -----------------------

    Doubly Occupied:

       1A    -20.575669     2A    -20.543442     3A    -11.369142
       4A    -11.290824     5A    -11.235907     6A    -11.224754
       7A    -11.224127     8A    -11.221282     9A    -11.212652
      10A     -1.460065    11A     -1.368929    12A     -1.096088
      13A     -1.037332    14A     -1.010563    15A     -0.936304
      16A     -0.843852    17A     -0.805486    18A     -0.776123
      19A     -0.699701    20A     -0.690519    21A     -0.656071
      22A     -0.652081    23A     -0.621692    24A     -0.592448
      25A     -0.581801    26A     -0.577998    27A     -0.562928
      28A     -0.548645    29A     -0.517793    30A     -0.501960
      31A     -0.491693    32A     -0.480214    33A     -0.473944
      34A     -0.473449    35A     -0.455726    36A     -0.436369

  @DF-RHF Final Energy:  -423.11607862267260

   => Energetics <=

    Nuclear Repulsion Energy =            449.6983868716235975
    One-Electron Energy =               -1467.1337862940431478
    Two-Electron Energy =                 594.3193207997471745
    DFT Exchange-Correlation Energy =       0.0000000000000000
    Empirical Dispersion Energy =           0.0000000000000000
    PCM Polarization Energy =               0.0000000000000000
    EFP Energy =                            0.0000000000000000
    Total Energy =                       -423.1160786226723758
    Molecular point group: c1
  Basis Set: CC-PVTZ
  Basis Set:

  -Total Gradient:
     Atom            X                  Y                   Z
    ------   -----------------  -----------------  -----------------
       1       -0.000375793021    -0.001054781124     0.000115593808
       2        0.000575483986     0.001387835940    -0.000603337372
       3       -0.000020429383     0.000027735763    -0.000052655266
       4       -0.000179353105    -0.000074564234     0.001341778080
       5        0.000057785395    -0.000037040985    -0.000007344257
       6       -0.000041794282    -0.000037508883     0.000039507886
       7       -0.000010847268     0.000063091241     0.000030641188
       8       -0.000014392482    -0.000297383680    -0.000874509456
       9        0.000003915857     0.000008141118    -0.000005514930
      10        0.000001846382     0.000012577361    -0.000006773919
      11        0.000005402768    -0.000003816954     0.000000202609
      12       -0.000002311064     0.000000296997     0.000014303084
      13       -0.000007500072    -0.000000883543     0.000003063231
      14        0.000004643149     0.000000735453     0.000001954931
      15        0.000003096346     0.000003824710    -0.000001000858
      16       -0.000001950646     0.000001995494     0.000004601828
      17        0.000003752729     0.000002962555     0.000004808152
      18       -0.000002072858    -0.000005160382    -0.000003935328
      19       -0.000001869216    -0.000003313396     0.000003725440
      20        0.000001578749     0.000006955884    -0.000002786992
      21       -0.000000244218     0.000001344407     0.000000101992
      22        0.000001638911    -0.000000765970    -0.000002566796
      23       -0.000000586665    -0.000002277770     0.000000142942

  **** Optimization is complete! (in 20 steps) ****
    Final optimized geometry and variables:
    Molecular point group: c1

    Geometry (in Angstrom), charge = 0, multiplicity = 1:

    O           -3.331798693850     0.081181270893     0.996302733933
    C           -2.692322036633    -0.242565738763     0.064098680172
    C           -3.229353940429    -0.323508229267    -1.338991476501
    O           -1.415900852182    -0.653473171487     0.196601627000
    H           -4.242994702067     0.041832815179    -1.366794996136
    H           -2.612842781689     0.248463584357    -2.020230596805
    H           -3.198822088007    -1.356787087233    -1.662398036639
    C           -0.385828829399     0.275306169934    -0.089910477190
    C            0.945389059971    -0.390187142169     0.186630125443
    H           -0.445201632686     0.587175127446    -1.128139158124
    H           -0.514449495978     1.151395453656     0.536416849086
    C            2.125859461705     0.536837407940    -0.087230378385
    H            1.021069118214    -1.282382385573    -0.426191337113
    H            0.957632761706    -0.716682993923     1.220523681119
    C            3.475682003529    -0.119576313051     0.189168074129
    H            2.096540057169     0.868408376893    -1.122649286841
    H            2.033440359416     1.432194332048     0.522659311124
    C            4.656804807643     0.804934865795    -0.084801848349
    H            3.569492097637    -1.014906651053    -0.418835835496
    H            3.507611525946    -0.449115292211     1.223617309987
    H            4.671698946858     1.125057269019    -1.121355783785
    H            5.598127748736     0.309008699807     0.121109749001
    H            4.609557127382     1.694562409306     0.534282487834

  Mulliken Charges: (a.u.)
   Center  Symbol    Alpha    Beta     Spin     Total
       1     O     4.16916  4.16916  0.00000 -0.33833
       2     C     2.80630  2.80630  0.00000  0.38740
       3     C     3.14777  3.14777  0.00000 -0.29554
       4     O     4.16646  4.16646  0.00000 -0.33292
       5     H     0.43578  0.43578  0.00000  0.12844
       6     H     0.45082  0.45082  0.00000  0.09837
       7     H     0.44348  0.44348  0.00000  0.11303
       8     C     2.97571  2.97571  0.00000  0.04858
       9     C     3.08419  3.08419  0.00000 -0.16838
      10     H     0.46477  0.46477  0.00000  0.07046
      11     H     0.45739  0.45739  0.00000  0.08522
      12     C     3.09996  3.09996  0.00000 -0.19992
      13     H     0.44956  0.44956  0.00000  0.10089
      14     H     0.44452  0.44452  0.00000  0.11096
      15     C     3.08550  3.08550  0.00000 -0.17100
      16     H     0.45472  0.45472  0.00000  0.09056
      17     H     0.45249  0.45249  0.00000  0.09501
      18     C     3.14953  3.14953  0.00000 -0.29905
      19     H     0.45322  0.45322  0.00000  0.09357
      20     H     0.45198  0.45198  0.00000  0.09604
      21     H     0.45521  0.45521  0.00000  0.08957
      22     H     0.44712  0.44712  0.00000  0.10576
      23     H     0.45437  0.45437  0.00000  0.09126

   Total alpha = 36.00000, Total beta = 36.00000, Total charge =  0.00000

*** Psi4 exiting successfully. Buy a developer a beer!
