  ==> Input File <==

--------------------------------------------------------------------------
set {
	reference rhf
	basis 6-31G*
}

set_num_threads( 4 )
memory 2 gb

molecule MOL {
0 1

H	 0.408319	 2.667538	 0.888596
C	 0.883278	 1.726134	 0.585486
C	 0.065331	 0.871482	 -0.349150
O	 1.966046	 1.447235	 0.987415
C	 -1.339775	 0.583656	 0.198860
H	 0.611527	 -0.044958	 -0.540776
H	 -0.020489	 1.413854	 -1.289697
C	 -1.808407	 -0.848507	 -0.061364
H	 -2.036183	 1.280685	 -0.256307
H	 -1.360094	 0.788874	 1.267089
H	 -1.828843	 -1.063152	 -1.125336
H	 -2.808409	 -1.004529	 0.329750
H	 -1.153967	 -1.577789	 0.406873

	symmetry c1
}
set optking {
	frozen_dihedral = ("
		6 3 5 9
	")
}

ee = optimize('scf')
oeprop('DIPOLE', 'QUADRUPOLE', 'MULLIKEN_CHARGES')
f=open( 'psi4out.xyz', 'w' )
f.write( "13  " )
f.write( str(ee) + "\n" )
f.write( MOL.save_string_xyz() )
f.close()
--------------------------------------------------------------------------

    Molecular point group: c1
  Charge       = 0
  Multiplicity = 1
  Basis Set: 6-31G*
  Basis Set:
  @DF-RHF Final Energy:  -230.98063422754691
    Total Energy =                       -230.9806342275468296
    Molecular point group: c1
  Basis Set: 6-31G*
  Basis Set:
  Basis Set: 6-31G*
  Basis Set:
  @DF-RHF Final Energy:  -230.98044344840608
    Total Energy =                       -230.9804434484061630
  Basis Set: 6-31G*
  Basis Set:
  Basis Set: 6-31G*
  Basis Set:
  @DF-RHF Final Energy:  -230.97760380665306
    Total Energy =                       -230.9776038066531783
  Basis Set: 6-31G*
  Basis Set:
  Basis Set: 6-31G*
  Basis Set:
  @DF-RHF Final Energy:  -230.98100880440296
    Total Energy =                       -230.9810088044028475
  Basis Set: 6-31G*
  Basis Set:
  @DF-RHF Final Energy:  -230.98105215035815
    Total Energy =                       -230.9810521503579821
  @DF-RHF Final Energy:  -230.98105839317128
    Total Energy =                       -230.9810583931713666
  Basis Set: 6-31G*
  Basis Set:
  @DF-RHF Final Energy:  -230.98106492719725
    Total Energy =                       -230.9810649271971101
  Basis Set: 6-31G*
  Basis Set:
  Basis Set: 6-31G*
  Basis Set:
  @DF-RHF Final Energy:  -230.98106816128302
    Total Energy =                       -230.9810681612831331
  Basis Set: 6-31G*
  Basis Set:
  Basis Set: 6-31G*
  Basis Set:
  @DF-RHF Final Energy:  -230.98107008642887
    Total Energy =                       -230.9810700864288719
  Basis Set: 6-31G*
  Basis Set:
  Charge       = 0
  Multiplicity = 1
  Basis Set: 6-31G*
  Basis Set:

    Orbital Energies (a.u.)
    -----------------------

    Doubly Occupied:

       1A    -20.562376     2A    -11.327411     3A    -11.239082
       4A    -11.235648     5A    -11.223134     6A     -1.402556
       7A     -1.084697     8A     -0.976044     9A     -0.839541
      10A     -0.795903    11A     -0.671483    12A     -0.642589
      13A     -0.635008    14A     -0.585246    15A     -0.556969
      16A     -0.536759    17A     -0.505926    18A     -0.494455
      19A     -0.479688    20A     -0.410947

  @DF-RHF Final Energy:  -230.98107020257709

   => Energetics <=

    Nuclear Repulsion Energy =            170.4491202249404864
    One-Electron Energy =                -650.4494585832101166
    Two-Electron Energy =                 249.0192681556926857
    DFT Exchange-Correlation Energy =       0.0000000000000000
    Empirical Dispersion Energy =           0.0000000000000000
    PCM Polarization Energy =               0.0000000000000000
    EFP Energy =                            0.0000000000000000
    Total Energy =                       -230.9810702025769444
    Molecular point group: c1
  Basis Set: 6-31G*
  Basis Set:

  -Total Gradient:
     Atom            X                  Y                   Z
    ------   -----------------  -----------------  -----------------
       1        0.000001158893     0.000000451816     0.000002122638
       2       -0.000001654181     0.000006330580    -0.000002696068
       3        0.001411628704    -0.000408750812     0.003474650969
       4        0.000001346382    -0.000001839669     0.000002160559
       5        0.000344028453     0.002721104771     0.002270725010
       6       -0.001212935071    -0.000094893398    -0.003235053858
       7       -0.000000617407    -0.000002633349     0.000003332287
       8       -0.000000999924     0.000004398040    -0.000001346161
       9       -0.000539789225    -0.002224999571    -0.002515795804
      10       -0.000001412538     0.000001252901     0.000002104700
      11       -0.000001452706    -0.000000813707     0.000000262191
      12       -0.000000098845    -0.000002261705     0.000000093809
      13        0.000000797462     0.000002654103    -0.000000560274

  **** Optimization is complete! (in 10 steps) ****
    Final optimized geometry and variables:
    Molecular point group: c1

    Geometry (in Angstrom), charge = 0, multiplicity = 1:

    H            0.415466700772     1.875133864350     0.683397790031
    C            0.927476094180     0.977497248623     0.316398477379
    C            0.106807190331     0.093748831324    -0.585967340004
    O            2.052325426073     0.760630935666     0.631653166676
    C           -1.315373309145    -0.172543821416    -0.045234671830
    H            0.650367022202    -0.826883398105    -0.762453722918
    H            0.039263577561     0.596556180816    -1.549654201769
    C           -1.784448753027    -1.599739291970    -0.331992729282
    H           -2.017111559247     0.516628821805    -0.504129609549
    H           -1.353179041799     0.003694251346     1.026667538923
    H           -1.776778561666    -1.806429476022    -1.398139814111
    H           -2.795732096030    -1.756060280485     0.029110820578
    H           -1.140173524295    -2.327277030912     0.151699369833

  Mulliken Charges: (a.u.)
   Center  Symbol    Alpha    Beta     Spin     Total
       1     H     0.43135  0.43135  0.00000  0.13730
       2     C     2.83126  2.83126  0.00000  0.33748
       3     C     3.21102  3.21102  0.00000 -0.42205
       4     O     4.23807  4.23807  0.00000 -0.47614
       5     C     3.16530  3.16530  0.00000 -0.33059
       6     H     0.39754  0.39754  0.00000  0.20492
       7     H     0.40525  0.40525  0.00000  0.18951
       8     C     3.24043  3.24043  0.00000 -0.48086
       9     H     0.41469  0.41469  0.00000  0.17061
      10     H     0.41473  0.41473  0.00000  0.17053
      11     H     0.41844  0.41844  0.00000  0.16311
      12     H     0.41601  0.41601  0.00000  0.16798
      13     H     0.41590  0.41590  0.00000  0.16820

   Total alpha = 20.00000, Total beta = 20.00000, Total charge = -0.00000
