  ==> Input File <==

--------------------------------------------------------------------------
set {
	reference rhf
	basis 6-31G*
}

set_num_threads( 4 )
memory 2 gb

molecule MOL {
0 1

H	 1.894709	 -1.466061	 0.897206
O	 1.386540	 -0.917254	 0.317323
C	 0.859300	 0.169429	 1.035867
C	 0.031547	 1.023609	 0.088541
H	 1.661644	 0.773903	 1.455084
H	 0.251128	 -0.181462	 1.866591
C	 -1.134819	 0.293262	 -0.585751
H	 0.695546	 1.412474	 -0.678388
H	 -0.342682	 1.880512	 0.646114
C	 -1.917817	 -0.639439	 0.339494
H	 -0.758119	 -0.268455	 -1.433105
H	 -1.813832	 1.041889	 -0.986690
H	 -2.777680	 -1.057197	 -0.174994
H	 -1.310268	 -1.471279	 0.680599
H	 -2.283753	 -0.111424	 1.216626

	symmetry c1
}
set optking {
	frozen_dihedral = ("
		8 4 7 11
	")
}

ee = optimize('scf')
oeprop('DIPOLE', 'QUADRUPOLE', 'MULLIKEN_CHARGES')
f=open( 'psi4out.xyz', 'w' )
f.write( "15  " )
f.write( str(ee) + "\n" )
f.write( MOL.save_string_xyz() )
f.close()
--------------------------------------------------------------------------

    Molecular point group: c1
  Charge       = 0
  Multiplicity = 1
  Basis Set: 6-31G*
  Basis Set:
  @DF-RHF Final Energy:  -232.14217874115323
    Total Energy =                       -232.1421787411533728
    Molecular point group: c1
  Basis Set: 6-31G*
  Basis Set:
  Basis Set: 6-31G*
  Basis Set:
  @DF-RHF Final Energy:  -232.14230161837057
    Total Energy =                       -232.1423016183704249
  Basis Set: 6-31G*
  Basis Set:
  Basis Set: 6-31G*
  Basis Set:
  @DF-RHF Final Energy:  -232.14246744522291
    Total Energy =                       -232.1424674452229056
  Basis Set: 6-31G*
  Basis Set:
  Basis Set: 6-31G*
  Basis Set:
  @DF-RHF Final Energy:  -232.14247852869090
    Total Energy =                       -232.1424785286908445
  Basis Set: 6-31G*
  Basis Set:
  Charge       = 0
  Multiplicity = 1
  Basis Set: 6-31G*
  Basis Set:

    Orbital Energies (a.u.)
    -----------------------

    Doubly Occupied:

       1A    -20.553759     2A    -11.266961     3A    -11.212472
       4A    -11.209064     5A    -11.202989     6A     -1.360066
       7A     -1.062531     8A     -0.969140     9A     -0.869807
      10A     -0.770912    11A     -0.704826    12A     -0.649043
      13A     -0.607572    14A     -0.570925    15A     -0.561618
      16A     -0.530528    17A     -0.512409    18A     -0.473395
      19A     -0.462599    20A     -0.451019    21A     -0.431671

  @DF-RHF Final Energy:  -232.14247946367055

   => Energetics <=

    Nuclear Repulsion Energy =            193.0923187990430279
    One-Electron Energy =                -697.6029830043983111
    Two-Electron Energy =                 272.3681847416846722
    DFT Exchange-Correlation Energy =       0.0000000000000000
    Empirical Dispersion Energy =           0.0000000000000000
    PCM Polarization Energy =               0.0000000000000000
    EFP Energy =                            0.0000000000000000
    Total Energy =                       -232.1424794636706110
    Molecular point group: c1
  Basis Set: 6-31G*
  Basis Set:

  -Total Gradient:
     Atom            X                  Y                   Z
    ------   -----------------  -----------------  -----------------
       1        0.000022146099     0.000003865069    -0.000012441193
       2       -0.000027469078     0.000012704437     0.000010854936
       3        0.000003553414    -0.000096917291     0.000100077182
       4       -0.002701520997     0.004962264052    -0.000831245991
       5       -0.000003588296    -0.000024296848     0.000037144691
       6        0.000001812024     0.000022131153     0.000010500289
       7        0.001161649532    -0.004634028488     0.003091094791
       8        0.002026063090    -0.003371432502     0.000125370060
       9        0.000013546674    -0.000014085523    -0.000053844244
      10        0.000176694823    -0.000012729331    -0.000026726445
      11       -0.000558181221     0.003085322804    -0.002358305327
      12       -0.000079735078     0.000049755320    -0.000030591690
      13        0.000012901590     0.000020107813     0.000011704947
      14       -0.000099032628    -0.000025278859    -0.000084330599
      15        0.000051160049     0.000022618198     0.000010738595

  **** Optimization is complete! (in 5 steps) ****
    Final optimized geometry and variables:
    Molecular point group: c1

    Geometry (in Angstrom), charge = 0, multiplicity = 1:

    H            2.050467553623    -1.392842894696     0.608681949065
    O            1.520600458902    -0.849264311183     0.043267664291
    C            0.992725139842     0.226496439542     0.778128908940
    C            0.140205290474     1.074397399378    -0.153856210091
    H            1.794784690392     0.838452856288     1.187199560470
    H            0.402849964884    -0.136216621045     1.616547190958
    C           -1.015369919334     0.324213529414    -0.834737009775
    H            0.804629087955     1.460608954579    -0.921208078040
    H           -0.240919450562     1.919887819901     0.414120132538
    C           -1.837686569912    -0.583013626878     0.078668407634
    H           -0.626440038356    -0.242338354147    -1.673794514036
    H           -1.676162355549     1.069889543396    -1.272632704651
    H           -2.695531777987    -0.981464480069    -0.454068833190
    H           -1.253080681672    -1.423979871370     0.433689797591
    H           -2.212383450021    -0.041587690299     0.944047510152

  Mulliken Charges: (a.u.)
   Center  Symbol    Alpha    Beta     Spin     Total
       1     H     0.28063  0.28063  0.00000  0.43873
       2     O     4.36987  4.36987  0.00000 -0.73974
       3     C     3.00118  3.00118  0.00000 -0.00236
       4     C     3.16113  3.16113  0.00000 -0.32225
       5     H     0.42891  0.42891  0.00000  0.14217
       6     H     0.42996  0.42996  0.00000  0.14007
       7     C     3.14906  3.14906  0.00000 -0.29813
       8     H     0.41433  0.41433  0.00000  0.17134
       9     H     0.42367  0.42367  0.00000  0.15266
      10     C     3.24566  3.24566  0.00000 -0.49132
      11     H     0.41165  0.41165  0.00000  0.17670
      12     H     0.42416  0.42416  0.00000  0.15169
      13     H     0.41956  0.41956  0.00000  0.16087
      14     H     0.41437  0.41437  0.00000  0.17127
      15     H     0.42586  0.42586  0.00000  0.14829

   Total alpha = 21.00000, Total beta = 21.00000, Total charge = -0.00000
