  ==> Input File <==

--------------------------------------------------------------------------
set {
	reference rhf
	basis 6-31G*
}

set_num_threads( 4 )
memory 2 gb

molecule MOL {
0 1

H	 3.893188	 0.355400	 -0.101367
N	 3.092854	 -0.246221	 -0.068770
C	 1.865559	 0.531981	 0.018834
H	 3.199514	 -0.826043	 0.741946
C	 0.645745	 -0.382037	 -0.029944
H	 1.841966	 1.207024	 -0.831236
H	 1.815756	 1.155410	 0.915079
C	 -0.679275	 0.379305	 0.025956
H	 0.698998	 -0.976915	 -0.937203
H	 0.693479	 -1.083846	 0.802235
C	 -1.596326	 0.080948	 -1.161636
H	 -0.479370	 1.449137	 0.062667
H	 -1.201023	 0.135512	 0.950181
C	 -2.917458	 0.846958	 -1.103753
H	 -1.077643	 0.324989	 -2.086095
H	 -1.799974	 -0.987116	 -1.199360
H	 -2.748497	 1.920153	 -1.099338
H	 -3.544961	 0.614885	 -1.958731
H	 -3.476412	 0.597802	 -0.206043

	symmetry c1
}
set optking {
	frozen_dihedral = ("
		12 8 5 9
	")
}

ee = optimize('scf')
oeprop('DIPOLE', 'QUADRUPOLE', 'MULLIKEN_CHARGES')
f=open( 'psi4out.xyz', 'w' )
f.write( "19  " )
f.write( str(ee) + "\n" )
f.write( MOL.save_string_xyz() )
f.close()
--------------------------------------------------------------------------

    Molecular point group: c1
  Charge       = 0
  Multiplicity = 1
  Basis Set: 6-31G*
  Basis Set:
  @DF-RHF Final Energy:  -251.34653238566375
    Total Energy =                       -251.3465323856640339
    Molecular point group: c1
  Basis Set: 6-31G*
  Basis Set:
  Basis Set: 6-31G*
  Basis Set:
  @DF-RHF Final Energy:  -251.34673255045635
    Total Energy =                       -251.3467325504564087
  Basis Set: 6-31G*
  Basis Set:
  Basis Set: 6-31G*
  Basis Set:
  @DF-RHF Final Energy:  -251.34679219041249
    Total Energy =                       -251.3467921904125433
  Basis Set: 6-31G*
  Basis Set:
  Charge       = 0
  Multiplicity = 1
  Basis Set: 6-31G*
  Basis Set:

    Orbital Energies (a.u.)
    -----------------------

    Doubly Occupied:

       1A    -15.532497     2A    -11.240237     3A    -11.213711
       4A    -11.212489     5A    -11.209104     6A    -11.206994
       7A     -1.176774     8A     -1.070813     9A     -0.996771
      10A     -0.899892    11A     -0.816372    12A     -0.787931
      13A     -0.660536    14A     -0.635348    15A     -0.623753
      16A     -0.585747    17A     -0.569761    18A     -0.548467
      19A     -0.525667    20A     -0.499891    21A     -0.482797
      22A     -0.465693    23A     -0.452808    24A     -0.449376
      25A     -0.381091

  @DF-RHF Final Energy:  -251.34679205066931

   => Energetics <=

    Nuclear Repulsion Energy =            246.2530835276531320
    One-Electron Energy =                -826.7107103595508306
    Two-Electron Energy =                 329.1108347812282773
    DFT Exchange-Correlation Energy =       0.0000000000000000
    Empirical Dispersion Energy =           0.0000000000000000
    PCM Polarization Energy =               0.0000000000000000
    EFP Energy =                            0.0000000000000000
    Total Energy =                       -251.3467920506693645
    Molecular point group: c1
  Basis Set: 6-31G*
  Basis Set:

  -Total Gradient:
     Atom            X                  Y                   Z
    ------   -----------------  -----------------  -----------------
       1        0.000038129605    -0.000010177002    -0.000006879079
       2        0.000049422674    -0.000008321292    -0.000048661689
       3       -0.000034293547     0.000001584215     0.000085959319
       4       -0.000008621416     0.000008245964     0.000002924668
       5        0.000421435795     0.000819642380    -0.000291425003
       6       -0.000015306018    -0.000003971157     0.000010018750
       7       -0.000002564523     0.000002222632    -0.000003364510
       8       -0.000098427935    -0.000135684560    -0.001026230045
       9       -0.000387423417    -0.000690523461     0.000432274035
      10        0.000022074351     0.000021597764    -0.000003152938
      11        0.000003619560     0.000027210802    -0.000011229471
      12        0.000036210438    -0.000032843379     0.000849133090
      13       -0.000001095006     0.000008206237    -0.000008208564
      14       -0.000030717434    -0.000022293373     0.000018125466
      15       -0.000000409207     0.000023276081     0.000014333000
      16        0.000024314681    -0.000004520429    -0.000013495751
      17        0.000004403504    -0.000011030499    -0.000003153084
      18       -0.000014392215    -0.000003516587     0.000001721434
      19       -0.000006359894     0.000010895661     0.000001310372

  **** Optimization is complete! (in 4 steps) ****
    Final optimized geometry and variables:
    Molecular point group: c1

    Geometry (in Angstrom), charge = 0, multiplicity = 1:

    H            3.800444721446     0.145673661982     0.283446988174
    N            2.999160352881    -0.454899826220     0.312236710142
    C            1.772744804274     0.322683516949     0.402703257115
    H            3.104584843058    -1.040455588189     1.119033107215
    C            0.551111350913    -0.589356205099     0.349252562655
    H            1.747376393376     1.001622985056    -0.444649680734
    H            1.720794138206     0.942641982637     1.301352081933
    C           -0.787165464064     0.178927491615     0.397382427328
    H            0.615093264249    -1.188788831323    -0.553488766738
    H            0.604853636195    -1.294015523726     1.176500958143
    C           -1.708590179280    -0.122226440700    -0.786814328177
    H           -0.596583323085     1.250247814608     0.432070683880
    H           -1.314263304419    -0.050833642455     1.320011700273
    C           -3.031360813165     0.639614115506    -0.724799480897
    H           -1.191947654681     0.121916923586    -1.712692380471
    H           -1.907473108351    -1.191142412052    -0.822702780322
    H           -2.865892237627     1.713477340541    -0.722641453893
    H           -3.661880685028     0.404247223099    -1.576722870702
    H           -3.585819500034     0.390266204728     0.175709248629

  Mulliken Charges: (a.u.)
   Center  Symbol    Alpha    Beta     Spin     Total
       1     H     0.33239  0.33239  0.00000  0.33522
       2     N     3.92221  3.92221  0.00000 -0.84441
       3     C     3.06280  3.06280  0.00000 -0.12561
       4     H     0.33529  0.33529  0.00000  0.32943
       5     C     3.15472  3.15472  0.00000 -0.30944
       6     H     0.42093  0.42093  0.00000  0.15815
       7     H     0.43416  0.43416  0.00000  0.13168
       8     C     3.15830  3.15830  0.00000 -0.31660
       9     H     0.41012  0.41012  0.00000  0.17976
      10     H     0.42516  0.42516  0.00000  0.14968
      11     C     3.15236  3.15236  0.00000 -0.30472
      12     H     0.42259  0.42259  0.00000  0.15483
      13     H     0.42142  0.42142  0.00000  0.15716
      14     C     3.24018  3.24018  0.00000 -0.48036
      15     H     0.42199  0.42199  0.00000  0.15601
      16     H     0.42186  0.42186  0.00000  0.15628
      17     H     0.42217  0.42217  0.00000  0.15566
      18     H     0.41924  0.41924  0.00000  0.16152
      19     H     0.42211  0.42211  0.00000  0.15577

   Total alpha = 25.00000, Total beta = 25.00000, Total charge = -0.00000
