                              Psi4 1.0.54 Driver

  ==> Input File <==

--------------------------------------------------------------------------
set {
	reference rhf
	basis cc-pvtz
}

set_num_threads( 4 )
memory 2 gb

molecule MOL {
0 1

H	 2.757696	 0.349871	 -0.792635
N	 2.326826	 -0.066186	 0.000000
C	 0.934676	 -0.005420	 0.000000
H	 2.700128	 -0.969012	 0.180483
C	 0.226436	 -0.001077	 -1.195129
C	 0.226436	 -0.001077	 1.195129
H	 0.759091	 -0.011439	 -2.128123
C	 -1.153391	 0.009141	 -1.189028
H	 0.759091	 -0.011439	 2.128123
C	 -1.153391	 0.009141	 1.189028
H	 -1.680905	 0.012964	 -2.124348
C	 -1.857876	 0.014675	 0.000000
H	 -1.680905	 0.012964	 2.124348
H	 -2.930222	 0.022904	 0.000000

	symmetry c1
}
set optking {
	frozen_dihedral = ("
		1 2 3 5
	")
}

ee,wfn = optimize('scf', return_wfn=True)
oeprop( wfn, 'DIPOLE', 'QUADRUPOLE', 'MULLIKEN_CHARGES')
f=open( 'psi4out.xyz', 'w' )
f.write( "14  " )
f.write( str(ee) + "\n" )
f.write( MOL.save_string_xyz() )
f.close()
--------------------------------------------------------------------------

    Molecular point group: c1
  Charge       = 0
  Multiplicity = 1
  Basis Set: CC-PVTZ
  Basis Set:
  @DF-RHF Final Energy:  -285.82797900405984
    Total Energy =                       -285.8279790040601256
    Molecular point group: c1
  Basis Set: CC-PVTZ
  Basis Set:
  Basis Set: CC-PVTZ
  Basis Set:
  @DF-RHF Final Energy:  -285.82863939130431
    Total Energy =                       -285.8286393913042502
  Basis Set: CC-PVTZ
  Basis Set:
  Basis Set: CC-PVTZ
  Basis Set:
  @DF-RHF Final Energy:  -285.82873600705335
    Total Energy =                       -285.8287360070533509
  Basis Set: CC-PVTZ
  Basis Set:
  Basis Set: CC-PVTZ
  Basis Set:
  @DF-RHF Final Energy:  -285.82877782954859
    Total Energy =                       -285.8287778295488124
  Basis Set: CC-PVTZ
  Basis Set:
  Basis Set: CC-PVTZ
  Basis Set:
  @DF-RHF Final Energy:  -285.82878512653087
    Total Energy =                       -285.8287851265305903
  Basis Set: CC-PVTZ
  Basis Set:
  Charge       = 0
  Multiplicity = 1
  Basis Set: CC-PVTZ
  Basis Set:

    Orbital Energies (a.u.)
    -----------------------

    Doubly Occupied:

       1A    -15.544276     2A    -11.262377     3A    -11.227895
       4A    -11.226761     5A    -11.221740     6A    -11.220652
       7A    -11.218147     8A     -1.213068     9A     -1.131190
      10A     -1.015074    11A     -0.989427    12A     -0.830854
      13A     -0.811407    14A     -0.706306    15A     -0.674989
      16A     -0.649749    17A     -0.622499    18A     -0.594934
      19A     -0.584745    20A     -0.511045    21A     -0.504258
      22A     -0.493295    23A     -0.422982    24A     -0.336060
      25A     -0.316917

  @DF-RHF Final Energy:  -285.82878573004706

   => Energetics <=

    Nuclear Repulsion Energy =            273.1717426200245313
    One-Electron Energy =                -927.3397607304757457
    Two-Electron Energy =                 368.3392323804038142
    DFT Exchange-Correlation Energy =       0.0000000000000000
    Empirical Dispersion Energy =           0.0000000000000000
    PCM Polarization Energy =               0.0000000000000000
    EFP Energy =                            0.0000000000000000
    Total Energy =                       -285.8287857300473433
    Molecular point group: c1
  Basis Set: CC-PVTZ
  Basis Set:

  -Total Gradient:
     Atom            X                  Y                   Z
    ------   -----------------  -----------------  -----------------
       1        0.000026569377     0.003048143472     0.001703451487
       2       -0.000037759593    -0.005349524860    -0.002140034164
       3        0.000074915199     0.005002626874     0.000350176584
       4       -0.000003771278     0.000035771459    -0.000007281156
       5       -0.000007549822    -0.002761716765     0.000036718400
       6       -0.000092833875     0.000020915949     0.000046357200
       7       -0.000003972326     0.000002503372     0.000003886596
       8       -0.000031837529     0.000041198057     0.000028368226
       9        0.000002583741    -0.000010049441    -0.000005268327
      10        0.000089175960    -0.000003870413     0.000030531013
      11       -0.000004995407    -0.000006683736    -0.000003713222
      12       -0.000006511978    -0.000018288176    -0.000052102738
      13       -0.000009529292     0.000003720153     0.000004106719
      14        0.000005516820    -0.000004745944     0.000004803383

  **** Optimization is complete! (in 6 steps) ****
    Final optimized geometry and variables:
    Molecular point group: c1

    Geometry (in Angstrom), charge = 0, multiplicity = 1:

    H            2.764428794202     0.399274506045    -0.752206019078
    N            2.346143145492    -0.038524878737     0.037350495814
    C            0.928269893497    -0.005409435900    -0.001655564961
    H            2.712588341390    -0.957335216938     0.154460703787
    C            0.220744052385    -0.005166178485    -1.193452622933
    C            0.226339228774     0.006582429891     1.193499865282
    H            0.753964077727    -0.030059074412    -2.125793018359
    C           -1.161355696414     0.031078112691    -1.190134390502
    H            0.774233244258     0.016523469032     2.115761236356
    C           -1.154443181515     0.018482510972     1.194796881643
    H           -1.693607114945     0.041295302016    -2.122463474511
    C           -1.856062518117     0.036926622783     0.003344624909
    H           -1.683389630556     0.026391917955     2.129001204177
    H           -2.928808050560     0.056944592437     0.006089158837

  Mulliken Charges: (a.u.)
   Center  Symbol    Alpha    Beta     Spin     Total
       1     H     0.42059  0.42059  0.00000  0.15883
       2     N     3.70475  3.70475  0.00000 -0.40949
       3     C     2.88964  2.88964  0.00000  0.22072
       4     H     0.41891  0.41891  0.00000  0.16217
       5     C     3.11392  3.11392  0.00000 -0.22785
       6     C     3.10768  3.10768  0.00000 -0.21537
       7     H     0.42883  0.42883  0.00000  0.14233
       8     C     3.07043  3.07043  0.00000 -0.14085
       9     H     0.42023  0.42023  0.00000  0.15954
      10     C     3.06456  3.06456  0.00000 -0.12913
      11     H     0.42391  0.42391  0.00000  0.15219
      12     C     3.08886  3.08886  0.00000 -0.17772
      13     H     0.42359  0.42359  0.00000  0.15283
      14     H     0.42410  0.42410  0.00000  0.15179

   Total alpha = 25.00000, Total beta = 25.00000, Total charge = -0.00000

*** Psi4 exiting successfully. Buy a developer a beer!
