  ==> Input File <==

--------------------------------------------------------------------------
set {
	reference rhf
	basis 6-31G*
}

set_num_threads( 1 )
memory 2 gb

molecule MOL {
0 1

H	 -2.589663	 -0.501888	 -0.192131
N	 -1.852125	 0.165761	 -0.074816
C	 -0.563778	 -0.502042	 0.037919
H	 -2.056267	 0.678861	 0.761731
C	 0.575259	 0.508231	 -0.048326
H	 -0.482092	 -1.204004	 -0.786564
H	 -0.460411	 -1.085169	 0.956626
C	 1.954651	 -0.143624	 0.035137
H	 0.475158	 1.060484	 -0.977307
H	 0.469181	 1.234488	 0.755973
H	 2.103292	 -0.853109	 -0.774172
H	 2.742821	 0.599562	 -0.030094
H	 2.083613	 -0.679371	 0.971560

	symmetry c1
}
set optking {
	frozen_dihedral = ("
		6 3 5 9
	")
}

ee = energy('scf')
oeprop('DIPOLE', 'QUADRUPOLE', 'MULLIKEN_CHARGES')
f=open( 'psi4out.xyz', 'w' )
f.write( "13  " )
f.write( str(ee) + "\n" )
f.write( MOL.save_string_xyz() )
f.close()
--------------------------------------------------------------------------

    Molecular point group: c1

    Geometry (in Angstrom), charge = 0, multiplicity = 1:

       Center              X                  Y                   Z               Mass
    ------------   -----------------  -----------------  -----------------  -----------------
           H         -2.589013939121    -0.500464817568    -0.191116890944     1.007825032070
           N         -1.851475939121     0.167184182432    -0.073801890944    14.003074004780
           C         -0.563128939121    -0.500618817568     0.038933109056    12.000000000000
           H         -2.055617939121     0.680284182432     0.762745109056     1.007825032070
           C          0.575908060879     0.509654182432    -0.047311890944    12.000000000000
           H         -0.481442939121    -1.202580817568    -0.785549890944     1.007825032070
           H         -0.459761939121    -1.083745817568     0.957640109056     1.007825032070
           C          1.955300060879    -0.142200817568     0.036151109056    12.000000000000
           H          0.475807060879     1.061907182432    -0.976292890944     1.007825032070
           H          0.469830060879     1.235911182432     0.756987109056     1.007825032070
           H          2.103941060879    -0.851685817568    -0.773157890944     1.007825032070
           H          2.743470060879     0.600985182432    -0.029079890944     1.007825032070
           H          2.084262060879    -0.677947817568     0.972574109056     1.007825032070

  Charge       = 0
  Multiplicity = 1
  Basis Set: 6-31G*
  Basis Set:

    Orbital Energies (a.u.)
    -----------------------

    Doubly Occupied:

       1A    -15.533029     2A    -11.240231     3A    -11.210642
       4A    -11.208402     5A     -1.176941     6A     -1.034461
       7A     -0.898344     8A     -0.798471     9A     -0.664737
      10A     -0.626378    11A     -0.602358    12A     -0.567405
      13A     -0.528165    14A     -0.490669    15A     -0.478001
      16A     -0.467733    17A     -0.381610

  @DF-RHF Final Energy:  -173.28230905681269

   => Energetics <=

    Nuclear Repulsion Energy =            131.7448624320365695
    One-Electron Energy =                -494.2392069485358093
    Two-Electron Energy =                 189.2120354596868310
    DFT Exchange-Correlation Energy =       0.0000000000000000
    Empirical Dispersion Energy =           0.0000000000000000
    PCM Polarization Energy =               0.0000000000000000
    EFP Energy =                            0.0000000000000000
    Total Energy =                       -173.2823090568124371

  Mulliken Charges: (a.u.)
   Center  Symbol    Alpha    Beta     Spin     Total
       1     H     0.33219  0.33219  0.00000  0.33563
       2     N     3.92154  3.92154  0.00000 -0.84309
       3     C     3.06129  3.06129  0.00000 -0.12257
       4     H     0.33495  0.33495  0.00000  0.33011
       5     C     3.14851  3.14851  0.00000 -0.29702
       6     H     0.42149  0.42149  0.00000  0.15701
       7     H     0.43458  0.43458  0.00000  0.13084
       8     C     3.24418  3.24418  0.00000 -0.48835
       9     H     0.41289  0.41289  0.00000  0.17422
      10     H     0.42660  0.42660  0.00000  0.14680
      11     H     0.42145  0.42145  0.00000  0.15711
      12     H     0.41774  0.41774  0.00000  0.16451
      13     H     0.42260  0.42260  0.00000  0.15480

   Total alpha = 17.00000, Total beta = 17.00000, Total charge =  0.00000
