  ==> Input File <==

--------------------------------------------------------------------------
set {
	reference rhf
	basis 6-31G*
}

set_num_threads( 1 )
memory 2 gb

molecule MOL {
0 1

O	 -0.815279	 -1.244440	 0.500078
C	 0.369183	 -1.217115	 0.596843
C	 1.245376	 -0.013843	 0.345420
O	 1.093150	 -2.272508	 0.948477
C	 0.455112	 1.231400	 -0.050772
H	 1.832444	 0.145661	 1.243807
H	 1.956844	 -0.288514	 -0.429220
C	 -0.998893	 1.219485	 0.433193
H	 0.482531	 1.345121	 -1.130325
H	 0.957290	 2.103070	 0.354729
C	 -1.883438	 0.145884	 -0.207175
H	 -1.431207	 2.195402	 0.224832
H	 -1.019646	 1.105716	 1.516076
C	 -3.347647	 0.245583	 0.225435
H	 -1.822183	 0.231698	 -1.291012
H	 -1.510341	 -0.844814	 0.042401
C	 -4.239992	 -0.825570	 -0.404234
H	 -3.732888	 1.230466	 -0.033079
H	 -3.408585	 0.170602	 1.310038
C	 -5.701275	 -0.716658	 0.029921
H	 -4.179496	 -0.752714	 -1.488058
H	 -3.859041	 -1.810759	 -0.143352
H	 -6.308102	 -1.488908	 -0.432678
H	 -6.122175	 0.245478	 -0.248167
H	 -5.799072	 -0.820114	 1.106957
C	 0.391617	 -3.473697	 1.212832
H	 -0.301853	 -3.336867	 2.030072
H	 1.142429	 -4.201872	 1.477502
H	 -0.151539	 -3.797424	 0.336637

	symmetry c1
}
set optking {
	frozen_dihedral = ("
		21 17 14 11,
		17 14 11 15,
		15 11 8 5,
		11 8 5 9,
		2 4 26 27,
		1 2 4 26,
		6 3 2 1
	")
}

ee = energy('scf')
oeprop('DIPOLE', 'QUADRUPOLE', 'MULLIKEN_CHARGES')
f=open( 'psi4out.xyz', 'w' )
f.write( "29  " )
f.write( str(ee) + "\n" )
f.write( MOL.save_string_xyz() )
f.close()
--------------------------------------------------------------------------

    Molecular point group: c1

    Geometry (in Angstrom), charge = 0, multiplicity = 1:

       Center              X                  Y                   Z               Mass
    ------------   -----------------  -----------------  -----------------  -----------------
           O          0.409087619042    -0.575730562844     0.159669492436    15.994914619560
           C          1.593549619042    -0.548405562844     0.256434492436    12.000000000000
           C          2.469742619042     0.654866437156     0.005011492436    12.000000000000
           O          2.317516619042    -1.603798562844     0.608068492436    15.994914619560
           C          1.679478619042     1.900109437156    -0.391180507564    12.000000000000
           H          3.056810619042     0.814370437156     0.903398492436     1.007825032070
           H          3.181210619042     0.380195437156    -0.769628507564     1.007825032070
           C          0.225473619042     1.888194437156     0.092784492436    12.000000000000
           H          1.706897619042     2.013830437156    -1.470733507564     1.007825032070
           H          2.181656619042     2.771779437156     0.014320492436     1.007825032070
           C         -0.659071380958     0.814593437156    -0.547583507564    12.000000000000
           H         -0.206840380958     2.864111437156    -0.115576507564     1.007825032070
           H          0.204720619042     1.774425437156     1.175667492436     1.007825032070
           C         -2.123280380958     0.914292437156    -0.114973507564    12.000000000000
           H         -0.597816380958     0.900407437156    -1.631420507564     1.007825032070
           H         -0.285974380958    -0.176104562844    -0.298007507564     1.007825032070
           C         -3.015625380958    -0.156860562844    -0.744642507564    12.000000000000
           H         -2.508521380958     1.899175437156    -0.373487507564     1.007825032070
           H         -2.184218380958     0.839311437156     0.969629492436     1.007825032070
           C         -4.476908380958    -0.047948562844    -0.310487507564    12.000000000000
           H         -2.955129380958    -0.084004562844    -1.828466507564     1.007825032070
           H         -2.634674380958    -1.142049562844    -0.483760507564     1.007825032070
           H         -5.083735380958    -0.820198562844    -0.773086507564     1.007825032070
           H         -4.897808380958     0.914187437156    -0.588575507564     1.007825032070
           H         -4.574705380958    -0.151404562844     0.766548492436     1.007825032070
           C          1.615983619042    -2.804987562844     0.872423492436    12.000000000000
           H          0.922513619042    -2.668157562844     1.689663492436     1.007825032070
           H          2.366795619042    -3.533162562844     1.137093492436     1.007825032070
           H          1.072827619042    -3.128714562844    -0.003771507564     1.007825032070

  Charge       = 0
  Multiplicity = 1
  Basis Set: 6-31G*
  Basis Set:

    Orbital Energies (a.u.)
    -----------------------

    Doubly Occupied:

       1A    -20.638865     2A    -20.574579     3A    -11.423642
       4A    -11.303515     5A    -11.255336     6A    -11.220748
       7A    -11.188731     8A    -11.184628     9A    -11.183130
      10A    -11.166014    11A    -11.082540    12A     -1.533970
      13A     -1.440702    14A     -1.097052    15A     -1.063520
      16A     -1.018841    17A     -0.984081    18A     -0.937514
      19A     -0.903988    20A     -0.844448    21A     -0.774292
      22A     -0.771681    23A     -0.729489    24A     -0.711135
      25A     -0.705519    26A     -0.649773    27A     -0.634652
      28A     -0.600479    29A     -0.595323    30A     -0.572017
      31A     -0.561936    32A     -0.554491    33A     -0.548373
      34A     -0.529289    35A     -0.507327    36A     -0.504760
      37A     -0.492022    38A     -0.484295    39A     -0.470580
      40A     -0.449093    41A     -0.437652    42A     -0.410950
      43A     -0.395599    44A     -0.239996

  @DF-RHF Final Energy:  -500.74075353943454

   => Energetics <=

    Nuclear Repulsion Energy =            671.6264893013610617
    One-Electron Energy =               -2013.9813760900492525
    Two-Electron Energy =                 841.6141332492541096
    DFT Exchange-Correlation Energy =       0.0000000000000000
    Empirical Dispersion Energy =           0.0000000000000000
    PCM Polarization Energy =               0.0000000000000000
    EFP Energy =                            0.0000000000000000
    Total Energy =                       -500.7407535394340812

  Mulliken Charges: (a.u.)
   Center  Symbol    Alpha    Beta     Spin     Total
       1     O     4.23918  4.23918  0.00000 -0.47835
       2     C     2.59926  2.59926  0.00000  0.80149
       3     C     3.21100  3.21100  0.00000 -0.42200
       4     O     4.29726  4.29726  0.00000 -0.59452
       5     C     3.16016  3.16016  0.00000 -0.32033
       6     H     0.39064  0.39064  0.00000  0.21873
       7     H     0.39004  0.39004  0.00000  0.21993
       8     C     3.16166  3.16166  0.00000 -0.32333
       9     H     0.41286  0.41286  0.00000  0.17427
      10     H     0.41525  0.41525  0.00000  0.16950
      11     C     3.24301  3.24301  0.00000 -0.48602
      12     H     0.42105  0.42105  0.00000  0.15790
      13     H     0.43672  0.43672  0.00000  0.12656
      14     C     3.13083  3.13083  0.00000 -0.26166
      15     H     0.45944  0.45944  0.00000  0.08113
      16     H     0.31503  0.31503  0.00000  0.36994
      17     C     3.14507  3.14507  0.00000 -0.29013
      18     H     0.44137  0.44137  0.00000  0.11726
      19     H     0.44404  0.44404  0.00000  0.11193
      20     C     3.23630  3.23630  0.00000 -0.47261
      21     H     0.42763  0.42763  0.00000  0.14475
      22     H     0.43378  0.43378  0.00000  0.13243
      23     H     0.42726  0.42726  0.00000  0.14549
      24     H     0.42398  0.42398  0.00000  0.15205
      25     H     0.42683  0.42683  0.00000  0.14635
      26     C     3.10041  3.10041  0.00000 -0.20083
      27     H     0.40439  0.40439  0.00000  0.19121
      28     H     0.40099  0.40099  0.00000  0.19802
      29     H     0.40457  0.40457  0.00000  0.19086

   Total alpha = 44.00000, Total beta = 44.00000, Total charge = -0.00000
