                              Psi4 1.0.54 Driver

  ==> Input File <==

--------------------------------------------------------------------------
set {
	reference rhf
	basis cc-pvtz
}

set_num_threads( 4 )
memory 2 gb

molecule MOL {
0 1

H	 1.128311	 0.207724	 1.465118
C	 1.134565	 0.093781	 0.372499
C	 0.062554	 0.862911	 -0.350953
O	 1.948932	 -0.587720	 -0.146651
C	 -1.168985	 0.006759	 -0.662288
H	 0.489820	 1.286372	 -1.250741
H	 -0.227777	 1.683386	 0.301430
C	 -0.898914	 -1.097750	 -1.680017
H	 -1.952957	 0.656534	 -1.033440
H	 -1.547301	 -0.427965	 0.258765
H	 -0.555941	 -0.682891	 -2.621196
H	 -1.798120	 -1.669523	 -1.875323
H	 -0.138612	 -1.787876	 -1.331157

	symmetry c1
}
set optking {
	frozen_dihedral = ("
		6 3 2 4
	")
}

ee,wfn = optimize('scf', return_wfn=True)
oeprop( wfn, 'DIPOLE', 'QUADRUPOLE', 'MULLIKEN_CHARGES')
f=open( 'psi4out.xyz', 'w' )
f.write( "13  " )
f.write( str(ee) + "\n" )
f.write( MOL.save_string_xyz() )
f.close()
--------------------------------------------------------------------------

    Molecular point group: c1
  Charge       = 0
  Multiplicity = 1
  Basis Set: CC-PVTZ
  Basis Set:
  @DF-RHF Final Energy:  -231.06834808021745
    Total Energy =                       -231.0683480802174472
    Molecular point group: c1
  Basis Set: CC-PVTZ
  Basis Set:
  Basis Set: CC-PVTZ
  Basis Set:
  @DF-RHF Final Energy:  -231.06682151949710
    Total Energy =                       -231.0668215194972390
  Basis Set: CC-PVTZ
  Basis Set:
  Basis Set: CC-PVTZ
  Basis Set:
  @DF-RHF Final Energy:  -231.06855716935880
    Total Energy =                       -231.0685571693585700
  Basis Set: CC-PVTZ
  Basis Set:
  Basis Set: CC-PVTZ
  Basis Set:
  @DF-RHF Final Energy:  -231.06869828527314
    Total Energy =                       -231.0686982852733138
  Basis Set: CC-PVTZ
  Basis Set:
  Basis Set: CC-PVTZ
  Basis Set:
  @DF-RHF Final Energy:  -231.06870040896749
    Total Energy =                       -231.0687004089674872
  Basis Set: CC-PVTZ
  Basis Set:
  Basis Set: CC-PVTZ
  Basis Set:
  @DF-RHF Final Energy:  -231.06870143155959
    Total Energy =                       -231.0687014315595604
  Basis Set: CC-PVTZ
  Basis Set:
  Charge       = 0
  Multiplicity = 1
  Basis Set: CC-PVTZ
  Basis Set:

    Orbital Energies (a.u.)
    -----------------------

    Doubly Occupied:

       1A    -20.553139     2A    -11.322440     3A    -11.235824
       4A    -11.234574     5A    -11.211109     6A     -1.408175
       7A     -1.082402     8A     -0.972163     9A     -0.845289
      10A     -0.783906    11A     -0.679378    12A     -0.652781
      13A     -0.609404    14A     -0.594338    15A     -0.565790
      16A     -0.529649    17A     -0.503155    18A     -0.491472
      19A     -0.481315    20A     -0.411127

  @DF-RHF Final Energy:  -231.06870147971549

   => Energetics <=

    Nuclear Repulsion Energy =            175.7139726594332103
    One-Electron Energy =                -661.2304921105792346
    Two-Electron Energy =                 254.4478179714306236
    DFT Exchange-Correlation Energy =       0.0000000000000000
    Empirical Dispersion Energy =           0.0000000000000000
    PCM Polarization Energy =               0.0000000000000000
    EFP Energy =                            0.0000000000000000
    Total Energy =                       -231.0687014797153722
    Molecular point group: c1
  Basis Set: CC-PVTZ
  Basis Set:

  -Total Gradient:
     Atom            X                  Y                   Z
    ------   -----------------  -----------------  -----------------
       1       -0.000004310139    -0.000001492367     0.000002306933
       2        0.002318037831     0.003074644825    -0.000175543896
       3       -0.001426293763    -0.003158830456    -0.001143352774
       4       -0.001496430590    -0.001829281818     0.000283452365
       5        0.000002604329     0.000005234465    -0.000007135469
       6        0.000608920147     0.001906711548     0.001038726080
       7       -0.000003849872     0.000005622499     0.000003988042
       8       -0.000003645876    -0.000008816035    -0.000005517963
       9        0.000001645451     0.000004440821    -0.000000776086
      10        0.000003566806     0.000001498742     0.000000978433
      11       -0.000002054343    -0.000000263053     0.000002198501
      12       -0.000000457321    -0.000001758552     0.000001875703
      13        0.000002267344     0.000002289382    -0.000001199871

  **** Optimization is complete! (in 7 steps) ****
    Final optimized geometry and variables:
    Molecular point group: c1

    Geometry (in Angstrom), charge = 0, multiplicity = 1:

    H            0.901304512477     0.409598690297     1.973854932918
    C            0.920805365134     0.281484340596     0.884263328358
    C           -0.137482668757     1.034635115368     0.117993503332
    O            1.713057949296    -0.446152882521     0.392255052061
    C           -1.377279008897     0.169078737731    -0.160184298310
    H            0.296924020070     1.395982165691    -0.806561461757
    H           -0.432307276252     1.898738731847     0.704093821750
    C           -1.149976813230    -0.941569959559    -1.180409050751
    H           -2.165814062763     0.824990795159    -0.511303157537
    H           -1.733384045291    -0.256844794802     0.774024456623
    H           -0.847580933824    -0.530645536487    -2.137217381992
    H           -2.063147950773    -1.504867038328    -1.333476951330
    H           -0.378754090377    -1.629071254085    -0.860271637576

  Mulliken Charges: (a.u.)
   Center  Symbol    Alpha    Beta     Spin     Total
       1     H     0.45718  0.45718  0.00000  0.08563
       2     C     2.91209  2.91209  0.00000  0.17583
       3     C     3.08940  3.08940  0.00000 -0.17880
       4     O     4.16789  4.16789  0.00000 -0.33578
       5     C     3.09492  3.09492  0.00000 -0.18984
       6     H     0.44383  0.44383  0.00000  0.11235
       7     H     0.44512  0.44512  0.00000  0.10975
       8     C     3.14216  3.14216  0.00000 -0.28432
       9     H     0.44529  0.44529  0.00000  0.10942
      10     H     0.45263  0.45263  0.00000  0.09473
      11     H     0.45512  0.45512  0.00000  0.08976
      12     H     0.44989  0.44989  0.00000  0.10022
      13     H     0.44448  0.44448  0.00000  0.11103

   Total alpha = 20.00000, Total beta = 20.00000, Total charge = -0.00000

*** Psi4 exiting successfully. Buy a developer a beer!
