  ==> Input File <==

--------------------------------------------------------------------------
set {
	reference rhf
	basis 6-31G*
}

set_num_threads( 4 )
memory 2 gb

molecule MOL {
0 1

O	 3.225979	 0.970355	 -0.599647
C	 2.701189	 0.057885	 -0.047330
C	 1.245376	 -0.013843	 0.345420
O	 3.347903	 -1.046386	 0.304773
C	 0.455112	 1.231400	 -0.050772
H	 0.838542	 -0.913825	 -0.103701
H	 1.208210	 -0.175333	 1.419774
C	 -0.998893	 1.219485	 0.433193
H	 0.482531	 1.345121	 -1.130325
H	 0.957290	 2.103070	 0.354729
C	 -1.213960	 1.774216	 1.844266
H	 -1.354515	 0.192103	 0.405924
H	 -1.619774	 1.772030	 -0.270519
C	 -2.661096	 1.639346	 2.322397
H	 -0.556137	 1.252558	 2.537779
H	 -0.928022	 2.822916	 1.882196
C	 -2.888910	 2.195163	 3.729273
H	 -2.951038	 0.590217	 2.300119
H	 -3.320476	 2.151684	 1.623522
C	 -4.335726	 2.053154	 4.200714
H	 -2.230062	 1.684984	 4.428758
H	 -2.603760	 3.244894	 3.752432
H	 -4.465428	 2.455912	 5.200499
H	 -4.640513	 1.010636	 4.222117
H	 -5.017055	 2.582075	 3.540179
C	 4.728119	 -1.109107	 -0.004993
H	 4.882018	 -1.033965	 -1.071845
H	 5.068212	 -2.067527	 0.355250
H	 5.265056	 -0.311663	 0.488280

	symmetry c1
}
set optking {
	frozen_dihedral = ("
		11 8 5 9
	")
}

ee = optimize('scf')
oeprop('DIPOLE', 'QUADRUPOLE', 'MULLIKEN_CHARGES')
f=open( 'psi4out.xyz', 'w' )
f.write( "29  " )
f.write( str(ee) + "\n" )
f.write( MOL.save_string_xyz() )
f.close()
--------------------------------------------------------------------------

    Molecular point group: c1
  Charge       = 0
  Multiplicity = 1
  Basis Set: 6-31G*
  Basis Set:
  @DF-RHF Final Energy:  -501.04231377572705
    Total Energy =                       -501.0423137757275072
    Molecular point group: c1
  Basis Set: 6-31G*
  Basis Set:
  Basis Set: 6-31G*
  Basis Set:
  @DF-RHF Final Energy:  -501.04274094095717
    Total Energy =                       -501.0427409409569464
  Basis Set: 6-31G*
  Basis Set:
  Basis Set: 6-31G*
  Basis Set:
  @DF-RHF Final Energy:  -501.04257574589928
    Total Energy =                       -501.0425757458989438
  Basis Set: 6-31G*
  Basis Set:
  Basis Set: 6-31G*
  Basis Set:
  @DF-RHF Final Energy:  -501.04281070134607
    Total Energy =                       -501.0428107013459567
  Basis Set: 6-31G*
  Basis Set:
  Basis Set: 6-31G*
  Basis Set:
  @DF-RHF Final Energy:  -501.04280372902792
    Total Energy =                       -501.0428037290282646
  Basis Set: 6-31G*
  Basis Set:
  Basis Set: 6-31G*
  Basis Set:
  @DF-RHF Final Energy:  -501.04281786181605
    Total Energy =                       -501.0428178618162747
  Basis Set: 6-31G*
  Basis Set:
  Charge       = 0
  Multiplicity = 1
  Basis Set: 6-31G*
  Basis Set:

    Orbital Energies (a.u.)
    -----------------------

    Doubly Occupied:

       1A    -20.603479     2A    -20.545313     3A    -11.372047
       4A    -11.280736     5A    -11.235341     6A    -11.218748
       7A    -11.217380     8A    -11.215681     9A    -11.215504
      10A    -11.214025    11A    -11.208811    12A     -1.469153
      13A     -1.362607    14A     -1.097400    15A     -1.066802
      16A     -1.019675    17A     -0.977169    18A     -0.927791
      19A     -0.859329    20A     -0.800200    21A     -0.790425
      22A     -0.766006    23A     -0.700978    24A     -0.682155
      25A     -0.672504    26A     -0.649304    27A     -0.627937
      28A     -0.604373    29A     -0.595858    30A     -0.581128
      31A     -0.566046    32A     -0.547567    33A     -0.533662
      34A     -0.529915    35A     -0.515151    36A     -0.507102
      37A     -0.499802    38A     -0.477538    39A     -0.470361
      40A     -0.462922    41A     -0.458857    42A     -0.456126
      43A     -0.441332    44A     -0.433709

  @DF-RHF Final Energy:  -501.04281787503317

   => Energetics <=

    Nuclear Repulsion Energy =            608.7150871439783941
    One-Electron Energy =               -1888.5599164711661615
    Two-Electron Energy =                 778.8020114521550568
    DFT Exchange-Correlation Energy =       0.0000000000000000
    Empirical Dispersion Energy =           0.0000000000000000
    PCM Polarization Energy =               0.0000000000000000
    EFP Energy =                            0.0000000000000000
    Total Energy =                       -501.0428178750325969
    Molecular point group: c1
  Basis Set: 6-31G*
  Basis Set:

  -Total Gradient:
     Atom            X                  Y                   Z
    ------   -----------------  -----------------  -----------------
       1        0.000002565283    -0.000002217069     0.000012005571
       2       -0.000005902911     0.000003528260    -0.000010844812
       3       -0.000006031019    -0.000007452323    -0.000021461470
       4        0.000003217286    -0.000006180754    -0.000008500490
       5       -0.000136432958    -0.002999603243    -0.000762122328
       6        0.000001011865     0.000006247650     0.000013625038
       7        0.000004382780     0.000007258438     0.000010394377
       8        0.000483601247    -0.002139652272     0.001246918573
       9       -0.000000404339     0.003091655647     0.000353729723
      10        0.000000081829    -0.000007439857    -0.000003389650
      11       -0.000345592398     0.002069660338    -0.000839773330
      12       -0.000001282642     0.000001991159     0.000004755990
      13       -0.000004265363    -0.000000438988    -0.000005394381
      14        0.000002093548    -0.000009469922     0.000003086429
      15       -0.000005516066    -0.000001001388     0.000001113156
      16        0.000003225116    -0.000000293248    -0.000001262475
      17        0.000002591049    -0.000005162999     0.000000822132
      18        0.000007908447    -0.000003781612     0.000003728491
      19       -0.000003949583    -0.000008188601     0.000000832543
      20       -0.000003535607     0.000014854719    -0.000005172989
      21       -0.000004734751    -0.000005401475    -0.000000203844
      22        0.000006059235    -0.000002175345     0.000004318707
      23       -0.000001565128     0.000004018566    -0.000001389742
      24        0.000004884820     0.000001289232     0.000001308885
      25       -0.000004461925    -0.000001943931    -0.000001038277
      26       -0.000000906929     0.000000855004     0.000005298160
      27       -0.000000329802    -0.000000030241    -0.000000149729
      28        0.000001651666    -0.000000373441    -0.000000539242
      29        0.000001637251    -0.000000552300    -0.000000695011

  **** Optimization is complete! (in 7 steps) ****
    Final optimized geometry and variables:
    Molecular point group: c1

    Geometry (in Angstrom), charge = 0, multiplicity = 1:

    O            2.850541216230     0.177612914317    -1.752997279979
    C            2.338180793374    -0.728974943403    -1.179684842144
    C            0.889103751537    -0.799095608403    -0.763506471077
    O            2.994184044427    -1.826138856128    -0.822868577610
    C            0.083451953987     0.433164959149    -1.164809259404
    H            0.469339565076    -1.700669297832    -1.200890347597
    H            0.869698559401    -0.955501368542     0.311297413641
    C           -1.377829876418     0.378822083028    -0.691374109248
    H            0.123703774237     0.560020009507    -2.241115805706
    H            0.563618313079     1.317876227360    -0.758307768212
    C           -1.588284652994     0.917323811497     0.726714400311
    H           -1.753631452638    -0.640502674335    -0.758806905992
    H           -1.988713421502     0.967438948854    -1.371357350668
    C           -3.041734591749     0.828241983793     1.194640137010
    H           -0.954915860470     0.376324825233     1.428212147992
    H           -1.261130622472     1.954543264232     0.760548906699
    C           -3.261339173420     1.389220639658     2.600823451229
    H           -3.365950343385    -0.210897119907     1.168550272786
    H           -3.679007279079     1.362840820722     0.491979226490
    C           -4.716421589328     1.299502130677     3.059496577346
    H           -2.627747412662     0.854038333194     3.305030825485
    H           -2.937985820638     2.427591991232     2.628474828163
    H           -4.840024723423     1.705316431385     4.058824372097
    H           -5.059412278320     0.268790032878     3.076408171259
    H           -5.372111603946     1.853988459689     2.394036248185
    C            4.369190189474    -1.889335562535    -1.155020879107
    H            4.504804159201    -1.828886176926    -2.225289180886
    H            4.718235782760    -2.841587494960    -0.787100149575
    H            4.911888908461    -1.083457952924    -0.682195500261

  Mulliken Charges: (a.u.)
   Center  Symbol    Alpha    Beta     Spin     Total
       1     O     4.28594  4.28594  0.00000 -0.57187
       2     C     2.60535  2.60535  0.00000  0.78930
       3     C     3.20836  3.20836  0.00000 -0.41672
       4     O     4.30741  4.30741  0.00000 -0.61483
       5     C     3.15597  3.15597  0.00000 -0.31194
       6     H     0.40048  0.40048  0.00000  0.19904
       7     H     0.39998  0.39998  0.00000  0.20005
       8     C     3.15795  3.15795  0.00000 -0.31591
       9     H     0.40974  0.40974  0.00000  0.18051
      10     H     0.41048  0.41048  0.00000  0.17904
      11     C     3.15332  3.15332  0.00000 -0.30665
      12     H     0.42351  0.42351  0.00000  0.15298
      13     H     0.41812  0.41812  0.00000  0.16375
      14     C     3.15079  3.15079  0.00000 -0.30158
      15     H     0.42512  0.42512  0.00000  0.14976
      16     H     0.42111  0.42111  0.00000  0.15777
      17     C     3.15145  3.15145  0.00000 -0.30291
      18     H     0.42417  0.42417  0.00000  0.15166
      19     H     0.42355  0.42355  0.00000  0.15291
      20     C     3.23932  3.23932  0.00000 -0.47864
      21     H     0.42336  0.42336  0.00000  0.15328
      22     H     0.42262  0.42262  0.00000  0.15477
      23     H     0.41923  0.41923  0.00000  0.16155
      24     H     0.42194  0.42194  0.00000  0.15611
      25     H     0.42162  0.42162  0.00000  0.15676
      26     C     3.09243  3.09243  0.00000 -0.18486
      27     H     0.40907  0.40907  0.00000  0.18186
      28     H     0.40849  0.40849  0.00000  0.18302
      29     H     0.40910  0.40910  0.00000  0.18180

   Total alpha = 44.00000, Total beta = 44.00000, Total charge = -0.00000
