                              Psi4 1.0.54 Driver

  ==> Input File <==

--------------------------------------------------------------------------
set {
	reference rhf
	basis cc-pvtz
}

set_num_threads( 4 )
memory 2 gb

molecule MOL {
0 1

H	 2.614283	 2.028610	 0.296620
O	 3.358864	 1.662087	 -0.142800
C	 3.565468	 0.338079	 0.273842
C	 3.729031	 -0.641802	 -0.878445
H	 4.469638	 0.352867	 0.867339
H	 2.756849	 0.015176	 0.926774
C	 2.479064	 -0.812510	 -1.738846
H	 4.557262	 -0.311209	 -1.498042
H	 4.012179	 -1.604849	 -0.460397
C	 2.670572	 -1.827657	 -2.864740
H	 2.200622	 0.147228	 -2.161191
H	 1.649341	 -1.130169	 -1.109609
C	 1.426162	 -2.093462	 -3.713885
H	 3.481014	 -1.496726	 -3.509641
H	 2.996297	 -2.768319	 -2.429394
C	 0.960318	 -0.913740	 -4.565347
H	 1.635172	 -2.932712	 -4.371533
H	 0.612390	 -2.413485	 -3.066957
C	 -0.221989	 -1.258245	 -5.467497
H	 1.788638	 -0.566192	 -5.178996
H	 0.682807	 -0.079508	 -3.928128
C	 -0.692039	 -0.081572	 -6.316252
H	 0.051936	 -2.084309	 -6.118006
H	 -1.047553	 -1.613686	 -4.856622
H	 0.102372	 0.276814	 -6.962555
H	 -1.529287	 -0.360612	 -6.945744
H	 -1.009203	 0.748599	 -5.693697

	symmetry c1
}
set optking {
	frozen_dihedral = ("
		4 3 2 1
	")
}

ee,wfn = optimize('scf', return_wfn=True)
oeprop( wfn, 'DIPOLE', 'QUADRUPOLE', 'MULLIKEN_CHARGES')
f=open( 'psi4out.xyz', 'w' )
f.write( "27  " )
f.write( str(ee) + "\n" )
f.write( MOL.save_string_xyz() )
f.close()
--------------------------------------------------------------------------

    Molecular point group: c1
  Charge       = 0
  Multiplicity = 1
  Basis Set: CC-PVTZ
  Basis Set:
  @DF-RHF Final Energy:  -388.42630573222004
    Total Energy =                       -388.4263057322202712
    Molecular point group: c1
  Basis Set: CC-PVTZ
  Basis Set:
  Basis Set: CC-PVTZ
  Basis Set:
  @DF-RHF Final Energy:  -388.33884801694904
    Total Energy =                       -388.3388480169486456
  Basis Set: CC-PVTZ
  Basis Set:
  Basis Set: CC-PVTZ
  Basis Set:
  @DF-RHF Final Energy:  -388.41522746263144
    Total Energy =                       -388.4152274626312646
  Basis Set: CC-PVTZ
  Basis Set:
  Basis Set: CC-PVTZ
  Basis Set:
  @DF-RHF Final Energy:  -388.42693371548779
    Total Energy =                       -388.4269337154883033
  Basis Set: CC-PVTZ
  Basis Set:
  @DF-RHF Final Energy:  -388.42709965458852
    Total Energy =                       -388.4270996545888011
  Basis Set: CC-PVTZ
  Basis Set:
  @DF-RHF Final Energy:  -388.42714076049430
    Total Energy =                       -388.4271407604941260
  Basis Set: CC-PVTZ
  Basis Set:
  Basis Set: CC-PVTZ
  Basis Set:
  @DF-RHF Final Energy:  -388.42714201817103
    Total Energy =                       -388.4271420181720487
  Basis Set: CC-PVTZ
  Basis Set:
  Basis Set: CC-PVTZ
  Basis Set:
  @DF-RHF Final Energy:  -388.42715064872129
    Total Energy =                       -388.4271506487211809
  Basis Set: CC-PVTZ
  Basis Set:
  Charge       = 0
  Multiplicity = 1
  Basis Set: CC-PVTZ
  Basis Set:

    Orbital Energies (a.u.)
    -----------------------

    Doubly Occupied:

       1A    -20.545394     2A    -11.266127     3A    -11.210378
       4A    -11.209968     5A    -11.209097     6A    -11.208476
       7A    -11.207141     8A    -11.207112     9A    -11.204265
      10A     -1.362711    11A     -1.091162    12A     -1.058873
      13A     -1.010052    14A     -0.945680    15A     -0.882743
      16A     -0.813848    17A     -0.796384    18A     -0.773088
      19A     -0.708377    20A     -0.647380    21A     -0.628738
      22A     -0.625517    23A     -0.589753    24A     -0.580442
      25A     -0.578312    26A     -0.548103    27A     -0.538593
      28A     -0.522573    29A     -0.507603    30A     -0.483483
      31A     -0.479626    32A     -0.475845    33A     -0.463225
      34A     -0.456384    35A     -0.453148    36A     -0.440776
      37A     -0.421307

  @DF-RHF Final Energy:  -388.42715128485708

   => Energetics <=

    Nuclear Repulsion Energy =            460.4097866345142052
    One-Electron Energy =               -1439.3705129799036513
    Two-Electron Energy =                 590.5335750605328258
    DFT Exchange-Correlation Energy =       0.0000000000000000
    Empirical Dispersion Energy =           0.0000000000000000
    PCM Polarization Energy =               0.0000000000000000
    EFP Energy =                            0.0000000000000000
    Total Energy =                       -388.4271512848566772
    Molecular point group: c1
  Basis Set: CC-PVTZ
  Basis Set:

  -Total Gradient:
     Atom            X                  Y                   Z
    ------   -----------------  -----------------  -----------------
       1       -0.000499460264    -0.000085318139    -0.000644594631
       2        0.000457342185     0.000085324065     0.000775194482
       3        0.000526816795     0.000057919010    -0.000110139263
       4       -0.000503372560    -0.000016234028    -0.000020485706
       5       -0.000005400801     0.000001844356     0.000000854330
       6        0.000014558805    -0.000028355729     0.000014407579
       7        0.000001179730    -0.000013731127     0.000009683731
       8        0.000005262208    -0.000004227337    -0.000023417232
       9       -0.000013121874     0.000007081972     0.000006650561
      10        0.000015632137     0.000010845090    -0.000013225168
      11        0.000012126903    -0.000019443955     0.000009298591
      12       -0.000003340323    -0.000005013019     0.000018622438
      13       -0.000007076052     0.000003093564     0.000006931857
      14        0.000008744241     0.000002878780    -0.000012885892
      15       -0.000008682844     0.000001086305     0.000000043062
      16        0.000005434905     0.000001498592    -0.000015079183
      17       -0.000000322534     0.000004047380    -0.000000059483
      18       -0.000002479408    -0.000004863941     0.000009610456
      19       -0.000007896997    -0.000000238915     0.000004313829
      20        0.000007328848     0.000011024775    -0.000005580789
      21       -0.000008239500    -0.000012198317    -0.000012111489
      22        0.000004554948     0.000003677091    -0.000001310087
      23        0.000002512834     0.000003450980     0.000002326411
      24       -0.000003073146    -0.000006713870     0.000005321176
      25       -0.000004790633     0.000002295468    -0.000005827190
      26        0.000007026865    -0.000000132394    -0.000006032435
      27       -0.000001264465     0.000000403341     0.000007490051

  **** Optimization is complete! (in 9 steps) ****
    Final optimized geometry and variables:
    Molecular point group: c1

    Geometry (in Angstrom), charge = 0, multiplicity = 1:

    H            0.964891986723     1.538478429911     3.559254514954
    O            1.670533935544     1.221661640304     3.029763055572
    C            1.761661718076    -0.180597043832     3.108926373071
    C            1.831896111913    -0.790126573005     1.720200980843
    H            2.653023471710    -0.442271831267     3.669747836140
    H            0.909982848821    -0.587668383384     3.647479799100
    C            0.558376897314    -0.606224030560     0.900328792068
    H            2.673010917857    -0.346166447122     1.195755387103
    H            2.052704276556    -1.849545119421     1.826212043689
    C            0.668848265617    -1.197879979723    -0.503732907490
    H            0.331003824218     0.450749042611     0.844254070093
    H           -0.273287082347    -1.078260896519     1.421025759730
    C           -0.610051409335    -1.117099793681    -1.339378180140
    H            1.476830883087    -0.703176720153    -1.037560780740
    H            0.957990854694    -2.242203668788    -0.419876090226
    C           -1.038999566536     0.296830097333    -1.727023974408
    H           -0.462541797638    -1.694671419129    -2.247924006904
    H           -1.420760242981    -1.603778689562    -0.801613997089
    C           -2.265705308417     0.321425189772    -2.635155463685
    H           -0.212945747529     0.795990921674    -2.228877486496
    H           -1.250097374390     0.879939200169    -0.836088142924
    C           -2.698266153585     1.731937277101    -3.021476169212
    H           -2.057552826151    -0.250120866829    -3.535558625868
    H           -3.089750549659    -0.184016085507    -2.138549800145
    H           -1.906629520612     2.253076931345    -3.549612920061
    H           -3.569187781181     1.713546289100    -3.666764782293
    H           -2.949383943663     2.318615356391    -2.143963554814

  Mulliken Charges: (a.u.)
   Center  Symbol    Alpha    Beta     Spin     Total
       1     H     0.39106  0.39106  0.00000  0.21787
       2     O     4.20653  4.20653  0.00000 -0.41306
       3     C     2.97983  2.97983  0.00000  0.04034
       4     C     3.08469  3.08469  0.00000 -0.16937
       5     H     0.45715  0.45715  0.00000  0.08571
       6     H     0.47155  0.47155  0.00000  0.05690
       7     C     3.09666  3.09666  0.00000 -0.19333
       8     H     0.45177  0.45177  0.00000  0.09646
       9     H     0.45381  0.45381  0.00000  0.09238
      10     C     3.09926  3.09926  0.00000 -0.19851
      11     H     0.44623  0.44623  0.00000  0.10755
      12     H     0.45910  0.45910  0.00000  0.08180
      13     C     3.09790  3.09790  0.00000 -0.19579
      14     H     0.45248  0.45248  0.00000  0.09505
      15     H     0.44979  0.44979  0.00000  0.10042
      16     C     3.08748  3.08748  0.00000 -0.17496
      17     H     0.44889  0.44889  0.00000  0.10221
      18     H     0.45475  0.45475  0.00000  0.09049
      19     C     3.08388  3.08388  0.00000 -0.16777
      20     H     0.45460  0.45460  0.00000  0.09080
      21     H     0.45368  0.45368  0.00000  0.09265
      22     C     3.14961  3.14961  0.00000 -0.29922
      23     H     0.45437  0.45437  0.00000  0.09126
      24     H     0.45527  0.45527  0.00000  0.08945
      25     H     0.45502  0.45502  0.00000  0.08997
      26     H     0.44893  0.44893  0.00000  0.10213
      27     H     0.45570  0.45570  0.00000  0.08860

   Total alpha = 37.00000, Total beta = 37.00000, Total charge = -0.00000

*** Psi4 exiting successfully. Buy a developer a beer!
