  ==> Input File <==

--------------------------------------------------------------------------
set {
	reference rhf
	basis cc-pvtz
}

set_num_threads( 4 )
memory 2 gb

molecule MOL {
0 1

H	 1.048073	 0.331734	 2.318100
C	 1.551330	 0.260585	 1.344794
C	 0.692262	 0.592428	 0.156232
O	 2.687282	 -0.062057	 1.288666
C	 -0.554654	 -0.292621	 0.086567
H	 1.293335	 0.497768	 -0.738524
H	 0.390959	 1.633458	 0.252935
C	 -1.846385	 0.513195	 -0.016346
H	 -0.473986	 -0.956115	 -0.769708
H	 -0.597929	 -0.929215	 0.966651
C	 -3.089953	 -0.365049	 -0.098564
H	 -1.798267	 1.154820	 -0.891143
H	 -1.925398	 1.173265	 0.842889
H	 -3.055079	 -1.012299	 -0.968245
H	 -3.988403	 0.236438	 -0.170014
H	 -3.183055	 -0.995885	 0.779079

	symmetry c1
}
set optking {
	frozen_dihedral = ("
		6 3 5 9
	")
}

ee = optimize('scf')
oeprop('DIPOLE', 'QUADRUPOLE', 'MULLIKEN_CHARGES')
f=open( 'psi4out.xyz', 'w' )
f.write( "16  " )
f.write( str(ee) + "\n" )
f.write( MOL.save_string_xyz() )
f.close()
--------------------------------------------------------------------------

    Molecular point group: c1
  Charge       = 0
  Multiplicity = 1
  Basis Set: CC-PVTZ
  Basis Set:
  @DF-RHF Final Energy:  -270.11437070476779
    Total Energy =                       -270.1143707047674525
    Molecular point group: c1
  Basis Set: CC-PVTZ
  Basis Set:
  Basis Set: CC-PVTZ
  Basis Set:
  @DF-RHF Final Energy:  -270.11446542381907
    Total Energy =                       -270.1144654238190128
  Basis Set: CC-PVTZ
  Basis Set:
  Basis Set: CC-PVTZ
  Basis Set:
  @DF-RHF Final Energy:  -270.11153350820410
    Total Energy =                       -270.1115335082041611
  Basis Set: CC-PVTZ
  Basis Set:
  Basis Set: CC-PVTZ
  Basis Set:
  @DF-RHF Final Energy:  -270.11466006260309
    Total Energy =                       -270.1146600626033774
  Basis Set: CC-PVTZ
  Basis Set:
  @DF-RHF Final Energy:  -270.11468618837802
    Total Energy =                       -270.1146861883777319
  Basis Set: CC-PVTZ
  Basis Set:
  @DF-RHF Final Energy:  -270.11469099041028
    Total Energy =                       -270.1146909904105087
  Basis Set: CC-PVTZ
  Basis Set:
  Basis Set: CC-PVTZ
  Basis Set:
  @DF-RHF Final Energy:  -270.11469450681057
    Total Energy =                       -270.1146945068107357
  Basis Set: CC-PVTZ
  Basis Set:
  Basis Set: CC-PVTZ
  Basis Set:
  @DF-RHF Final Energy:  -270.11469553969209
    Total Energy =                       -270.1146955396922635
  Basis Set: CC-PVTZ
  Basis Set:
  Charge       = 0
  Multiplicity = 1
  Basis Set: CC-PVTZ
  Basis Set:

    Orbital Energies (a.u.)
    -----------------------

    Doubly Occupied:

       1A    -20.551694     2A    -11.321590     3A    -11.234682
       4A    -11.233996     5A    -11.228425     6A    -11.217200
       7A     -1.406991     8A     -1.096454     9A     -1.019595
      10A     -0.907533    11A     -0.816145    12A     -0.794316
      13A     -0.674208    14A     -0.656536    15A     -0.623387
      16A     -0.607681    17A     -0.583084    18A     -0.556580
      19A     -0.535690    20A     -0.508731    21A     -0.485244
      22A     -0.483821    23A     -0.477084    24A     -0.412043

  @DF-RHF Final Energy:  -270.11469564363131

   => Energetics <=

    Nuclear Repulsion Energy =            229.4151480282694990
    One-Electron Energy =                -820.1942656753382153
    Two-Electron Energy =                 320.6644220034375508
    DFT Exchange-Correlation Energy =       0.0000000000000000
    Empirical Dispersion Energy =           0.0000000000000000
    PCM Polarization Energy =               0.0000000000000000
    EFP Energy =                            0.0000000000000000
    Total Energy =                       -270.1146956436311370
    Molecular point group: c1
  Basis Set: CC-PVTZ
  Basis Set:

  -Total Gradient:
     Atom            X                  Y                   Z
    ------   -----------------  -----------------  -----------------
       1       -0.000004173249     0.000002187336     0.000001437740
       2        0.000006394089     0.000000751335    -0.000004520823
       3       -0.001301937440     0.001969862259    -0.001194601881
       4       -0.000002690558    -0.000001876513     0.000000234882
       5        0.001184889650    -0.001818211976     0.001449682532
       6        0.000894911681    -0.001343202069     0.000764859066
       7       -0.000001231515    -0.000002754465     0.000000590747
       8        0.000003621808    -0.000000166923    -0.000012077729
       9       -0.000780416824     0.001194481440    -0.001010599831
      10        0.000004632646    -0.000001056862     0.000001069320
      11       -0.000002783592     0.000000650060     0.000004524826
      12       -0.000000699502     0.000004491498    -0.000000038985
      13       -0.000000069510    -0.000004457052    -0.000000775744
      14        0.000001337891     0.000001785020    -0.000000335521
      15       -0.000000511160    -0.000000972615     0.000000286696
      16       -0.000001274416    -0.000001510475     0.000000264706

  **** Optimization is complete! (in 9 steps) ****
    Final optimized geometry and variables:
    Molecular point group: c1

    Geometry (in Angstrom), charge = 0, multiplicity = 1:

    H            1.150313606957     0.144657077960     1.846083184578
    C            1.665117656496     0.145633761037     0.875764754058
    C            0.792899633573     0.475241192273    -0.305645547465
    O            2.819682135227    -0.099769976712     0.817921464723
    C           -0.475733344851    -0.402133850909    -0.360395471956
    H            1.397031612235     0.370661037906    -1.195650029706
    H            0.517974390109     1.522195546158    -0.207583297371
    C           -1.769831673867     0.400602323933    -0.479060226040
    H           -0.402103912940    -1.073270729305    -1.208067339535
    H           -0.533674787127    -1.032805052229     0.522549039332
    C           -3.010937160701    -0.479457039891    -0.568967693702
    H           -1.713079755364     1.038749430014    -1.356489846873
    H           -1.858159950873     1.065530804654     0.375884060843
    H           -2.967232044248    -1.130053960563    -1.435846680421
    H           -3.910056887815     0.119792585612    -0.650290351709
    H           -3.110333798505    -1.107638047067     0.309948381602

  Mulliken Charges: (a.u.)
   Center  Symbol    Alpha    Beta     Spin     Total
       1     H     0.46722  0.46722  0.00000  0.06556
       2     C     2.90274  2.90274  0.00000  0.19453
       3     C     3.08525  3.08525  0.00000 -0.17050
       4     O     4.16420  4.16420  0.00000 -0.32839
       5     C     3.10373  3.10373  0.00000 -0.20746
       6     H     0.43914  0.43914  0.00000  0.12171
       7     H     0.44858  0.44858  0.00000  0.10285
       8     C     3.08554  3.08554  0.00000 -0.17108
       9     H     0.44331  0.44331  0.00000  0.11339
      10     H     0.45186  0.45186  0.00000  0.09629
      11     C     3.14955  3.14955  0.00000 -0.29910
      12     H     0.45074  0.45074  0.00000  0.09851
      13     H     0.45392  0.45392  0.00000  0.09215
      14     H     0.45350  0.45350  0.00000  0.09300
      15     H     0.44669  0.44669  0.00000  0.10662
      16     H     0.45404  0.45404  0.00000  0.09192

   Total alpha = 24.00000, Total beta = 24.00000, Total charge = -0.00000
