  ==> Input File <==

--------------------------------------------------------------------------
set {
	reference rhf
	basis 6-31G*
}

set_num_threads( 4 )
memory 2 gb

molecule MOL {
0 1

H	 -1.836216	 1.387520	 -0.000064
C	 -1.301823	 0.443321	 -0.000031
O	 -0.003969	 0.658512	 0.000451
O	 -1.829879	 -0.616434	 -0.000857
C	 0.850537	 -0.484732	 0.000380
C	 1.147737	 -0.829281	 -1.442976
H	 0.348993	 -1.294814	 0.511789
H	 1.750704	 -0.247719	 0.550669
H	 0.234103	 -1.055907	 -1.980515
H	 1.797198	 -1.697276	 -1.487906
H	 1.642606	 -0.003828	 -1.941595

	symmetry c1
}
set optking {
	frozen_dihedral = ("
		7 5 3 2
	")
}

ee = optimize('scf')
oeprop('DIPOLE', 'QUADRUPOLE', 'MULLIKEN_CHARGES')
f=open( 'psi4out.xyz', 'w' )
f.write( "11  " )
f.write( str(ee) + "\n" )
f.write( MOL.save_string_xyz() )
f.close()
--------------------------------------------------------------------------

    Molecular point group: c1
  Charge       = 0
  Multiplicity = 1
  Basis Set: 6-31G*
  Basis Set:
  @DF-RHF Final Energy:  -266.82671448839244
    Total Energy =                       -266.8267144883922697
    Molecular point group: c1
  Basis Set: 6-31G*
  Basis Set:
  Basis Set: 6-31G*
  Basis Set:
  @DF-RHF Final Energy:  -266.82731291214498
    Total Energy =                       -266.8273129121450324
  Basis Set: 6-31G*
  Basis Set:
  Basis Set: 6-31G*
  Basis Set:
  @DF-RHF Final Energy:  -266.82760461911329
    Total Energy =                       -266.8276046191131741
  Basis Set: 6-31G*
  Basis Set:
  Basis Set: 6-31G*
  Basis Set:
  @DF-RHF Final Energy:  -266.82789837706423
    Total Energy =                       -266.8278983770641162
  Basis Set: 6-31G*
  Basis Set:
  Basis Set: 6-31G*
  Basis Set:
  @DF-RHF Final Energy:  -266.82799474433079
    Total Energy =                       -266.8279947443307947
  Basis Set: 6-31G*
  Basis Set:
  Basis Set: 6-31G*
  Basis Set:
  @DF-RHF Final Energy:  -266.82800364610381
    Total Energy =                       -266.8280036461038662
  Basis Set: 6-31G*
  Basis Set:
  Charge       = 0
  Multiplicity = 1
  Basis Set: 6-31G*
  Basis Set:

    Orbital Energies (a.u.)
    -----------------------

    Doubly Occupied:

       1A    -20.612584     2A    -20.556947     3A    -11.379620
       4A    -11.291233     5A    -11.224123     6A     -1.475197
       7A     -1.374247     8A     -1.049151     9A     -0.910681
      10A     -0.797602    11A     -0.745976    12A     -0.683660
      13A     -0.653960    14A     -0.623200    15A     -0.574256
      16A     -0.540156    17A     -0.538925    18A     -0.501604
      19A     -0.457597    20A     -0.453795

  @DF-RHF Final Energy:  -266.82800428043902

   => Energetics <=

    Nuclear Repulsion Energy =            181.5271729090662802
    One-Electron Energy =                -723.8213266934300236
    Two-Electron Energy =                 275.4661495039248393
    DFT Exchange-Correlation Energy =       0.0000000000000000
    Empirical Dispersion Energy =           0.0000000000000000
    PCM Polarization Energy =               0.0000000000000000
    EFP Energy =                            0.0000000000000000
    Total Energy =                       -266.8280042804389041
    Molecular point group: c1
  Basis Set: 6-31G*
  Basis Set:

  -Total Gradient:
     Atom            X                  Y                   Z
    ------   -----------------  -----------------  -----------------
       1       -0.000005522941    -0.000007851132    -0.000008057536
       2        0.000041703208    -0.000029868382     0.001059401785
       3       -0.000148002132     0.000017044452    -0.001764670865
       4       -0.000016089588    -0.000007379267    -0.000018409917
       5        0.000637644666     0.000322955946     0.001779461164
       6       -0.000035341144     0.000039332942     0.000003005410
       7       -0.000477463098    -0.000323902351    -0.001039191654
       8       -0.000013576745     0.000005380839    -0.000010274415
       9        0.000008666852    -0.000004562077     0.000016815702
      10        0.000000308769    -0.000003888219     0.000000316427
      11        0.000007672158    -0.000007262750    -0.000018396102

  **** Optimization is complete! (in 7 steps) ****
    Final optimized geometry and variables:
    Molecular point group: c1

    Geometry (in Angstrom), charge = 0, multiplicity = 1:

    H           -1.583795412703     1.591537173641     0.378864070141
    C           -1.077626174711     0.633648819898     0.324107233086
    O            0.225556399191     0.818036474149     0.307866145246
    O           -1.640124521981    -0.407797249914     0.285056781092
    C            1.077298385349    -0.328809497760     0.267898872703
    C            1.423757338381    -0.687989209237    -1.164750455957
    H            0.588237863330    -1.151075057633     0.766141949206
    H            1.956783441417    -0.041523667075     0.825054458919
    H            0.535439486281    -0.981700622605    -1.711514519188
    H            2.121662567159    -1.519303135396    -1.178003070238
    H            1.883362906508     0.153371183044    -1.671091146382

  Mulliken Charges: (a.u.)
   Center  Symbol    Alpha    Beta     Spin     Total
       1     H     0.41097  0.41097  0.00000  0.17807
       2     C     2.72680  2.72680  0.00000  0.54640
       3     O     4.29176  4.29176  0.00000 -0.58353
       4     O     4.26453  4.26453  0.00000 -0.52906
       5     C     3.01298  3.01298  0.00000 -0.02597
       6     C     3.25201  3.25201  0.00000 -0.50402
       7     H     0.39901  0.39901  0.00000  0.20198
       8     H     0.40813  0.40813  0.00000  0.18375
       9     H     0.40557  0.40557  0.00000  0.18885
      10     H     0.41627  0.41627  0.00000  0.16745
      11     H     0.41196  0.41196  0.00000  0.17607

   Total alpha = 20.00000, Total beta = 20.00000, Total charge = -0.00000
