  ==> Input File <==

--------------------------------------------------------------------------
set {
	reference rhf
	basis 6-31G*
}

set_num_threads( 4 )
memory 2 gb

molecule MOL {
0 1

O	 2.763986	 -0.376209	 0.224584
C	 1.705091	 0.115954	 0.001797
C	 0.381791	 -0.609817	 0.001258
O	 1.547265	 1.403426	 -0.278639
C	 -0.823008	 0.326187	 0.001381
H	 0.371250	 -1.265087	 -0.865474
H	 0.370908	 -1.265746	 0.867490
C	 -2.149452	 -0.435131	 -0.000098
H	 -0.770201	 0.977095	 -0.865636
H	 -0.771220	 0.975655	 0.869608
C	 -3.368779	 0.488503	 -0.000883
H	 -2.193746	 -1.087250	 -0.871175
H	 -2.195311	 -1.087803	 0.870418
C	 -4.693822	 -0.272754	 -0.001129
H	 -3.325798	 1.139422	 -0.871284
H	 -3.326423	 1.139959	 0.869145
H	 -4.781274	 -0.907928	 -0.878124
H	 -5.538651	 0.408946	 -0.001420
H	 -4.781694	 -0.907783	 0.875984
C	 2.715766	 2.202596	 -0.308426
H	 3.207295	 2.193098	 0.653779
H	 2.384626	 3.200672	 -0.549396
H	 3.402514	 1.843830	 -1.061533

	symmetry c1
}
set optking {
	frozen_dihedral = ("
		1 2 3 6
	")
}

ee = optimize('scf')
oeprop('DIPOLE', 'QUADRUPOLE', 'MULLIKEN_CHARGES')
f=open( 'psi4out.xyz', 'w' )
f.write( "23  " )
f.write( str(ee) + "\n" )
f.write( MOL.save_string_xyz() )
f.close()
--------------------------------------------------------------------------

    Molecular point group: c1
  Charge       = 0
  Multiplicity = 1
  Basis Set: 6-31G*
  Basis Set:
  @DF-RHF Final Energy:  -422.97244068928512
    Total Energy =                       -422.9724406892843263
    Molecular point group: c1
  Basis Set: 6-31G*
  Basis Set:
  Basis Set: 6-31G*
  Basis Set:
  @DF-RHF Final Energy:  -422.97310527494835
    Total Energy =                       -422.9731052749478977
  Basis Set: 6-31G*
  Basis Set:
  Basis Set: 6-31G*
  Basis Set:
  @DF-RHF Final Energy:  -422.97373520038434
    Total Energy =                       -422.9737352003839987
  Basis Set: 6-31G*
  Basis Set:
  Basis Set: 6-31G*
  Basis Set:
  @DF-RHF Final Energy:  -422.97380784044714
    Total Energy =                       -422.9738078404469661
  Basis Set: 6-31G*
  Basis Set:
  Basis Set: 6-31G*
  Basis Set:
  @DF-RHF Final Energy:  -422.97380360878651
    Total Energy =                       -422.9738036087866249
  Basis Set: 6-31G*
  Basis Set:
  Basis Set: 6-31G*
  Basis Set:
  @DF-RHF Final Energy:  -422.97381064179780
    Total Energy =                       -422.9738106417969448
  Basis Set: 6-31G*
  Basis Set:
  Charge       = 0
  Multiplicity = 1
  Basis Set: 6-31G*
  Basis Set:

    Orbital Energies (a.u.)
    -----------------------

    Doubly Occupied:

       1A    -20.606394     2A    -20.540410     3A    -11.372305
       4A    -11.281581     5A    -11.235648     6A    -11.223420
       7A    -11.220199     8A    -11.219084     9A    -11.211518
      10A     -1.470124    11A     -1.360769    12A     -1.095773
      13A     -1.044597    14A     -0.983038    15A     -0.936215
      16A     -0.848153    17A     -0.797212    18A     -0.774485
      19A     -0.692726    20A     -0.684085    21A     -0.669880
      22A     -0.653326    23A     -0.610155    24A     -0.592261
      25A     -0.577012    26A     -0.562267    27A     -0.556293
      28A     -0.522961    29A     -0.522125    30A     -0.507031
      31A     -0.488436    32A     -0.480673    33A     -0.470062
      34A     -0.468966    35A     -0.451824    36A     -0.425287

  @DF-RHF Final Energy:  -422.97381133653062

   => Energetics <=

    Nuclear Repulsion Energy =            455.0745334750439497
    One-Electron Energy =               -1477.7840949325336624
    Two-Electron Energy =                 599.7357501209584143
    DFT Exchange-Correlation Energy =       0.0000000000000000
    Empirical Dispersion Energy =           0.0000000000000000
    PCM Polarization Energy =               0.0000000000000000
    EFP Energy =                            0.0000000000000000
    Total Energy =                       -422.9738113365312984
    Molecular point group: c1
  Basis Set: 6-31G*
  Basis Set:

  -Total Gradient:
     Atom            X                  Y                   Z
    ------   -----------------  -----------------  -----------------
       1        0.000066840067    -0.000127299330    -0.000578700455
       2       -0.000047277616     0.000064476776     0.000901742951
       3       -0.000227275665     0.000460919500    -0.000626090104
       4       -0.000008235916     0.000030221758    -0.000003488167
       5        0.000012236788     0.000007288190    -0.000017473629
       6        0.000214424671    -0.000428349433     0.000310680433
       7        0.000000811818     0.000001562870    -0.000006674628
       8       -0.000008469983    -0.000004880426     0.000016123009
       9        0.000001709182     0.000006065179     0.000002029305
      10        0.000003822353    -0.000000234631     0.000005829889
      11        0.000003549024     0.000001508148    -0.000006787851
      12        0.000005108714    -0.000000536598     0.000002739502
      13       -0.000007013147    -0.000000981545     0.000005529276
      14        0.000004539532    -0.000002902727    -0.000001079999
      15        0.000000678850     0.000003084998    -0.000001000949
      16       -0.000001088191    -0.000002642869    -0.000000371190
      17       -0.000000771363     0.000000463874    -0.000000473639
      18        0.000002181939     0.000001344070     0.000000383130
      19        0.000000743505    -0.000000715316    -0.000000368126
      20       -0.000014576315    -0.000009130672    -0.000004844437
      21       -0.000000642933    -0.000001116193     0.000001198348
      22       -0.000001514713     0.000001454471     0.000000290949
      23        0.000000219390     0.000000399906     0.000000806383

  **** Optimization is complete! (in 7 steps) ****
    Final optimized geometry and variables:
    Molecular point group: c1

    Geometry (in Angstrom), charge = 0, multiplicity = 1:

    O            2.902807367953    -0.740811663960     0.282343173635
    C            1.883508292875    -0.173041717032     0.049697367462
    C            0.536322282775    -0.861013218056     0.025933827406
    O            1.826112184092     1.117157530062    -0.242531418984
    C           -0.697861234991     0.039978923133     0.032349520882
    H            0.540953522529    -1.496775533468    -0.856315590339
    H            0.530375468545    -1.537210440207     0.874038474806
    C           -1.996279356085    -0.768960886355     0.041913018441
    H           -0.678285692544     0.690751493080    -0.835371590360
    H           -0.668150632003     0.690102152942     0.902382102688
    C           -3.248549439650     0.109436823263     0.044765096332
    H           -2.020729859153    -1.424913038624    -0.826936062866
    H           -2.012819000552    -1.419741970787     0.914605612480
    C           -4.544719924803    -0.700001028480     0.053054612860
    H           -3.233987819115     0.759093973493    -0.827607386795
    H           -3.226327081616     0.764300899918     0.913101420597
    H           -4.612936857435    -1.340289236215    -0.821888112669
    H           -5.413993611957    -0.049827429446     0.055296807984
    H           -4.604754890036    -1.335423156790     0.932118951923
    C            3.053464974000     1.824066810398    -0.266779806635
    H            3.534599399829     1.780952040522     0.699478098427
    H            2.801478620360     2.843171858792    -0.515400653052
    H            3.715394681093     1.408000494704    -1.012323588966

  Mulliken Charges: (a.u.)
   Center  Symbol    Alpha    Beta     Spin     Total
       1     O     4.28934  4.28934  0.00000 -0.57868
       2     C     2.60431  2.60431  0.00000  0.79139
       3     C     3.21150  3.21150  0.00000 -0.42300
       4     O     4.30418  4.30418  0.00000 -0.60835
       5     C     3.15200  3.15200  0.00000 -0.30400
       6     H     0.39910  0.39910  0.00000  0.20180
       7     H     0.39780  0.39780  0.00000  0.20440
       8     C     3.15390  3.15390  0.00000 -0.30780
       9     H     0.41187  0.41187  0.00000  0.17626
      10     H     0.41648  0.41648  0.00000  0.16705
      11     C     3.15154  3.15154  0.00000 -0.30307
      12     H     0.42309  0.42309  0.00000  0.15382
      13     H     0.42255  0.42255  0.00000  0.15490
      14     C     3.23963  3.23963  0.00000 -0.47925
      15     H     0.42197  0.42197  0.00000  0.15607
      16     H     0.42199  0.42199  0.00000  0.15602
      17     H     0.42135  0.42135  0.00000  0.15730
      18     H     0.41845  0.41845  0.00000  0.16309
      19     H     0.42123  0.42123  0.00000  0.15754
      20     C     3.09269  3.09269  0.00000 -0.18537
      21     H     0.40811  0.40811  0.00000  0.18378
      22     H     0.40861  0.40861  0.00000  0.18278
      23     H     0.40833  0.40833  0.00000  0.18335

   Total alpha = 36.00000, Total beta = 36.00000, Total charge =  0.00000
