  ==> Input File <==

--------------------------------------------------------------------------
set {
	reference rhf
	basis cc-pvtz
}

set_num_threads( 4 )
memory 2 gb

molecule MOL {
0 1

H	 1.802240	 2.454291	 0.187700
N	 0.966272	 1.916500	 0.100935
C	 1.263552	 0.494993	 0.021953
H	 0.499126	 2.229281	 -0.724462
C	 -0.016533	 -0.325589	 -0.026925
H	 1.827825	 0.224752	 0.908270
H	 1.886799	 0.238773	 -0.835892
C	 -1.280353	 0.525521	 0.047747
H	 -0.016686	 -0.912532	 -0.939714
H	 -0.014099	 -1.037598	 0.796369
C	 -2.560681	 -0.301323	 -0.007747
H	 -1.279957	 1.241025	 -0.770189
H	 -1.270445	 1.110526	 0.963468
H	 -2.617064	 -0.872870	 -0.928010
H	 -3.439525	 0.331102	 0.043462
H	 -2.609427	 -1.002736	 0.818585

	symmetry c1
}
set optking {
	frozen_dihedral = ("
		6 3 5 9
	")
}

ee = optimize('scf')
oeprop('DIPOLE', 'QUADRUPOLE', 'MULLIKEN_CHARGES')
f=open( 'psi4out.xyz', 'w' )
f.write( "16  " )
f.write( str(ee) + "\n" )
f.write( MOL.save_string_xyz() )
f.close()
--------------------------------------------------------------------------

    Molecular point group: c1
  Charge       = 0
  Multiplicity = 1
  Basis Set: CC-PVTZ
  Basis Set:
  @DF-RHF Final Energy:  -212.38731865690755
    Total Energy =                       -212.3873186569074960
    Molecular point group: c1
  Basis Set: CC-PVTZ
  Basis Set:
  Basis Set: CC-PVTZ
  Basis Set:
  @DF-RHF Final Energy:  -212.38785018294780
    Total Energy =                       -212.3878501829476591
  Basis Set: CC-PVTZ
  Basis Set:
  Basis Set: CC-PVTZ
  Basis Set:
  @DF-RHF Final Energy:  -212.39041218679768
    Total Energy =                       -212.3904121867976755
  Basis Set: CC-PVTZ
  Basis Set:
  Basis Set: CC-PVTZ
  Basis Set:
  @DF-RHF Final Energy:  -212.39065150519824
    Total Energy =                       -212.3906515051984343
  Basis Set: CC-PVTZ
  Basis Set:
  Basis Set: CC-PVTZ
  Basis Set:
  @DF-RHF Final Energy:  -212.39066533506136
    Total Energy =                       -212.3906653350612714
  Basis Set: CC-PVTZ
  Basis Set:
  Basis Set: CC-PVTZ
  Basis Set:
  @DF-RHF Final Energy:  -212.39067458158740
    Total Energy =                       -212.3906745815873478
  Basis Set: CC-PVTZ
  Basis Set:
  Basis Set: CC-PVTZ
  Basis Set:
  @DF-RHF Final Energy:  -212.39067644257551
    Total Energy =                       -212.3906764425755114
  Basis Set: CC-PVTZ
  Basis Set:
  Charge       = 0
  Multiplicity = 1
  Basis Set: CC-PVTZ
  Basis Set:

    Orbital Energies (a.u.)
    -----------------------

    Doubly Occupied:

       1A    -15.526877     2A    -11.239401     3A    -11.208346
       4A    -11.205940     5A    -11.201719     6A     -1.177365
       7A     -1.052824     8A     -0.957024     9A     -0.851740
      10A     -0.776689    11A     -0.668593    12A     -0.633829
      13A     -0.604617    14A     -0.579236    15A     -0.555347
      16A     -0.524589    17A     -0.500182    18A     -0.467150
      19A     -0.465813    20A     -0.451480    21A     -0.380183

  @DF-RHF Final Energy:  -212.39067648095082

   => Energetics <=

    Nuclear Repulsion Energy =            189.2130942809043006
    One-Electron Energy =                -661.1496563217187941
    Two-Electron Energy =                 259.5458855598637342
    DFT Exchange-Correlation Energy =       0.0000000000000000
    Empirical Dispersion Energy =           0.0000000000000000
    PCM Polarization Energy =               0.0000000000000000
    EFP Energy =                            0.0000000000000000
    Total Energy =                       -212.3906764809507308
    Molecular point group: c1
  Basis Set: CC-PVTZ
  Basis Set:

  -Total Gradient:
     Atom            X                  Y                   Z
    ------   -----------------  -----------------  -----------------
       1        0.000005208721     0.000005533210    -0.000001542320
       2        0.000003891502     0.000003284880     0.000003653678
       3       -0.000709286350     0.001077083151     0.001130926447
       4       -0.000002592701     0.000000344967    -0.000002780957
       5       -0.000651793275     0.001161562819    -0.001070842274
       6        0.000702952085    -0.001094725979    -0.000784497246
       7        0.000001193898     0.000001790642     0.000000982008
       8       -0.000002558315    -0.000001452618    -0.000004339393
       9        0.000654034813    -0.001149437760     0.000735131831
      10       -0.000001888264    -0.000002268239    -0.000001682869
      11        0.000000339416    -0.000001539007     0.000001810385
      12       -0.000001045283     0.000003587224    -0.000005379769
      13        0.000000636373    -0.000005057945    -0.000001117855
      14       -0.000000546232     0.000001491222    -0.000000612971
      15        0.000000017600     0.000000471236     0.000002065254
      16        0.000001436012    -0.000000667802    -0.000001773950

  **** Optimization is complete! (in 8 steps) ****
    Final optimized geometry and variables:
    Molecular point group: c1

    Geometry (in Angstrom), charge = 0, multiplicity = 1:

    H            2.272811154526     1.919815009523     0.240635747828
    N            1.398910975995     1.470921614327     0.066657753293
    C            1.577963009335     0.026671998001     0.007232812857
    H            1.054509717817     1.831002966966    -0.798042346670
    C            0.253732976498    -0.774369421848    -0.059534584175
    H            2.119973019072    -0.264105856475     0.898350581405
    H            2.205354248972    -0.272421565862    -0.830976431305
    C           -1.041296685402     0.030993640138     0.029007795373
    H            0.240544355119    -1.361703210002    -0.972709563409
    H            0.252515426812    -1.501278284010     0.746849415055
    C           -2.274235994258    -0.866889555410    -0.003546942612
    H           -1.098534751883     0.738259053193    -0.792487789621
    H           -1.041790371401     0.622792010799     0.935421070825
    H           -2.314758639814    -1.449849838811    -0.918146759986
    H           -3.185014400467    -0.281841095526     0.055302658733
    H           -2.274779545472    -1.562594722970     0.829227463750

  Mulliken Charges: (a.u.)
   Center  Symbol    Alpha    Beta     Spin     Total
       1     H     0.42922  0.42922  0.00000  0.14155
       2     N     3.68479  3.68479  0.00000 -0.36959
       3     C     3.03463  3.03463  0.00000 -0.06926
       4     H     0.43137  0.43137  0.00000  0.13726
       5     C     3.09804  3.09804  0.00000 -0.19608
       6     H     0.45606  0.45606  0.00000  0.08789
       7     H     0.46163  0.46163  0.00000  0.07675
       8     C     3.07969  3.07969  0.00000 -0.15938
       9     H     0.45327  0.45327  0.00000  0.09346
      10     H     0.45410  0.45410  0.00000  0.09180
      11     C     3.15158  3.15158  0.00000 -0.30316
      12     H     0.45966  0.45966  0.00000  0.08069
      13     H     0.44418  0.44418  0.00000  0.11165
      14     H     0.45729  0.45729  0.00000  0.08542
      15     H     0.44878  0.44878  0.00000  0.10245
      16     H     0.45572  0.45572  0.00000  0.08856

   Total alpha = 21.00000, Total beta = 21.00000, Total charge = -0.00000
