                              Psi4 1.0.54 Driver

  ==> Input File <==

--------------------------------------------------------------------------
set {
	reference rhf
	basis cc-pvtz
}

set_num_threads( 4 )
memory 2 gb

molecule MOL {
0 1

H	 1.651322	 -0.822465	 0.000000
O	 0.729993	 -1.034364	 0.000000
C	 0.037305	 0.100061	 0.000000
C	 -1.423941	 -0.133557	 0.241371
O	 0.546391	 1.152481	 -0.173320
H	 -1.817121	 -0.786711	 -0.526919
H	 -1.946377	 0.808633	 0.233414
H	 -1.558061	 -0.628527	 1.194515

	symmetry c1
}
set optking {
	frozen_dihedral = ("
		4 3 2 1
	")
}

ee,wfn = optimize('scf', return_wfn=True)
oeprop( wfn, 'DIPOLE', 'QUADRUPOLE', 'MULLIKEN_CHARGES')
f=open( 'psi4out.xyz', 'w' )
f.write( "8  " )
f.write( str(ee) + "\n" )
f.write( MOL.save_string_xyz() )
f.close()
--------------------------------------------------------------------------

    Molecular point group: c1
  Charge       = 0
  Multiplicity = 1
  Basis Set: CC-PVTZ
  Basis Set:
  @DF-RHF Final Energy:  -227.90409437341697
    Total Energy =                       -227.9040943734170526
    Molecular point group: c1
  Basis Set: CC-PVTZ
  Basis Set:
  Basis Set: CC-PVTZ
  Basis Set:
  @DF-RHF Final Energy:  -227.90326558847835
    Total Energy =                       -227.9032655884784617
  Basis Set: CC-PVTZ
  Basis Set:
  Basis Set: CC-PVTZ
  Basis Set:
  @DF-RHF Final Energy:  -227.90414700778916
    Total Energy =                       -227.9041470077891063
  Basis Set: CC-PVTZ
  Basis Set:
  Basis Set: CC-PVTZ
  Basis Set:
  @DF-RHF Final Energy:  -227.90416193969514
    Total Energy =                       -227.9041619396950864
  Basis Set: CC-PVTZ
  Basis Set:
  Basis Set: CC-PVTZ
  Basis Set:
  @DF-RHF Final Energy:  -227.90418246096510
    Total Energy =                       -227.9041824609650462
  Basis Set: CC-PVTZ
  Basis Set:
  Basis Set: CC-PVTZ
  Basis Set:
  @DF-RHF Final Energy:  -227.90418815302124
    Total Energy =                       -227.9041881530211526
  Basis Set: CC-PVTZ
  Basis Set:
  Charge       = 0
  Multiplicity = 1
  Basis Set: CC-PVTZ
  Basis Set:

    Orbital Energies (a.u.)
    -----------------------

    Doubly Occupied:

       1A    -20.606666     2A    -20.542430     3A    -11.378455
       4A    -11.239347     5A     -1.479967     6A     -1.371771
       7A     -1.028395     8A     -0.834664     9A     -0.707059
      10A     -0.686178    11A     -0.657785    12A     -0.584745
      13A     -0.574554    14A     -0.562390    15A     -0.486105
      16A     -0.452451

  @DF-RHF Final Energy:  -227.90418857606892

   => Energetics <=

    Nuclear Repulsion Energy =            122.7830844957424148
    One-Electron Energy =                -554.9886253345333671
    Two-Electron Energy =                 204.3013522627221050
    DFT Exchange-Correlation Energy =       0.0000000000000000
    Empirical Dispersion Energy =           0.0000000000000000
    PCM Polarization Energy =               0.0000000000000000
    EFP Energy =                            0.0000000000000000
    Total Energy =                       -227.9041885760688615
    Molecular point group: c1
  Basis Set: CC-PVTZ
  Basis Set:

  -Total Gradient:
     Atom            X                  Y                   Z
    ------   -----------------  -----------------  -----------------
       1       -0.000011038831    -0.000206168112     0.003520607278
       2        0.000158661031     0.000281002399    -0.003365243860
       3       -0.000463918163    -0.000090558796    -0.002403864165
       4        0.000324034876     0.000096944575     0.002246849508
       5       -0.000011905791    -0.000057342297     0.000000972795
       6        0.000003378037    -0.000003975747     0.000003364121
       7       -0.000002578276    -0.000012437915     0.000000147242
       8        0.000003367123    -0.000007464113    -0.000002832919

  **** Optimization is complete! (in 7 steps) ****
    Final optimized geometry and variables:
    Molecular point group: c1

    Geometry (in Angstrom), charge = 0, multiplicity = 1:

    H            1.643892817767    -0.834368444133    -0.070006461491
    O            0.720863644831    -1.038308674750    -0.083518805324
    C            0.035475533040     0.099725099706    -0.020559499447
    C           -1.428039839610    -0.136593954888     0.204687417291
    O            0.556234778317     1.157242281652    -0.101048332296
    H           -1.808214190183    -0.846533130137    -0.517529857828
    H           -1.961211089672     0.797098673549     0.134053824946
    H           -1.561921651395    -0.564768606392     1.190317331817

  Mulliken Charges: (a.u.)
   Center  Symbol    Alpha    Beta     Spin     Total
       1     H     0.38025  0.38025  0.00000  0.23950
       2     O     4.16169  4.16169  0.00000 -0.32337
       3     C     2.80263  2.80263  0.00000  0.39474
       4     C     3.13944  3.13944  0.00000 -0.27888
       5     O     4.19045  4.19045  0.00000 -0.38091
       6     H     0.44378  0.44378  0.00000  0.11244
       7     H     0.43732  0.43732  0.00000  0.12536
       8     H     0.44444  0.44444  0.00000  0.11111

   Total alpha = 16.00000, Total beta = 16.00000, Total charge = -0.00000

*** Psi4 exiting successfully. Buy a developer a beer!
