  ==> Input File <==

--------------------------------------------------------------------------
set {
	reference rhf
	basis 6-31G*
}

set_num_threads( 1 )
memory 2 gb

molecule MOL {
0 1

H	 -4.283146	 -0.087178	 -1.228178
O	 -3.452007	 0.283848	 -0.965577
C	 -3.181085	 -0.079926	 0.364119
C	 -1.765924	 0.277073	 0.805136
H	 -3.327791	 -1.152017	 0.410903
H	 -3.905698	 0.375695	 1.036898
C	 -0.677594	 -0.417312	 -0.014550
H	 -1.637766	 1.358238	 0.744969
H	 -1.659588	 0.017670	 1.857098
C	 0.738335	 -0.034840	 0.421385
H	 -0.814977	 -0.178223	 -1.064632
H	 -0.802730	 -1.495410	 0.071702
C	 1.822265	 -0.738362	 -0.399735
H	 0.853533	 1.043532	 0.342250
H	 0.871597	 -0.279636	 1.474438
C	 3.258060	 -0.455774	 0.057203
H	 1.718003	 -0.459167	 -1.447053
H	 1.651028	 -1.811884	 -0.354513
C	 3.709143	 0.994797	 -0.123830
H	 3.930637	 -1.101717	 -0.501982
H	 3.365259	 -0.739518	 1.102287
H	 3.601178	 1.310569	 -1.158127
H	 4.753787	 1.110486	 0.148516
H	 3.135362	 1.678896	 0.492569

	symmetry c1
}
set optking {
	frozen_dihedral = ("
		20 16 13 17,
		17 13 10 7,
		13 10 7 11,
		11 7 4 3,
		7 4 3 2
	")
}

ee = energy('scf')
oeprop('DIPOLE', 'QUADRUPOLE', 'MULLIKEN_CHARGES')
f=open( 'psi4out.xyz', 'w' )
f.write( "24  " )
f.write( str(ee) + "\n" )
f.write( MOL.save_string_xyz() )
f.close()
--------------------------------------------------------------------------

    Molecular point group: c1

    Geometry (in Angstrom), charge = 0, multiplicity = 1:

       Center              X                  Y                   Z               Mass
    ------------   -----------------  -----------------  -----------------  -----------------
           H         -4.275660793775    -0.075768494356    -1.226581715825     1.007825032070
           O         -3.444521793775     0.295257505644    -0.963980715825    15.994914619560
           C         -3.173599793775    -0.068516494356     0.365715284175    12.000000000000
           C         -1.758438793775     0.288482505644     0.806732284175    12.000000000000
           H         -3.320305793775    -1.140607494356     0.412499284175     1.007825032070
           H         -3.898212793775     0.387104505644     1.038494284175     1.007825032070
           C         -0.670108793775    -0.405902494356    -0.012953715825    12.000000000000
           H         -1.630280793775     1.369647505644     0.746565284175     1.007825032070
           H         -1.652102793775     0.029079505644     1.858694284175     1.007825032070
           C          0.745820206225    -0.023430494356     0.422981284175    12.000000000000
           H         -0.807491793775    -0.166813494356    -1.063035715825     1.007825032070
           H         -0.795244793775    -1.484000494356     0.073298284175     1.007825032070
           C          1.829750206225    -0.726952494356    -0.398138715825    12.000000000000
           H          0.861018206225     1.054941505644     0.343846284175     1.007825032070
           H          0.879082206225    -0.268226494356     1.476034284175     1.007825032070
           C          3.265545206225    -0.444364494356     0.058799284175    12.000000000000
           H          1.725488206225    -0.447757494356    -1.445456715825     1.007825032070
           H          1.658513206225    -1.800474494356    -0.352916715825     1.007825032070
           C          3.716628206225     1.006206505644    -0.122233715825    12.000000000000
           H          3.938122206225    -1.090307494356    -0.500385715825     1.007825032070
           H          3.372744206225    -0.728108494356     1.103883284175     1.007825032070
           H          3.608663206225     1.321978505644    -1.156530715825     1.007825032070
           H          4.761272206225     1.121895505644     0.150112284175     1.007825032070
           H          3.142847206225     1.690305505644     0.494165284175     1.007825032070

  Charge       = 0
  Multiplicity = 1
  Basis Set: 6-31G*
  Basis Set:

    Orbital Energies (a.u.)
    -----------------------

    Doubly Occupied:

       1A    -20.550811     2A    -11.267669     3A    -11.215517
       4A    -11.211993     5A    -11.209575     6A    -11.208978
       7A    -11.207600     8A    -11.205037     9A     -1.358327
      10A     -1.085835    11A     -1.046256    12A     -0.983828
      13A     -0.912121    14A     -0.844296    15A     -0.790084
      16A     -0.773715    17A     -0.701217    18A     -0.642759
      19A     -0.633749    20A     -0.610318    21A     -0.589805
      22A     -0.577297    23A     -0.558010    24A     -0.533314
      25A     -0.519016    26A     -0.503909    27A     -0.491467
      28A     -0.478000    29A     -0.466035    30A     -0.455432
      31A     -0.450004    32A     -0.440712    33A     -0.421883

  @DF-RHF Final Energy:  -349.24580957382642

   => Energetics <=

    Nuclear Repulsion Energy =            383.7684147159690724
    One-Electron Energy =               -1234.1400485803646916
    Two-Electron Energy =                 501.1258242905678912
    DFT Exchange-Correlation Energy =       0.0000000000000000
    Empirical Dispersion Energy =           0.0000000000000000
    PCM Polarization Energy =               0.0000000000000000
    EFP Energy =                            0.0000000000000000
    Total Energy =                       -349.2458095738276711

  Mulliken Charges: (a.u.)
   Center  Symbol    Alpha    Beta     Spin     Total
       1     H     0.28014  0.28014  0.00000  0.43973
       2     O     4.37184  4.37184  0.00000 -0.74368
       3     C     2.99368  2.99368  0.00000  0.01264
       4     C     3.16241  3.16241  0.00000 -0.32482
       5     H     0.43404  0.43404  0.00000  0.13192
       6     H     0.42941  0.42941  0.00000  0.14118
       7     C     3.15430  3.15430  0.00000 -0.30859
       8     H     0.41604  0.41604  0.00000  0.16792
       9     H     0.42209  0.42209  0.00000  0.15583
      10     C     3.15422  3.15422  0.00000 -0.30845
      11     H     0.40798  0.40798  0.00000  0.18403
      12     H     0.42682  0.42682  0.00000  0.14635
      13     C     3.15215  3.15215  0.00000 -0.30431
      14     H     0.42098  0.42098  0.00000  0.15805
      15     H     0.42644  0.42644  0.00000  0.14712
      16     C     3.15216  3.15216  0.00000 -0.30432
      17     H     0.42330  0.42330  0.00000  0.15340
      18     H     0.42314  0.42314  0.00000  0.15372
      19     C     3.24099  3.24099  0.00000 -0.48198
      20     H     0.42163  0.42163  0.00000  0.15673
      21     H     0.42413  0.42413  0.00000  0.15175
      22     H     0.42201  0.42201  0.00000  0.15598
      23     H     0.42004  0.42004  0.00000  0.15992
      24     H     0.42005  0.42005  0.00000  0.15990

   Total alpha = 33.00000, Total beta = 33.00000, Total charge =  0.00000
