  ==> Input File <==

--------------------------------------------------------------------------
set {
	reference rhf
	basis 6-31G*
}

set_num_threads( 1 )
memory 2 gb

molecule MOL {
0 1

H	 -4.217246	 0.600588	 -0.091699
O	 -3.517110	 -0.026191	 -0.205115
C	 -2.306886	 0.532354	 0.237577
C	 -1.177863	 -0.397191	 -0.171080
H	 -2.156308	 1.517575	 -0.201710
H	 -2.315015	 0.655684	 1.319734
C	 0.198102	 0.111031	 0.262842
H	 -1.208843	 -0.518759	 -1.250427
H	 -1.368741	 -1.376554	 0.258909
C	 1.331804	 -0.827780	 -0.158768
H	 0.361943	 1.100838	 -0.156218
H	 0.217265	 0.229072	 1.345532
C	 2.723619	 -0.410569	 0.329459
H	 1.342964	 -0.912588	 -1.244120
H	 1.116806	 -1.824343	 0.220779
C	 3.243875	 0.895854	 -0.272975
H	 3.424222	 -1.207124	 0.091250
H	 2.714788	 -0.329854	 1.414619
H	 3.251977	 0.848779	 -1.358681
H	 2.637085	 1.747371	 0.016682
H	 4.259473	 1.094070	 0.055697

	symmetry c1
}
set optking {
	frozen_dihedral = ("
		2 3 4 8,
		8 4 7 10,
		4 7 10 14,
		16 13 10 14
	")
}

ee = energy('scf')
oeprop('DIPOLE', 'QUADRUPOLE', 'MULLIKEN_CHARGES')
f=open( 'psi4out.xyz', 'w' )
f.write( "21  " )
f.write( str(ee) + "\n" )
f.write( MOL.save_string_xyz() )
f.close()
--------------------------------------------------------------------------

    Molecular point group: c1

    Geometry (in Angstrom), charge = 0, multiplicity = 1:

       Center              X                  Y                   Z               Mass
    ------------   -----------------  -----------------  -----------------  -----------------
           H         -4.217435810466     0.599971631743    -0.090401302751     1.007825032070
           O         -3.517299810466    -0.026807368257    -0.203817302751    15.994914619560
           C         -2.307075810466     0.531737631743     0.238874697249    12.000000000000
           C         -1.178052810466    -0.397807368257    -0.169782302751    12.000000000000
           H         -2.156497810466     1.516958631743    -0.200412302751     1.007825032070
           H         -2.315204810466     0.655067631743     1.321031697249     1.007825032070
           C          0.197912189534     0.110414631743     0.264139697249    12.000000000000
           H         -1.209032810466    -0.519375368257    -1.249129302751     1.007825032070
           H         -1.368930810466    -1.377170368257     0.260206697249     1.007825032070
           C          1.331614189534    -0.828396368257    -0.157470302751    12.000000000000
           H          0.361753189534     1.100221631743    -0.154920302751     1.007825032070
           H          0.217075189534     0.228455631743     1.346829697249     1.007825032070
           C          2.723429189534    -0.411185368257     0.330756697249    12.000000000000
           H          1.342774189534    -0.913204368257    -1.242822302751     1.007825032070
           H          1.116616189534    -1.824959368257     0.222076697249     1.007825032070
           C          3.243685189534     0.895237631743    -0.271677302751    12.000000000000
           H          3.424032189534    -1.207740368257     0.092547697249     1.007825032070
           H          2.714598189534    -0.330470368257     1.415916697249     1.007825032070
           H          3.251787189534     0.848162631743    -1.357383302751     1.007825032070
           H          2.636895189534     1.746754631743     0.017979697249     1.007825032070
           H          4.259283189534     1.093453631743     0.056994697249     1.007825032070

  Charge       = 0
  Multiplicity = 1
  Basis Set: 6-31G*
  Basis Set:

    Orbital Energies (a.u.)
    -----------------------

    Doubly Occupied:

       1A    -20.551806     2A    -11.267075     3A    -11.215656
       4A    -11.215145     5A    -11.213584     6A    -11.210588
       7A    -11.208246     8A     -1.358679     9A     -1.086237
      10A     -1.033196    11A     -0.954421    12A     -0.875684
      13A     -0.807238    14A     -0.779031    15A     -0.692931
      16A     -0.660921    17A     -0.622478    18A     -0.606423
      19A     -0.586940    20A     -0.569971    21A     -0.535667
      22A     -0.520011    23A     -0.511363    24A     -0.485360
      25A     -0.480716    26A     -0.460726    27A     -0.455943
      28A     -0.444224    29A     -0.432773

  @DF-RHF Final Energy:  -310.21271320017684

   => Energetics <=

    Nuclear Repulsion Energy =            312.4517870830114816
    One-Electron Energy =               -1039.6429297007325658
    Two-Electron Energy =                 416.9784294175444188
    DFT Exchange-Correlation Energy =       0.0000000000000000
    Empirical Dispersion Energy =           0.0000000000000000
    PCM Polarization Energy =               0.0000000000000000
    EFP Energy =                            0.0000000000000000
    Total Energy =                       -310.2127132001766654

  Mulliken Charges: (a.u.)
   Center  Symbol    Alpha    Beta     Spin     Total
       1     H     0.28110  0.28110  0.00000  0.43779
       2     O     4.37184  4.37184  0.00000 -0.74368
       3     C     2.98983  2.98983  0.00000  0.02034
       4     C     3.15880  3.15880  0.00000 -0.31760
       5     H     0.43344  0.43344  0.00000  0.13313
       6     H     0.43214  0.43214  0.00000  0.13573
       7     C     3.16192  3.16192  0.00000 -0.32385
       8     H     0.41523  0.41523  0.00000  0.16954
       9     H     0.41456  0.41456  0.00000  0.17088
      10     C     3.15177  3.15177  0.00000 -0.30354
      11     H     0.42178  0.42178  0.00000  0.15643
      12     H     0.42389  0.42389  0.00000  0.15221
      13     C     3.15251  3.15251  0.00000 -0.30503
      14     H     0.42308  0.42308  0.00000  0.15384
      15     H     0.42090  0.42090  0.00000  0.15820
      16     C     3.24116  3.24116  0.00000 -0.48233
      17     H     0.42062  0.42062  0.00000  0.15876
      18     H     0.42349  0.42349  0.00000  0.15302
      19     H     0.42202  0.42202  0.00000  0.15596
      20     H     0.42067  0.42067  0.00000  0.15867
      21     H     0.41923  0.41923  0.00000  0.16155

   Total alpha = 29.00000, Total beta = 29.00000, Total charge =  0.00000
