                              Psi4 1.0.54 Driver

  ==> Input File <==

--------------------------------------------------------------------------
set {
	reference rhf
	basis cc-pvtz
}

set_num_threads( 4 )
memory 2 gb

molecule MOL {
0 1

O	 0.089062	 1.238038	 -0.222788
C	 0.029490	 0.077183	 0.000078
C	 -1.232113	 -0.748027	 0.000015
O	 1.088505	 -0.662175	 0.284804
C	 -2.501422	 0.088592	 -0.000052
H	 -1.188777	 -1.400384	 -0.865133
H	 -1.188857	 -1.400312	 0.865225
H	 -2.548170	 0.725504	 -0.873205
H	 -3.371613	 -0.556398	 -0.000040
H	 -2.548215	 0.725571	 0.873047
C	 2.343298	 -0.012571	 0.318740
H	 2.572977	 0.423379	 -0.642213
H	 3.066045	 -0.773517	 0.564553
H	 2.350069	 0.764333	 1.068819

	symmetry c1
}
set optking {
	frozen_dihedral = ("
		4 2 3 6
	")
}

ee,wfn = optimize('scf', return_wfn=True)
oeprop( wfn, 'DIPOLE', 'QUADRUPOLE', 'MULLIKEN_CHARGES')
f=open( 'psi4out.xyz', 'w' )
f.write( "14  " )
f.write( str(ee) + "\n" )
f.write( MOL.save_string_xyz() )
f.close()
--------------------------------------------------------------------------

    Molecular point group: c1
  Charge       = 0
  Multiplicity = 1
  Basis Set: CC-PVTZ
  Basis Set:
  @DF-RHF Final Energy:  -305.98749037443810
    Total Energy =                       -305.9874903744381527
    Molecular point group: c1
  Basis Set: CC-PVTZ
  Basis Set:
  Basis Set: CC-PVTZ
  Basis Set:
  @DF-RHF Final Energy:  -305.98748438525729
    Total Energy =                       -305.9874843852574031
  Basis Set: CC-PVTZ
  Basis Set:
  Basis Set: CC-PVTZ
  Basis Set:
  @DF-RHF Final Energy:  -305.98741511825290
    Total Energy =                       -305.9874151182530113
  Basis Set: CC-PVTZ
  Basis Set:
  Basis Set: CC-PVTZ
  Basis Set:
  @DF-RHF Final Energy:  -305.98756012852323
    Total Energy =                       -305.9875601285232278
  Basis Set: CC-PVTZ
  Basis Set:
  Charge       = 0
  Multiplicity = 1
  Basis Set: CC-PVTZ
  Basis Set:

    Orbital Energies (a.u.)
    -----------------------

    Doubly Occupied:

       1A    -20.597488     2A    -20.534679     3A    -11.365219
       4A    -11.279156     5A    -11.237158     6A    -11.215105
       7A     -1.473214     8A     -1.366623     9A     -1.065406
      10A     -0.981289    11A     -0.878968    12A     -0.771277
      13A     -0.702784    14A     -0.686062    15A     -0.675551
      16A     -0.621774    17A     -0.604086    18A     -0.547177
      19A     -0.538567    20A     -0.521996    21A     -0.516025
      22A     -0.497333    23A     -0.461374    24A     -0.442420

  @DF-RHF Final Energy:  -305.98756151705004

   => Energetics <=

    Nuclear Repulsion Energy =            247.5756536483628452
    One-Electron Energy =                -907.9649681570645043
    Two-Electron Energy =                 354.4017529916513922
    DFT Exchange-Correlation Energy =       0.0000000000000000
    Empirical Dispersion Energy =           0.0000000000000000
    PCM Polarization Energy =               0.0000000000000000
    EFP Energy =                            0.0000000000000000
    Total Energy =                       -305.9875615170502670
    Molecular point group: c1
  Basis Set: CC-PVTZ
  Basis Set:

  -Total Gradient:
     Atom            X                  Y                   Z
    ------   -----------------  -----------------  -----------------
       1        0.000041689325     0.000040110980    -0.000000822248
       2        0.000011184777    -0.000195368491    -0.000737620024
       3        0.000338557137    -0.000500780452     0.000552425089
       4       -0.000131343600     0.000168904819     0.000537185564
       5       -0.000001432653     0.000014771616     0.000021170287
       6       -0.000292860336     0.000458835770    -0.000338131224
       7        0.000006997694     0.000019570943    -0.000006137734
       8        0.000003806021    -0.000013510612     0.000010408353
       9        0.000014324007     0.000003751098    -0.000000463483
      10       -0.000003294690    -0.000006053665    -0.000012746297
      11        0.000040613573     0.000023780242    -0.000041355206
      12        0.000001943011    -0.000000394039     0.000017537053
      13       -0.000006522721     0.000000803166     0.000004305468
      14       -0.000023661540    -0.000014421378    -0.000005755598

  **** Optimization is complete! (in 5 steps) ****
    Final optimized geometry and variables:
    Molecular point group: c1

    Geometry (in Angstrom), charge = 0, multiplicity = 1:

    O            0.086003071226     1.233442967217    -0.268091008917
    C            0.032407387609     0.071138004256    -0.050511806359
    C           -1.225578082906    -0.759549778360    -0.063009394863
    O            1.096026931909    -0.664857821542     0.224490346182
    C           -2.496952666961     0.074824677047    -0.086739531331
    H           -1.167335866728    -1.395266784097    -0.941090006576
    H           -1.197322248861    -1.422669679576     0.792419501327
    H           -2.521139190043     0.721389700220    -0.952835175987
    H           -3.365318229322    -0.571881766260    -0.115481442188
    H           -2.568954726907     0.701087157222     0.793177560118
    C            2.350563987407    -0.013649908966     0.233705214239
    H            2.564115450923     0.416467132118    -0.733573991552
    H            3.077892956961    -0.772436563117     0.472507760035
    H            2.368291914197     0.767855504360     0.978632238801

  Mulliken Charges: (a.u.)
   Center  Symbol    Alpha    Beta     Spin     Total
       1     O     4.19696  4.19696  0.00000 -0.39392
       2     C     2.80340  2.80340  0.00000  0.39319
       3     C     3.09335  3.09335  0.00000 -0.18669
       4     O     4.14667  4.14667  0.00000 -0.29333
       5     C     3.14021  3.14021  0.00000 -0.28042
       6     H     0.44322  0.44322  0.00000  0.11356
       7     H     0.43960  0.43960  0.00000  0.12080
       8     H     0.44575  0.44575  0.00000  0.10849
       9     H     0.45030  0.45030  0.00000  0.09940
      10     H     0.45063  0.45063  0.00000  0.09875
      11     C     3.03588  3.03588  0.00000 -0.07176
      12     H     0.45443  0.45443  0.00000  0.09115
      13     H     0.44542  0.44542  0.00000  0.10916
      14     H     0.45419  0.45419  0.00000  0.09163

   Total alpha = 24.00000, Total beta = 24.00000, Total charge = -0.00000

*** Psi4 exiting successfully. Buy a developer a beer!
