  ==> Input File <==

--------------------------------------------------------------------------
set {
	reference rhf
	basis cc-pvtz
}

set_num_threads( 4 )
memory 2 gb

molecule MOL {
0 1

H	 1.963186	 1.514781	 0.702896
O	 1.086524	 1.162440	 0.735403
C	 1.050374	 0.054877	 0.000135
C	 -0.318151	 -0.570512	 0.000144
O	 2.002721	 -0.354242	 -0.568745
C	 -1.454884	 0.441630	 -0.000560
H	 -0.371613	 -1.223646	 -0.864985
H	 -0.371920	 -1.222758	 0.865929
C	 -2.822577	 -0.232186	 0.000063
H	 -1.359760	 1.084704	 -0.867077
H	 -1.359641	 1.085996	 0.864983
H	 -2.954352	 -0.858985	 -0.875745
H	 -3.615886	 0.505352	 0.000019
H	 -2.953878	 -0.858359	 0.876394

	symmetry c1
}
set optking {
	frozen_dihedral = ("
		2 3 4 7
	")
}

ee = optimize('scf')
oeprop('DIPOLE', 'QUADRUPOLE', 'MULLIKEN_CHARGES')
f=open( 'psi4out.xyz', 'w' )
f.write( "14  " )
f.write( str(ee) + "\n" )
f.write( MOL.save_string_xyz() )
f.close()
--------------------------------------------------------------------------

    Molecular point group: c1
  Charge       = 0
  Multiplicity = 1
  Basis Set: CC-PVTZ
  Basis Set:
  @DF-RHF Final Energy:  -305.99844064738124
    Total Energy =                       -305.9984406473814715
    Molecular point group: c1
  Basis Set: CC-PVTZ
  Basis Set:
  Basis Set: CC-PVTZ
  Basis Set:
  @DF-RHF Final Energy:  -305.99875040485563
    Total Energy =                       -305.9987504048559117
  Basis Set: CC-PVTZ
  Basis Set:
  Basis Set: CC-PVTZ
  Basis Set:
  @DF-RHF Final Energy:  -305.99812913435960
    Total Energy =                       -305.9981291343594307
  Basis Set: CC-PVTZ
  Basis Set:
  Basis Set: CC-PVTZ
  Basis Set:
  @DF-RHF Final Energy:  -305.99902132000261
    Total Energy =                       -305.9990213200025551
  Basis Set: CC-PVTZ
  Basis Set:
  Basis Set: CC-PVTZ
  Basis Set:
  @DF-RHF Final Energy:  -305.99903138887248
    Total Energy =                       -305.9990313888722540
  Basis Set: CC-PVTZ
  Basis Set:
  Charge       = 0
  Multiplicity = 1
  Basis Set: CC-PVTZ
  Basis Set:

    Orbital Energies (a.u.)
    -----------------------

    Doubly Occupied:

       1A    -20.606018     2A    -20.538441     3A    -11.373749
       4A    -11.239590     5A    -11.230035     6A    -11.218290
       7A     -1.478570     8A     -1.368336     9A     -1.086888
      10A     -0.979915    11A     -0.848916    12A     -0.818943
      13A     -0.704289    14A     -0.685989    15A     -0.661510
      16A     -0.624077    17A     -0.594280    18A     -0.565578
      19A     -0.552188    20A     -0.524678    21A     -0.499364
      22A     -0.490105    23A     -0.475728    24A     -0.440315

  @DF-RHF Final Energy:  -305.99903216295979

   => Energetics <=

    Nuclear Repulsion Energy =            240.8962593863689960
    One-Electron Energy =                -894.5789944661007667
    Two-Electron Energy =                 347.6837029167721766
    DFT Exchange-Correlation Energy =       0.0000000000000000
    Empirical Dispersion Energy =           0.0000000000000000
    PCM Polarization Energy =               0.0000000000000000
    EFP Energy =                            0.0000000000000000
    Total Energy =                       -305.9990321629595655
    Molecular point group: c1
  Basis Set: CC-PVTZ
  Basis Set:

  -Total Gradient:
     Atom            X                  Y                   Z
    ------   -----------------  -----------------  -----------------
       1       -0.000002718591    -0.000016283133    -0.000008727446
       2       -0.000255817518     0.000514988044    -0.000637148771
       3        0.000287854406    -0.000565735897     0.000745418598
       4        0.000333719736    -0.000745513625     0.000408221724
       5       -0.000045477369     0.000029277114     0.000013502233
       6        0.000002954030     0.000021501067     0.000042933029
       7       -0.000332469947     0.000760075222    -0.000540667763
       8       -0.000007342263     0.000030624124    -0.000010723131
       9       -0.000003279796    -0.000016716902    -0.000029151573
      10        0.000009386549    -0.000010024088     0.000003412549
      11        0.000022735508     0.000004118004     0.000011501662
      12       -0.000008499723    -0.000014255219     0.000004437581
      13        0.000001051597     0.000000781543    -0.000007345105
      14       -0.000002096621     0.000007163746     0.000004336411

  **** Optimization is complete! (in 6 steps) ****
    Final optimized geometry and variables:
    Molecular point group: c1

    Geometry (in Angstrom), charge = 0, multiplicity = 1:

    H            2.090753009364     1.377058800015     0.636175596845
    O            1.195699992988     1.075117108837     0.677054720135
    C            1.100640743355    -0.040918479921    -0.038084054963
    C           -0.278232334712    -0.647879032279    -0.021926131395
    O            2.030657935588    -0.502068526855    -0.605340185611
    C           -1.436286768996     0.348747010467    -0.016590636936
    H           -0.334360325482    -1.301960559774    -0.880664174828
    H           -0.325682930129    -1.275794781392     0.863574579945
    C           -2.788347586135    -0.354955697816    -0.054187644272
    H           -1.346929510304     1.008386301941    -0.873743089708
    H           -1.372499845878     0.976156740397     0.862721093706
    H           -2.889139009553    -0.968609593012    -0.942799742149
    H           -3.598193275554     0.364483208747    -0.055128553608
    H           -2.918868261173    -0.999097211955     0.808978462070

  Mulliken Charges: (a.u.)
   Center  Symbol    Alpha    Beta     Spin     Total
       1     H     0.38129  0.38129  0.00000  0.23743
       2     O     4.15853  4.15853  0.00000 -0.31706
       3     C     2.81200  2.81200  0.00000  0.37601
       4     C     3.08987  3.08987  0.00000 -0.17975
       5     O     4.19424  4.19424  0.00000 -0.38848
       6     C     3.08790  3.08790  0.00000 -0.17580
       7     H     0.43537  0.43537  0.00000  0.12927
       8     H     0.44420  0.44420  0.00000  0.11160
       9     C     3.15072  3.15072  0.00000 -0.30144
      10     H     0.44920  0.44920  0.00000  0.10159
      11     H     0.44323  0.44323  0.00000  0.11354
      12     H     0.45344  0.45344  0.00000  0.09312
      13     H     0.44554  0.44554  0.00000  0.10892
      14     H     0.45447  0.45447  0.00000  0.09107

   Total alpha = 24.00000, Total beta = 24.00000, Total charge =  0.00000
