                              Psi4 1.0.54 Driver

  ==> Input File <==

--------------------------------------------------------------------------
set {
	reference rhf
	basis cc-pvtz
}

set_num_threads( 4 )
memory 2 gb

molecule MOL {
0 1

H	 -0.532447	 0.873941	 4.519462
C	 -1.172285	 0.081532	 4.107662
C	 -1.808256	 0.405030	 2.782980
O	 -1.324526	 -0.926457	 4.706067
C	 -0.793788	 0.880616	 1.738784
H	 -2.354410	 -0.464731	 2.441563
H	 -2.527596	 1.199323	 2.969939
C	 0.184355	 -0.205262	 1.295739
H	 -1.337413	 1.249817	 0.875939
H	 -0.242121	 1.730175	 2.133888
C	 1.181757	 0.280428	 0.247371
H	 -0.376444	 -1.047265	 0.898696
H	 0.726903	 -0.585748	 2.157307
C	 2.151032	 -0.811012	 -0.202643
H	 0.634133	 0.666780	 -0.606552
H	 1.748078	 1.116718	 0.651348
C	 3.580021	 -0.656538	 0.320835
H	 2.170545	 -0.847575	 -1.289412
H	 1.766632	 -1.772905	 0.124928
C	 4.327657	 0.562694	 -0.213579
H	 4.138806	 -1.549270	 0.057813
H	 3.561991	 -0.620783	 1.406976
H	 4.355973	 0.557257	 -1.298551
H	 3.867136	 1.491650	 0.100501
H	 5.351524	 0.571613	 0.142204

	symmetry c1
}
set optking {
	frozen_dihedral = ("
		8 11 14 18
	")
}

ee,wfn = optimize('scf', return_wfn=True)
oeprop( wfn, 'DIPOLE', 'QUADRUPOLE', 'MULLIKEN_CHARGES')
f=open( 'psi4out.xyz', 'w' )
f.write( "25  " )
f.write( str(ee) + "\n" )
f.write( MOL.save_string_xyz() )
f.close()
--------------------------------------------------------------------------

    Molecular point group: c1
  Charge       = 0
  Multiplicity = 1
  Basis Set: CC-PVTZ
  Basis Set:
  @DF-RHF Final Energy:  -387.25518106803770
    Total Energy =                       -387.2551810680380413
    Molecular point group: c1
  Basis Set: CC-PVTZ
  Basis Set:
  Basis Set: CC-PVTZ
  Basis Set:
  @DF-RHF Final Energy:  -387.25489792966920
    Total Energy =                       -387.2548979296689140
  Basis Set: CC-PVTZ
  Basis Set:
  Basis Set: CC-PVTZ
  Basis Set:
  @DF-RHF Final Energy:  -387.25559254833024
    Total Energy =                       -387.2555925483299006
  Basis Set: CC-PVTZ
  Basis Set:
  Basis Set: CC-PVTZ
  Basis Set:
  @DF-RHF Final Energy:  -387.25550290708549
    Total Energy =                       -387.2555029070856563
  Basis Set: CC-PVTZ
  Basis Set:
  @DF-RHF Final Energy:  -387.25521808178274
    Total Energy =                       -387.2552180817829139
  @DF-RHF Final Energy:  -387.25564370610772
    Total Energy =                       -387.2556437061077759
  Basis Set: CC-PVTZ
  Basis Set:
  @DF-RHF Final Energy:  -387.25568847223394
    Total Energy =                       -387.2556884722342829
  Basis Set: CC-PVTZ
  Basis Set:
  Basis Set: CC-PVTZ
  Basis Set:
  @DF-RHF Final Energy:  -387.25569068149343
    Total Energy =                       -387.2556906814936610
  Basis Set: CC-PVTZ
  Basis Set:
  Basis Set: CC-PVTZ
  Basis Set:
  @DF-RHF Final Energy:  -387.25569236552019
    Total Energy =                       -387.2556923655199626
  Basis Set: CC-PVTZ
  Basis Set:
  Charge       = 0
  Multiplicity = 1
  Basis Set: CC-PVTZ
  Basis Set:

    Orbital Energies (a.u.)
    -----------------------

    Doubly Occupied:

       1A    -20.551498     2A    -11.321110     3A    -11.233897
       4A    -11.232755     5A    -11.222089     6A    -11.217768
       7A    -11.216460     8A    -11.214673     9A    -11.208718
      10A     -1.406494    11A     -1.104743    12A     -1.070041
      13A     -1.013807    14A     -0.942773    15A     -0.875461
      16A     -0.824892    17A     -0.788748    18A     -0.780034
      19A     -0.668786    20A     -0.661163    21A     -0.634861
      22A     -0.625030    23A     -0.608901    24A     -0.592257
      25A     -0.573270    26A     -0.556983    27A     -0.534195
      28A     -0.523917    29A     -0.516053    30A     -0.495405
      31A     -0.490588    32A     -0.483939    33A     -0.459763
      34A     -0.455256    35A     -0.444652    36A     -0.411999

  @DF-RHF Final Energy:  -387.25569232107779

   => Energetics <=

    Nuclear Repulsion Energy =            442.7763007986192747
    One-Electron Energy =               -1402.1380271042362438
    Two-Electron Energy =                 572.1060339845392946
    DFT Exchange-Correlation Energy =       0.0000000000000000
    Empirical Dispersion Energy =           0.0000000000000000
    PCM Polarization Energy =               0.0000000000000000
    EFP Energy =                            0.0000000000000000
    Total Energy =                       -387.2556923210776176
    Molecular point group: c1
  Basis Set: CC-PVTZ
  Basis Set:

  -Total Gradient:
     Atom            X                  Y                   Z
    ------   -----------------  -----------------  -----------------
       1        0.000013660864     0.000025094630    -0.000003947225
       2       -0.000001970515    -0.000000056861    -0.000010865121
       3        0.000012172629     0.000009965170     0.000013092939
       4       -0.000008199849    -0.000051626700     0.000017797848
       5       -0.000023794385    -0.000006455832    -0.000031520666
       6       -0.000006232919     0.000009201946    -0.000001509593
       7        0.000007145008     0.000003773030     0.000008799942
       8       -0.000837872998    -0.000392103415    -0.000969903599
       9        0.000012676107    -0.000008208199    -0.000008488675
      10       -0.000005711629     0.000006992559    -0.000007015238
      11        0.000844649101     0.000248480410     0.001379257383
      12       -0.000002178020     0.000010318372    -0.000001968449
      13       -0.000007859334    -0.000001120104     0.000006439502
      14        0.001367727437     0.001414425212    -0.000419241680
      15       -0.000002504778    -0.000001884470     0.000001186843
      16        0.000002125332     0.000003673124    -0.000002776630
      17       -0.000020341668    -0.000007079604     0.000001643392
      18       -0.001365420840    -0.001273094368     0.000024302691
      19        0.000000863962     0.000004223217    -0.000000117440
      20        0.000003650555    -0.000000748196    -0.000010716444
      21        0.000011359723    -0.000014798041    -0.000006052782
      22       -0.000002477192    -0.000000132023     0.000019631728
      23        0.000002728895     0.000000836327    -0.000000895110
      24       -0.000009695860     0.000012766566     0.000003344158
      25        0.000015500379     0.000007557247    -0.000000477772

  **** Optimization is complete! (in 10 steps) ****
    Final optimized geometry and variables:
    Molecular point group: c1

    Geometry (in Angstrom), charge = 0, multiplicity = 1:

    H           -1.267516270135     0.882494931826     2.880306860193
    C           -1.914617243099     0.105311032044     2.451064247497
    C           -2.537035046858     0.458817213109     1.127591875128
    O           -2.083978912511    -0.910465577606     3.031478098149
    C           -1.508863405731     0.937371214447     0.098244421739
    H           -3.092392295160    -0.397840927520     0.768365151221
    H           -3.247027819810     1.259546460833     1.322577172391
    C           -0.538411987997    -0.152456839360    -0.350472351361
    H           -2.041079206874     1.322979561418    -0.764673841698
    H           -0.952218468984     1.776327981142     0.508690342266
    C            0.461703070575     0.330713833193    -1.399066585914
    H           -1.103311394949    -0.988481814708    -0.753357517951
    H            0.001542064703    -0.542089736670     0.509335846519
    C            1.467045175362    -0.757365824058    -1.826682407888
    H           -0.091258744438     0.683746270459    -2.263907753418
    H            0.990391101932     1.195947465678    -1.012313905745
    C            2.883950510176    -0.569840369740    -1.280296030174
    H            1.506407240244    -0.821411993974    -2.909553895126
    H            1.096438573544    -1.722388838806    -1.495428483472
    C            3.653970494168     0.579013810613    -1.926338368682
    H            3.441281521904    -1.489097002795    -1.430915454732
    H            2.837223573316    -0.417874359214    -0.204827626278
    H            3.763793020268     0.417412348158    -2.993674689911
    H            3.154907543983     1.531307253392    -1.788460691148
    H            4.647515481018     0.667198033645    -1.501842358660

  Mulliken Charges: (a.u.)
   Center  Symbol    Alpha    Beta     Spin     Total
       1     H     0.46420  0.46420  0.00000  0.07161
       2     C     2.90501  2.90501  0.00000  0.18998
       3     C     3.08896  3.08896  0.00000 -0.17793
       4     O     4.16615  4.16615  0.00000 -0.33229
       5     C     3.11696  3.11696  0.00000 -0.23391
       6     H     0.44288  0.44288  0.00000  0.11424
       7     H     0.44052  0.44052  0.00000  0.11897
       8     C     3.08854  3.08854  0.00000 -0.17708
       9     H     0.44307  0.44307  0.00000  0.11387
      10     H     0.44967  0.44967  0.00000  0.10065
      11     C     3.10210  3.10210  0.00000 -0.20420
      12     H     0.44876  0.44876  0.00000  0.10248
      13     H     0.44762  0.44762  0.00000  0.10476
      14     C     3.10477  3.10477  0.00000 -0.20954
      15     H     0.44596  0.44596  0.00000  0.10807
      16     H     0.45248  0.45248  0.00000  0.09505
      17     C     3.08874  3.08874  0.00000 -0.17748
      18     H     0.44658  0.44658  0.00000  0.10684
      19     H     0.44819  0.44819  0.00000  0.10362
      20     C     3.14971  3.14971  0.00000 -0.29941
      21     H     0.44780  0.44780  0.00000  0.10441
      22     H     0.45435  0.45435  0.00000  0.09129
      23     H     0.45437  0.45437  0.00000  0.09126
      24     H     0.45532  0.45532  0.00000  0.08936
      25     H     0.44730  0.44730  0.00000  0.10541

   Total alpha = 36.00000, Total beta = 36.00000, Total charge = -0.00000

*** Psi4 exiting successfully. Buy a developer a beer!
