  ==> Input File <==

--------------------------------------------------------------------------
set {
	reference rhf
	basis 6-31G*
}

set_num_threads( 1 )
memory 2 gb

molecule MOL {
0 1

O	 -1.276010	 1.052711	 -0.768302
C	 -1.204840	 0.067374	 -0.106123
C	 -2.388195	 -0.672128	 0.458071
O	 -0.067104	 -0.527208	 0.221609
H	 -2.388023	 -1.694060	 0.097175
H	 -3.300579	 -0.174919	 0.164318
H	 -2.315377	 -0.706351	 1.539059
C	 1.148561	 -0.101258	 -0.409781
C	 2.088603	 -1.292224	 -0.350554
C	 1.695552	 1.125328	 0.303615
H	 0.920655	 0.144556	 -1.436495
H	 1.654944	 -2.147811	 -0.855684
H	 3.029720	 -1.049914	 -0.833169
H	 2.291936	 -1.569453	 0.678258
H	 2.627833	 1.439014	 -0.155155
H	 0.995523	 1.948881	 0.242828
H	 1.886747	 0.902419	 1.348490

	symmetry c1
}
set optking {
	frozen_dihedral = ("
		11 8 4 2
	")
}

ee = energy('scf')
oeprop('DIPOLE', 'QUADRUPOLE', 'MULLIKEN_CHARGES')
f=open( 'psi4out.xyz', 'w' )
f.write( "17  " )
f.write( str(ee) + "\n" )
f.write( MOL.save_string_xyz() )
f.close()
--------------------------------------------------------------------------

    Molecular point group: c1

    Geometry (in Angstrom), charge = 0, multiplicity = 1:

       Center              X                  Y                   Z               Mass
    ------------   -----------------  -----------------  -----------------  -----------------
           O         -1.276390519157     1.101697037210    -0.678109571017    15.994914619560
           C         -1.205220519157     0.116360037210    -0.015930571017    12.000000000000
           C         -2.388575519157    -0.623141962790     0.548263428983    12.000000000000
           O         -0.067484519157    -0.478221962790     0.311801428983    15.994914619560
           H         -2.388403519157    -1.645073962790     0.187367428983     1.007825032070
           H         -3.300959519157    -0.125932962790     0.254510428983     1.007825032070
           H         -2.315757519157    -0.657364962790     1.629251428983     1.007825032070
           C          1.148180480843    -0.052271962790    -0.319588571017    12.000000000000
           C          2.088222480843    -1.243237962790    -0.260361571017    12.000000000000
           C          1.695171480843     1.174314037210     0.393807428983    12.000000000000
           H          0.920274480843     0.193542037210    -1.346302571017     1.007825032070
           H          1.654563480843    -2.098824962790    -0.765491571017     1.007825032070
           H          3.029339480843    -1.000927962790    -0.742976571017     1.007825032070
           H          2.291555480843    -1.520466962790     0.768450428983     1.007825032070
           H          2.627452480843     1.488000037210    -0.064962571017     1.007825032070
           H          0.995142480843     1.997867037210     0.333020428983     1.007825032070
           H          1.886366480843     0.951405037210     1.438682428983     1.007825032070

  Charge       = 0
  Multiplicity = 1
  Basis Set: 6-31G*
  Basis Set:

    Orbital Energies (a.u.)
    -----------------------

    Doubly Occupied:

       1A    -20.598521     2A    -20.543518     3A    -11.374863
       4A    -11.290918     5A    -11.232445     6A    -11.219877
       7A    -11.213300     8A     -1.465466     9A     -1.361763
      10A     -1.078331    11A     -1.004889    12A     -0.947036
      13A     -0.848337    14A     -0.766083    15A     -0.691635
      16A     -0.671846    17A     -0.656858    18A     -0.611576
      19A     -0.585789    20A     -0.578615    21A     -0.561857
      22A     -0.550260    23A     -0.540199    24A     -0.517234
      25A     -0.500422    26A     -0.483922    27A     -0.446206
      28A     -0.435881

  @DF-RHF Final Energy:  -344.91402494571622

   => Energetics <=

    Nuclear Repulsion Energy =            323.2122630598686897
    One-Electron Energy =               -1110.6974644089220874
    Two-Electron Energy =                 442.5711764033364943
    DFT Exchange-Correlation Energy =       0.0000000000000000
    Empirical Dispersion Energy =           0.0000000000000000
    PCM Polarization Energy =               0.0000000000000000
    EFP Energy =                            0.0000000000000000
    Total Energy =                       -344.9140249457168466

  Mulliken Charges: (a.u.)
   Center  Symbol    Alpha    Beta     Spin     Total
       1     O     4.28489  4.28489  0.00000 -0.56979
       2     C     2.61840  2.61840  0.00000  0.76321
       3     C     3.28111  3.28111  0.00000 -0.56222
       4     O     4.31335  4.31335  0.00000 -0.62669
       5     H     0.40130  0.40130  0.00000  0.19739
       6     H     0.39741  0.39741  0.00000  0.20518
       7     H     0.40048  0.40048  0.00000  0.19905
       8     C     2.92703  2.92703  0.00000  0.14595
       9     C     3.24134  3.24134  0.00000 -0.48268
      10     C     3.25096  3.25096  0.00000 -0.50193
      11     H     0.40448  0.40448  0.00000  0.19105
      12     H     0.41275  0.41275  0.00000  0.17449
      13     H     0.41742  0.41742  0.00000  0.16517
      14     H     0.41354  0.41354  0.00000  0.17292
      15     H     0.41948  0.41948  0.00000  0.16104
      16     H     0.39860  0.39860  0.00000  0.20280
      17     H     0.41747  0.41747  0.00000  0.16506

   Total alpha = 28.00000, Total beta = 28.00000, Total charge = -0.00000
