  ==> Input File <==

--------------------------------------------------------------------------
set {
	reference rhf
	basis 6-31G*
}

set_num_threads( 1 )
memory 2 gb

molecule MOL {
0 1

H	 2.478176	 -2.187061	 -4.009260
C	 2.606641	 -1.169998	 -3.652044
C	 1.391359	 -0.709193	 -2.848351
H	 3.507153	 -1.143700	 -3.045639
H	 2.771154	 -0.533694	 -4.517406
C	 1.536880	 0.725042	 -2.334925
H	 1.241381	 -1.380434	 -2.008980
H	 0.500828	 -0.779734	 -3.470983
C	 0.327530	 1.220659	 -1.541764
H	 2.421403	 0.800492	 -1.712375
H	 1.687189	 1.391743	 -3.181068
C	 0.169600	 0.576866	 -0.172154
H	 0.413735	 2.292827	 -1.372070
H	 -0.590909	 1.085853	 -2.108750
C	 -1.181045	 0.701995	 0.511084
O	 1.075100	 0.008501	 0.360233
C	 -2.285934	 -0.139295	 -0.145128
H	 -1.449051	 1.751551	 0.493206
H	 -1.071135	 0.403303	 1.551943
C	 -3.651768	 0.085446	 0.506485
H	 -2.346596	 0.110469	 -1.202272
H	 -2.034737	 -1.195320	 -0.088721
C	 -4.759797	 -0.746382	 -0.137905
H	 -3.908762	 1.140117	 0.445781
H	 -3.588286	 -0.154158	 1.565709
H	 -4.868882	 -0.505166	 -1.191300
H	 -4.548009	 -1.809175	 -0.062213
H	 -5.715422	 -0.564821	 0.343442

	symmetry c1
}
set optking {
	frozen_dihedral = ("
		10 6 3 2,
		12 15 17 21
	")
}

ee = energy('scf')
oeprop('DIPOLE', 'QUADRUPOLE', 'MULLIKEN_CHARGES')
f=open( 'psi4out.xyz', 'w' )
f.write( "28  " )
f.write( str(ee) + "\n" )
f.write( MOL.save_string_xyz() )
f.close()
--------------------------------------------------------------------------

    Molecular point group: c1

    Geometry (in Angstrom), charge = 0, multiplicity = 1:

       Center              X                  Y                   Z               Mass
    ------------   -----------------  -----------------  -----------------  -----------------
           H          2.957866732362    -2.224987787221    -3.054047023024     1.007825032070
           C          3.086331732362    -1.207924787221    -2.696831023024    12.000000000000
           C          1.871049732362    -0.747119787221    -1.893138023024    12.000000000000
           H          3.986843732362    -1.181626787221    -2.090426023024     1.007825032070
           H          3.250844732362    -0.571620787221    -3.562193023024     1.007825032070
           C          2.016570732362     0.687115212779    -1.379712023024    12.000000000000
           H          1.721071732362    -1.418360787221    -1.053767023024     1.007825032070
           H          0.980518732362    -0.817660787221    -2.515770023024     1.007825032070
           C          0.807220732362     1.182732212779    -0.586551023024    12.000000000000
           H          2.901093732362     0.762565212779    -0.757162023024     1.007825032070
           H          2.166879732362     1.353816212779    -2.225855023024     1.007825032070
           C          0.649290732362     0.538939212779     0.783058976976    12.000000000000
           H          0.893425732362     2.254900212779    -0.416857023024     1.007825032070
           H         -0.111218267638     1.047926212779    -1.153537023024     1.007825032070
           C         -0.701354267638     0.664068212779     1.466296976976    12.000000000000
           O          1.554790732362    -0.029425787221     1.315445976976    15.994914619560
           C         -1.806243267638    -0.177221787221     0.810084976976    12.000000000000
           H         -0.969360267638     1.713624212779     1.448418976976     1.007825032070
           H         -0.591444267638     0.365376212779     2.507155976976     1.007825032070
           C         -3.172077267638     0.047519212779     1.461697976976    12.000000000000
           H         -1.866905267638     0.072542212779    -0.247059023024     1.007825032070
           H         -1.555046267638    -1.233246787221     0.866491976976     1.007825032070
           C         -4.280106267638    -0.784308787221     0.817307976976    12.000000000000
           H         -3.429071267638     1.102190212779     1.400993976976     1.007825032070
           H         -3.108595267638    -0.192084787221     2.520921976976     1.007825032070
           H         -4.389191267638    -0.543092787221    -0.236087023024     1.007825032070
           H         -4.068318267638    -1.847101787221     0.892999976976     1.007825032070
           H         -5.235731267638    -0.602747787221     1.298654976976     1.007825032070

  Charge       = 0
  Multiplicity = 1
  Basis Set: 6-31G*
  Basis Set:

    Orbital Energies (a.u.)
    -----------------------

    Doubly Occupied:

       1A    -20.547445     2A    -11.321925     3A    -11.232136
       4A    -11.230214     5A    -11.228986     6A    -11.226069
       7A    -11.216628     8A    -11.216233     9A    -11.212610
      10A    -11.205942    11A     -1.392664    12A     -1.095064
      13A     -1.077533    14A     -1.022780    15A     -0.991000
      16A     -0.908376    17A     -0.871997    18A     -0.808681
      19A     -0.800425    20A     -0.722944    21A     -0.667714
      22A     -0.655703    23A     -0.625765    24A     -0.619598
      25A     -0.609986    26A     -0.589829    27A     -0.576027
      28A     -0.573722    29A     -0.546312    30A     -0.528485
      31A     -0.519144    32A     -0.507951    33A     -0.503400
      34A     -0.484968    35A     -0.478347    36A     -0.473374
      37A     -0.470584    38A     -0.465466    39A     -0.456049
      40A     -0.391971

  @DF-RHF Final Energy:  -426.16853830006653

   => Energetics <=

    Nuclear Repulsion Energy =            536.0542410380426190
    One-Electron Energy =               -1640.2974407415283622
    Two-Electron Energy =                 678.0746614034192135
    DFT Exchange-Correlation Energy =       0.0000000000000000
    Empirical Dispersion Energy =           0.0000000000000000
    PCM Polarization Energy =               0.0000000000000000
    EFP Energy =                            0.0000000000000000
    Total Energy =                       -426.1685383000665297

  Mulliken Charges: (a.u.)
   Center  Symbol    Alpha    Beta     Spin     Total
       1     H     0.41940  0.41940  0.00000  0.16120
       2     C     3.24011  3.24011  0.00000 -0.48021
       3     C     3.15628  3.15628  0.00000 -0.31256
       4     H     0.41821  0.41821  0.00000  0.16358
       5     H     0.42357  0.42357  0.00000  0.15287
       6     C     3.14916  3.14916  0.00000 -0.29831
       7     H     0.41067  0.41067  0.00000  0.17866
       8     H     0.42782  0.42782  0.00000  0.14436
       9     C     3.21270  3.21270  0.00000 -0.42541
      10     H     0.40641  0.40641  0.00000  0.18717
      11     H     0.42189  0.42189  0.00000  0.15621
      12     C     2.73256  2.73256  0.00000  0.53488
      13     H     0.40422  0.40422  0.00000  0.19156
      14     H     0.41120  0.41120  0.00000  0.17759
      15     C     3.20019  3.20019  0.00000 -0.40037
      16     O     4.26655  4.26655  0.00000 -0.53311
      17     C     3.16260  3.16260  0.00000 -0.32520
      18     H     0.41485  0.41485  0.00000  0.17029
      19     H     0.40015  0.40015  0.00000  0.19971
      20     C     3.15163  3.15163  0.00000 -0.30326
      21     H     0.41980  0.41980  0.00000  0.16041
      22     H     0.41171  0.41171  0.00000  0.17658
      23     C     3.24034  3.24034  0.00000 -0.48068
      24     H     0.42153  0.42153  0.00000  0.15694
      25     H     0.41891  0.41891  0.00000  0.16218
      26     H     0.42105  0.42105  0.00000  0.15790
      27     H     0.41951  0.41951  0.00000  0.16099
      28     H     0.41699  0.41699  0.00000  0.16602

   Total alpha = 40.00000, Total beta = 40.00000, Total charge = -0.00000
