  ==> Input File <==

--------------------------------------------------------------------------
set {
	reference rhf
	basis 6-31G*
}

set_num_threads( 4 )
memory 2 gb

molecule MOL {
0 1

O	 0.074228	 1.262779	 -0.000085
C	 0.028650	 0.075053	 -0.000277
C	 -1.233602	 -0.752807	 0.000328
O	 1.109162	 -0.694619	 -0.000298
C	 -2.501530	 0.091881	 0.000126
H	 -1.193807	 -1.406641	 -0.865785
H	 -1.193516	 -1.405779	 0.867015
H	 -2.545121	 0.729328	 -0.874513
H	 -3.377167	 -0.548497	 0.000561
H	 -2.544818	 0.730135	 0.874258
C	 2.320698	 -0.101402	 0.430819
H	 2.581707	 0.733230	 -0.203749
H	 3.069672	 -0.874533	 0.358915
H	 2.233442	 0.241936	 1.451592

	symmetry c1
}
set optking {
	frozen_dihedral = ("
		11 4 2 3
	")
}

ee = optimize('scf')
oeprop('DIPOLE', 'QUADRUPOLE', 'MULLIKEN_CHARGES')
f=open( 'psi4out.xyz', 'w' )
f.write( "14  " )
f.write( str(ee) + "\n" )
f.write( MOL.save_string_xyz() )
f.close()
--------------------------------------------------------------------------

    Molecular point group: c1
  Charge       = 0
  Multiplicity = 1
  Basis Set: 6-31G*
  Basis Set:
  @DF-RHF Final Energy:  -305.86969929634461
    Total Energy =                       -305.8696992963447201
    Molecular point group: c1
  Basis Set: 6-31G*
  Basis Set:
  Basis Set: 6-31G*
  Basis Set:
  @DF-RHF Final Energy:  -305.86729781747385
    Total Energy =                       -305.8672978174739114
  Basis Set: 6-31G*
  Basis Set:
  Basis Set: 6-31G*
  Basis Set:
  @DF-RHF Final Energy:  -305.86999296526255
    Total Energy =                       -305.8699929652626679
  Basis Set: 6-31G*
  Basis Set:
  Basis Set: 6-31G*
  Basis Set:
  @DF-RHF Final Energy:  -305.87006891199422
    Total Energy =                       -305.8700689119941671
  Basis Set: 6-31G*
  Basis Set:
  Basis Set: 6-31G*
  Basis Set:
  @DF-RHF Final Energy:  -305.87010520216080
    Total Energy =                       -305.8701052021609712
  Basis Set: 6-31G*
  Basis Set:
  Basis Set: 6-31G*
  Basis Set:
  @DF-RHF Final Energy:  -305.87010739513363
    Total Energy =                       -305.8701073951336298
  Basis Set: 6-31G*
  Basis Set:
  Charge       = 0
  Multiplicity = 1
  Basis Set: 6-31G*
  Basis Set:

    Orbital Energies (a.u.)
    -----------------------

    Doubly Occupied:

       1A    -20.602877     2A    -20.547063     3A    -11.373265
       4A    -11.282356     5A    -11.239172     6A    -11.216980
       7A     -1.469148     8A     -1.363941     9A     -1.064320
      10A     -0.980005    11A     -0.879645    12A     -0.768666
      13A     -0.700455    14A     -0.681778    15A     -0.671977
      16A     -0.621169    17A     -0.603183    18A     -0.547746
      19A     -0.538199    20A     -0.520892    21A     -0.512737
      22A     -0.496654    23A     -0.457066    24A     -0.438834

  @DF-RHF Final Energy:  -305.87010750044840

   => Energetics <=

    Nuclear Repulsion Energy =            247.0308835505516356
    One-Electron Energy =                -906.6457240931054002
    Two-Electron Energy =                 353.7447330421052243
    DFT Exchange-Correlation Energy =       0.0000000000000000
    Empirical Dispersion Energy =           0.0000000000000000
    PCM Polarization Energy =               0.0000000000000000
    EFP Energy =                            0.0000000000000000
    Total Energy =                       -305.8701075004485688
    Molecular point group: c1
  Basis Set: 6-31G*
  Basis Set:

  -Total Gradient:
     Atom            X                  Y                   Z
    ------   -----------------  -----------------  -----------------
       1        0.000029069605    -0.000035149061    -0.000030617805
       2       -0.000711865766    -0.000200809407    -0.004005481702
       3        0.000173498303    -0.000468941473     0.004402526533
       4        0.001278714488     0.002598561017    -0.004896648271
       5       -0.000001576608    -0.000016203361     0.000001396672
       6       -0.000002019133     0.000000585224     0.000000461937
       7       -0.000001119352     0.000002938159     0.000001203540
       8       -0.000003323349     0.000001640051    -0.000003365338
       9       -0.000002584315     0.000005146177    -0.000001098735
      10        0.000001651647    -0.000000382276     0.000002728554
      11       -0.000776126236    -0.001901907616     0.004526882895
      12       -0.000000567742    -0.000000580470    -0.000002545948
      13        0.000009441839     0.000010209430    -0.000000164163
      14        0.000006806618     0.000004893606     0.000004721832

  **** Optimization is complete! (in 7 steps) ****
    Final optimized geometry and variables:
    Molecular point group: c1

    Geometry (in Angstrom), charge = 0, multiplicity = 1:

    O            0.071224995612     1.266632986450     0.141910051024
    C            0.031931569317     0.093720800563    -0.043389244484
    C           -1.224437297759    -0.741745949723    -0.077945117175
    O            1.119150934128    -0.659602003023    -0.170227729692
    C           -2.497664162397     0.091427031543    -0.156002493283
    H           -1.150175207712    -1.437778488190    -0.906936912572
    H           -1.209024030226    -1.349043147275     0.823324593174
    H           -2.520981623183     0.684067034894    -1.063208066277
    H           -3.368927833216    -0.554730390220    -0.150299316811
    H           -2.569032452136     0.771555570417     0.683318418568
    C            2.343374275216    -0.100481290002     0.270874591153
    H            2.621158022044     0.747278621926    -0.338096937607
    H            3.077973278176    -0.884829713906     0.175840341371
    H            2.262944673928     0.213190231923     1.302425058093

  Mulliken Charges: (a.u.)
   Center  Symbol    Alpha    Beta     Spin     Total
       1     O     4.28284  4.28284  0.00000 -0.56567
       2     C     2.60802  2.60802  0.00000  0.78396
       3     C     3.20525  3.20525  0.00000 -0.41051
       4     O     4.30705  4.30705  0.00000 -0.61409
       5     C     3.24001  3.24001  0.00000 -0.48002
       6     H     0.40034  0.40034  0.00000  0.19931
       7     H     0.40053  0.40053  0.00000  0.19894
       8     H     0.41201  0.41201  0.00000  0.17598
       9     H     0.41763  0.41763  0.00000  0.16474
      10     H     0.40725  0.40725  0.00000  0.18551
      11     C     3.09230  3.09230  0.00000 -0.18461
      12     H     0.40657  0.40657  0.00000  0.18686
      13     H     0.40813  0.40813  0.00000  0.18374
      14     H     0.41207  0.41207  0.00000  0.17587

   Total alpha = 24.00000, Total beta = 24.00000, Total charge =  0.00000
