  ==> Input File <==

--------------------------------------------------------------------------
set {
	reference rhf
	basis 6-31G*
}

set_num_threads( 4 )
memory 2 gb

molecule MOL {
0 1

O	 1.427822	 2.026891	 -0.330794
C	 0.470462	 2.268979	 -0.992589
C	 -0.827454	 1.498945	 -0.974459
O	 0.418583	 3.278217	 -1.852755
C	 -0.823008	 0.326187	 0.001381
H	 -1.620012	 2.204043	 -0.739083
H	 -1.021171	 1.165224	 -1.990246
C	 -2.149452	 -0.435131	 -0.000098
H	 -0.609255	 0.693053	 1.000334
H	 -0.010593	 -0.347405	 -0.252713
C	 -3.368779	 0.488503	 -0.000883
H	 -2.193746	 -1.087250	 -0.871175
H	 -2.195311	 -1.087803	 0.870418
C	 -4.693822	 -0.272754	 -0.001129
H	 -3.325798	 1.139422	 -0.871284
H	 -3.326423	 1.139959	 0.869145
H	 -4.781274	 -0.907928	 -0.878124
H	 -5.538651	 0.408946	 -0.001420
H	 -4.781694	 -0.907783	 0.875984
C	 1.576016	 4.085929	 -1.966357
H	 1.810614	 4.549227	 -1.018809
H	 1.339620	 4.838528	 -2.702283
H	 2.420700	 3.496024	 -2.291975

	symmetry c1
}
set optking {
	frozen_dihedral = ("
		9 5 8 12
	")
}

ee = optimize('scf')
oeprop('DIPOLE', 'QUADRUPOLE', 'MULLIKEN_CHARGES')
f=open( 'psi4out.xyz', 'w' )
f.write( "23  " )
f.write( str(ee) + "\n" )
f.write( MOL.save_string_xyz() )
f.close()
--------------------------------------------------------------------------

    Molecular point group: c1
  Charge       = 0
  Multiplicity = 1
  Basis Set: 6-31G*
  Basis Set:
  @DF-RHF Final Energy:  -422.97078838791521
    Total Energy =                       -422.9707883879150359
    Molecular point group: c1
  Basis Set: 6-31G*
  Basis Set:
  Basis Set: 6-31G*
  Basis Set:
  @DF-RHF Final Energy:  -422.97193767025470
    Total Energy =                       -422.9719376702546469
  Basis Set: 6-31G*
  Basis Set:
  Basis Set: 6-31G*
  Basis Set:
  @DF-RHF Final Energy:  -422.97323509594662
    Total Energy =                       -422.9732350959468477
  Basis Set: 6-31G*
  Basis Set:
  Basis Set: 6-31G*
  Basis Set:
  @DF-RHF Final Energy:  -422.97299423431951
    Total Energy =                       -422.9729942343192306
  Basis Set: 6-31G*
  Basis Set:
  Basis Set: 6-31G*
  Basis Set:
  @DF-RHF Final Energy:  -422.97331852398906
    Total Energy =                       -422.9733185239890645
  Basis Set: 6-31G*
  Basis Set:
  Basis Set: 6-31G*
  Basis Set:
  @DF-RHF Final Energy:  -422.97340577173577
    Total Energy =                       -422.9734057717358837
  Basis Set: 6-31G*
  Basis Set:
  Charge       = 0
  Multiplicity = 1
  Basis Set: 6-31G*
  Basis Set:

    Orbital Energies (a.u.)
    -----------------------

    Doubly Occupied:

       1A    -20.603505     2A    -20.545388     3A    -11.372203
       4A    -11.280769     5A    -11.235156     6A    -11.219250
       7A    -11.219060     8A    -11.217763     9A    -11.211189
      10A     -1.469246    11A     -1.362694    12A     -1.093186
      13A     -1.042009    14A     -0.987145    15A     -0.933433
      16A     -0.852087    17A     -0.792349    18A     -0.761839
      19A     -0.700690    20A     -0.682636    21A     -0.671807
      22A     -0.642467    23A     -0.614818    24A     -0.600513
      25A     -0.577905    26A     -0.558280    27A     -0.553977
      28A     -0.527190    29A     -0.520640    30A     -0.510662
      31A     -0.491961    32A     -0.466622    33A     -0.462593
      34A     -0.458152    35A     -0.452891    36A     -0.437589

  @DF-RHF Final Energy:  -422.97340646713951

   => Energetics <=

    Nuclear Repulsion Energy =            457.7601302333398507
    One-Electron Energy =               -1483.2077502135703071
    Two-Electron Energy =                 602.4742135130902625
    DFT Exchange-Correlation Energy =       0.0000000000000000
    Empirical Dispersion Energy =           0.0000000000000000
    PCM Polarization Energy =               0.0000000000000000
    EFP Energy =                            0.0000000000000000
    Total Energy =                       -422.9734064671401939
    Molecular point group: c1
  Basis Set: 6-31G*
  Basis Set:

  -Total Gradient:
     Atom            X                  Y                   Z
    ------   -----------------  -----------------  -----------------
       1       -0.000018038462     0.000044869603     0.000025077348
       2        0.000018484105    -0.000109143656    -0.000070203430
       3       -0.000006872384     0.000038797919     0.000041498939
       4       -0.000003491198     0.000002048760     0.000031533625
       5       -0.002137253582     0.003447021164    -0.000453695385
       6        0.000007737625     0.000009405417     0.000006635854
       7        0.000000425760     0.000004766511     0.000014919571
       8       -0.001592301718     0.002743878592    -0.002410205248
       9        0.002027048271    -0.003269790572     0.000762089684
      10        0.000001234193    -0.000035915687    -0.000020681945
      11        0.000000873283     0.000012392740     0.000052924312
      12        0.001701314949    -0.002894245890     0.002020567591
      13       -0.000017145159     0.000030697945     0.000010518792
      14        0.000016595526    -0.000019304214    -0.000049401520
      15       -0.000032625297    -0.000033782652     0.000027918298
      16        0.000025781826     0.000012992551     0.000010180079
      17       -0.000000528670    -0.000024241133     0.000014745005
      18        0.000013445603     0.000006402331    -0.000020757143
      19       -0.000014198757     0.000020973704     0.000014667462
      20        0.000000160317     0.000002812226    -0.000013029285
      21        0.000000548379     0.000000419632     0.000001448296
      22        0.000008700827     0.000006135978     0.000001690595
      23        0.000000104552     0.000002808732     0.000001558508

  **** Optimization is complete! (in 7 steps) ****
    Final optimized geometry and variables:
    Molecular point group: c1

    Geometry (in Angstrom), charge = 0, multiplicity = 1:

    O            2.310288699610     0.483099375373     0.351588141178
    C            1.368986104223     0.790611412583    -0.305959036946
    C            0.022598777470     0.107799107199    -0.290722421397
    O            1.381693656508     1.805220337103    -1.161495415508
    C           -0.041560210604    -1.063376499992     0.685011395618
    H           -0.716904119214     0.868311606326    -0.063166744640
    H           -0.187416026047    -0.215895699008    -1.307036735113
    C           -1.341655139243    -1.876834823548     0.624708470115
    H            0.131006972597    -0.715788261213     1.698952881985
    H            0.787979217635    -1.730647617730     0.474801377663
    C           -2.639837629589    -1.069947486320     0.693236926338
    H           -1.336817711452    -2.505912034956    -0.264038765197
    H           -1.326079213660    -2.573116936246     1.460949642192
    C           -3.877938805261    -1.961126516223     0.789695667617
    H           -2.732105353900    -0.432748799848    -0.182135347373
    H           -2.605827248265    -0.405314022444     1.554688955359
    H           -3.947519509931    -2.627885884595    -0.065227115495
    H           -4.787137871226    -1.368899202653     0.821765666083
    H           -3.850547750060    -2.575137622488     1.685235990363
    C            2.589501969307     2.535595534385    -1.274232548311
    H            2.855922251946     2.978287786838    -0.325254503032
    H            2.401680482983     3.305463650991    -2.006363322011
    H            3.392963183309     1.892938220714    -1.604337653399

  Mulliken Charges: (a.u.)
   Center  Symbol    Alpha    Beta     Spin     Total
       1     O     4.28586  4.28586  0.00000 -0.57172
       2     C     2.60465  2.60465  0.00000  0.79070
       3     C     3.21064  3.21064  0.00000 -0.42128
       4     O     4.30751  4.30751  0.00000 -0.61503
       5     C     3.15452  3.15452  0.00000 -0.30904
       6     H     0.39832  0.39832  0.00000  0.20337
       7     H     0.40102  0.40102  0.00000  0.19796
       8     C     3.15477  3.15477  0.00000 -0.30955
       9     H     0.41276  0.41276  0.00000  0.17447
      10     H     0.40880  0.40880  0.00000  0.18239
      11     C     3.15611  3.15611  0.00000 -0.31223
      12     H     0.42279  0.42279  0.00000  0.15442
      13     H     0.41922  0.41922  0.00000  0.16155
      14     C     3.23915  3.23915  0.00000 -0.47829
      15     H     0.42184  0.42184  0.00000  0.15632
      16     H     0.42223  0.42223  0.00000  0.15554
      17     H     0.42126  0.42126  0.00000  0.15747
      18     H     0.41873  0.41873  0.00000  0.16254
      19     H     0.42074  0.42074  0.00000  0.15852
      20     C     3.09240  3.09240  0.00000 -0.18481
      21     H     0.40907  0.40907  0.00000  0.18187
      22     H     0.40848  0.40848  0.00000  0.18304
      23     H     0.40911  0.40911  0.00000  0.18178

   Total alpha = 36.00000, Total beta = 36.00000, Total charge =  0.00000
