  ==> Input File <==

--------------------------------------------------------------------------
set {
	reference rhf
	basis 6-31G*
}

set_num_threads( 4 )
memory 2 gb

molecule MOL {
0 1

O	 2.763030	 1.513945	 -0.801408
C	 2.690759	 0.405543	 -1.236126
C	 1.395600	 -0.386494	 -1.222733
C	 3.897775	 -0.287665	 -1.834232
C	 0.215961	 0.361038	 -0.608011
H	 1.173604	 -0.679447	 -2.248054
H	 1.580435	 -1.318540	 -0.690259
C	 -1.069781	 -0.467583	 -0.612402
H	 0.059914	 1.287658	 -1.151292
H	 0.467048	 0.647669	 0.408328
C	 -2.259874	 0.272531	 0.000494
H	 -1.313821	 -0.754540	 -1.634237
H	 -0.905786	 -1.396064	 -0.067337
C	 -3.549786	 -0.549746	 -0.000374
H	 -2.425174	 1.200523	 -0.544047
H	 -2.017376	 0.559120	 1.022285
C	 -4.809590	 0.315458	 -0.000369
H	 -3.560515	 -1.202009	 -0.871156
H	 -3.561123	 -1.202955	 0.869711
H	 -4.844746	 0.956611	 -0.876632
H	 -5.706986	 -0.295590	 -0.001609
H	 -4.845960	 0.954827	 0.877144
H	 3.703875	 -0.562565	 -2.866923
H	 4.754904	 0.369798	 -1.790554
H	 4.115502	 -1.203506	 -1.292509

	symmetry c1
}
set optking {
	frozen_dihedral = ("
		15 11 14 18
	")
}

ee = optimize('scf')
oeprop('DIPOLE', 'QUADRUPOLE', 'MULLIKEN_CHARGES')
f=open( 'psi4out.xyz', 'w' )
f.write( "25  " )
f.write( str(ee) + "\n" )
f.write( MOL.save_string_xyz() )
f.close()
--------------------------------------------------------------------------

    Molecular point group: c1
  Charge       = 0
  Multiplicity = 1
  Basis Set: 6-31G*
  Basis Set:
  @DF-RHF Final Energy:  -387.13426308419355
    Total Energy =                       -387.1342630841934351
    Molecular point group: c1
  Basis Set: 6-31G*
  Basis Set:
  Basis Set: 6-31G*
  Basis Set:
  @DF-RHF Final Energy:  -387.13448950647171
    Total Energy =                       -387.1344895064713683
  Basis Set: 6-31G*
  Basis Set:
  Basis Set: 6-31G*
  Basis Set:
  @DF-RHF Final Energy:  -387.13454444888697
    Total Energy =                       -387.1345444488860039
  Basis Set: 6-31G*
  Basis Set:
  Basis Set: 6-31G*
  Basis Set:
  @DF-RHF Final Energy:  -387.13446621502027
    Total Energy =                       -387.1344662150208933
  Basis Set: 6-31G*
  Basis Set:
  Basis Set: 6-31G*
  Basis Set:
  @DF-RHF Final Energy:  -387.13455264265411
    Total Energy =                       -387.1345526426542847
  Basis Set: 6-31G*
  Basis Set:
  Basis Set: 6-31G*
  Basis Set:
  @DF-RHF Final Energy:  -387.13455383910406
    Total Energy =                       -387.1345538391036598
  Basis Set: 6-31G*
  Basis Set:
  Charge       = 0
  Multiplicity = 1
  Basis Set: 6-31G*
  Basis Set:

    Orbital Energies (a.u.)
    -----------------------

    Doubly Occupied:

       1A    -20.550519     2A    -11.326361     3A    -11.231973
       4A    -11.228388     5A    -11.217424     6A    -11.216671
       7A    -11.215180     8A    -11.213311     9A    -11.208774
      10A     -1.395826    11A     -1.093290    12A     -1.055771
      13A     -1.014555    14A     -0.969468    15A     -0.890841
      16A     -0.814895    17A     -0.791321    18A     -0.729985
      19A     -0.660064    20A     -0.652222    21A     -0.629413
      22A     -0.623996    23A     -0.596685    24A     -0.585260
      25A     -0.567773    26A     -0.559414    27A     -0.539047
      28A     -0.527070    29A     -0.513272    30A     -0.490510
      31A     -0.487254    32A     -0.474081    33A     -0.465009
      34A     -0.457867    35A     -0.450691    36A     -0.399524

  @DF-RHF Final Energy:  -387.13455470901403

   => Energetics <=

    Nuclear Repulsion Energy =            438.2943416748494769
    One-Electron Energy =               -1393.1703781916226035
    Two-Electron Energy =                 567.7414818077586460
    DFT Exchange-Correlation Energy =       0.0000000000000000
    Empirical Dispersion Energy =           0.0000000000000000
    PCM Polarization Energy =               0.0000000000000000
    EFP Energy =                            0.0000000000000000
    Total Energy =                       -387.1345547090145374
    Molecular point group: c1
  Basis Set: 6-31G*
  Basis Set:

  -Total Gradient:
     Atom            X                  Y                   Z
    ------   -----------------  -----------------  -----------------
       1       -0.000000172869     0.000001477504    -0.000000031209
       2        0.000001545083    -0.000005267776     0.000004145766
       3        0.000006798115     0.000003745710     0.000002185229
       4       -0.000001438916     0.000002738350    -0.000005454214
       5        0.000006635648    -0.000000104126    -0.000026254159
       6        0.000000394693     0.000001924467    -0.000001442951
       7       -0.000001049244    -0.000001147651    -0.000001385428
       8        0.000028466192     0.000000439157     0.000044136117
       9        0.000001862325     0.000001615725    -0.000000416464
      10       -0.000004497781    -0.000003154251    -0.000000957360
      11        0.001804971878    -0.002950259080    -0.003783976662
      12       -0.000011859852     0.000008617204     0.000012995608
      13        0.000010870525    -0.000011254037    -0.000001814177
      14       -0.002661815491     0.003978412728    -0.001840829776
      15       -0.001068388043     0.001853877929     0.003457137034
      16        0.000013674436    -0.000005470502    -0.000019367161
      17       -0.000027151876    -0.000017209807     0.000024656687
      18        0.001926582081    -0.002872224123     0.002139502638
      19       -0.000017689222     0.000008594075    -0.000012022517
      20        0.000014496608    -0.000006992777     0.000005566727
      21       -0.000013860423     0.000008545316    -0.000004097390
      22       -0.000008695903     0.000004561849     0.000004173307
      23        0.000000578751    -0.000001707925     0.000000892883
      24       -0.000000307580     0.000000087376     0.000000539711
      25        0.000000050851     0.000000154663     0.000002117758

  **** Optimization is complete! (in 7 steps) ****
    Final optimized geometry and variables:
    Molecular point group: c1

    Geometry (in Angstrom), charge = 0, multiplicity = 1:

    O            2.861445444385     1.364976942764    -0.067566444048
    C            2.787425642809     0.261509140727    -0.514346162676
    C            1.486400288914    -0.520864098896    -0.527825096023
    C            3.997960215578    -0.434861643838    -1.101548160219
    C            0.303100244779     0.230146152037     0.075510833313
    H            1.278034650610    -0.803165515503    -1.558969202515
    H            1.656166332354    -1.458871190012    -0.000809603510
    C           -0.987716632976    -0.589602995494     0.046704829265
    H            0.160603498034     1.161681673162    -0.463180138529
    H            0.541544774165     0.507773464493     1.097299927913
    C           -2.183571378970     0.155661371664     0.638368860593
    H           -1.216502430019    -0.873618447347    -0.979310675958
    H           -0.840461647350    -1.520295383443     0.593354916552
    C           -3.470380805913    -0.680125058149     0.683337281138
    H           -2.361835773480     1.078393422506     0.089098253134
    H           -1.938957393967     0.475320361074     1.649993607944
    C           -4.741123625494     0.163126988050     0.757413487625
    H           -3.507928821411    -1.346516041265    -0.175949468238
    H           -3.428889080928    -1.339667153848     1.547919727893
    H           -4.849826717676     0.785449088389    -0.126186181877
    H           -5.625683170139    -0.461510455983     0.834797802881
    H           -4.723575127669     0.820156374213     1.622607758180
    H            3.817534529515    -0.697369943882    -2.139888867577
    H            4.859347490276     0.215371362965    -1.038096991550
    H            4.200469497906    -1.358022867448    -0.566374695394

  Mulliken Charges: (a.u.)
   Center  Symbol    Alpha    Beta     Spin     Total
       1     O     4.26113  4.26113  0.00000 -0.52227
       2     C     2.73569  2.73569  0.00000  0.52863
       3     C     3.21090  3.21090  0.00000 -0.42180
       4     C     3.28663  3.28663  0.00000 -0.57327
       5     C     3.14838  3.14838  0.00000 -0.29677
       6     H     0.40998  0.40998  0.00000  0.18005
       7     H     0.40998  0.40998  0.00000  0.18004
       8     C     3.15455  3.15455  0.00000 -0.30910
       9     H     0.41204  0.41204  0.00000  0.17593
      10     H     0.41201  0.41201  0.00000  0.17598
      11     C     3.15243  3.15243  0.00000 -0.30485
      12     H     0.42444  0.42444  0.00000  0.15113
      13     H     0.42458  0.42458  0.00000  0.15084
      14     C     3.15262  3.15262  0.00000 -0.30525
      15     H     0.42184  0.42184  0.00000  0.15632
      16     H     0.42159  0.42159  0.00000  0.15682
      17     C     3.23960  3.23960  0.00000 -0.47920
      18     H     0.42322  0.42322  0.00000  0.15356
      19     H     0.42249  0.42249  0.00000  0.15502
      20     H     0.42130  0.42130  0.00000  0.15740
      21     H     0.41975  0.41975  0.00000  0.16050
      22     H     0.42098  0.42098  0.00000  0.15804
      23     H     0.40872  0.40872  0.00000  0.18256
      24     H     0.39645  0.39645  0.00000  0.20710
      25     H     0.40870  0.40870  0.00000  0.18260

   Total alpha = 36.00000, Total beta = 36.00000, Total charge = -0.00000
