  ==> Input File <==

--------------------------------------------------------------------------
set {
	reference rhf
	basis 6-31G*
}

set_num_threads( 4 )
memory 2 gb

molecule MOL {
0 1

O	 0.625848	 1.349995	 -0.000749
C	 0.486307	 0.169203	 0.000779
C	 1.608116	 -0.841643	 0.000302
O	 -0.698257	 -0.426125	 0.001050
C	 2.990107	 -0.200498	 -0.000684
H	 1.468623	 -1.481519	 -0.865924
H	 1.469683	 -1.481289	 0.866878
H	 3.129736	 0.423364	 -0.875135
H	 3.757882	 -0.966877	 -0.001197
H	 3.130964	 0.423383	 0.873533
C	 -0.794772	 -1.698765	 0.632296
C	 -2.230185	 -2.162332	 0.501887
H	 -0.498506	 -1.601966	 1.667883
H	 -0.108410	 -2.383223	 0.152698
H	 -2.905348	 -1.463497	 0.982454
H	 -2.349010	 -3.133192	 0.971951
H	 -2.513206	 -2.249124	 -0.541005

	symmetry c1
}
set optking {
	frozen_dihedral = ("
		11 4 2 3
	")
}

ee = optimize('scf')
oeprop('DIPOLE', 'QUADRUPOLE', 'MULLIKEN_CHARGES')
f=open( 'psi4out.xyz', 'w' )
f.write( "17  " )
f.write( str(ee) + "\n" )
f.write( MOL.save_string_xyz() )
f.close()
--------------------------------------------------------------------------

    Molecular point group: c1
  Charge       = 0
  Multiplicity = 1
  Basis Set: 6-31G*
  Basis Set:
  @DF-RHF Final Energy:  -344.88667593197039
    Total Energy =                       -344.8866759319705579
    Molecular point group: c1
  Basis Set: 6-31G*
  Basis Set:
  Basis Set: 6-31G*
  Basis Set:
  @DF-RHF Final Energy:  -344.88723718616859
    Total Energy =                       -344.8872371861684769
  Basis Set: 6-31G*
  Basis Set:
  Basis Set: 6-31G*
  Basis Set:
  @DF-RHF Final Energy:  -344.89369232097721
    Total Energy =                       -344.8936923209769816
  Basis Set: 6-31G*
  Basis Set:
  Basis Set: 6-31G*
  Basis Set:
  @DF-RHF Final Energy:  -344.89557769261694
    Total Energy =                       -344.8955776926168255
  Basis Set: 6-31G*
  Basis Set:
  @DF-RHF Final Energy:  -344.89530307343921
    Total Energy =                       -344.8953030734390381
  @DF-RHF Final Energy:  -344.89537963902148
    Total Energy =                       -344.8953796390217690
  Basis Set: 6-31G*
  Basis Set:
  @DF-RHF Final Energy:  -344.89593651790216
    Total Energy =                       -344.8959365179021574
  Basis Set: 6-31G*
  Basis Set:
  Basis Set: 6-31G*
  Basis Set:
  @DF-RHF Final Energy:  -344.89593922615535
    Total Energy =                       -344.8959392261554058
  Basis Set: 6-31G*
  Basis Set:
  Basis Set: 6-31G*
  Basis Set:
  @DF-RHF Final Energy:  -344.89595592522681
    Total Energy =                       -344.8959559252266445
  Basis Set: 6-31G*
  Basis Set:
  Charge       = 0
  Multiplicity = 1
  Basis Set: 6-31G*
  Basis Set:

    Orbital Energies (a.u.)
    -----------------------

    Doubly Occupied:

       1A    -20.596222     2A    -20.541781     3A    -11.372809
       4A    -11.299826     5A    -11.246624     6A    -11.227310
       7A    -11.219746     8A     -1.460509     9A     -1.364760
      10A     -1.063592    11A     -1.046025    12A     -0.901131
      13A     -0.879880    14A     -0.770962    15A     -0.704593
      16A     -0.693838    17A     -0.654758    18A     -0.635760
      19A     -0.594074    20A     -0.570083    21A     -0.560511
      22A     -0.538233    23A     -0.525945    24A     -0.519668
      25A     -0.508977    26A     -0.493697    27A     -0.445957
      28A     -0.431062

  @DF-RHF Final Energy:  -344.89595607214142

   => Energetics <=

    Nuclear Repulsion Energy =            315.1824187699822915
    One-Electron Energy =               -1094.4200826943597349
    Two-Electron Energy =                 434.3417078522359702
    DFT Exchange-Correlation Energy =       0.0000000000000000
    Empirical Dispersion Energy =           0.0000000000000000
    PCM Polarization Energy =               0.0000000000000000
    EFP Energy =                            0.0000000000000000
    Total Energy =                       -344.8959560721414732
    Molecular point group: c1
  Basis Set: 6-31G*
  Basis Set:

  -Total Gradient:
     Atom            X                  Y                   Z
    ------   -----------------  -----------------  -----------------
       1        0.000007274195     0.000017656496    -0.000003874158
       2       -0.000402628104     0.000542688843     0.004170347614
       3        0.000038238680    -0.000005847150    -0.002049140444
       4        0.000900659075    -0.001570692176    -0.004091899446
       5       -0.000001433704     0.000006049832     0.000016115301
       6        0.000007834162    -0.000001167114     0.000009837666
       7       -0.000005080306     0.000003414060     0.000014720633
       8       -0.000003427731    -0.000002199474    -0.000003456913
       9       -0.000004044521    -0.000002381408    -0.000001698465
      10        0.000001887745     0.000002347883    -0.000001653786
      11       -0.000539807730     0.001012477047     0.001929904018
      12        0.000002220601     0.000000865773     0.000003960400
      13       -0.000001205100    -0.000001877717     0.000003232086
      14       -0.000003130628    -0.000002316493     0.000002063025
      15       -0.000001948511     0.000000573851     0.000000098827
      16        0.000001013439     0.000000170944     0.000000697053
      17        0.000003578438     0.000000236805     0.000000746589

  **** Optimization is complete! (in 10 steps) ****
    Final optimized geometry and variables:
    Molecular point group: c1

    Geometry (in Angstrom), charge = 0, multiplicity = 1:

    O            0.317827799598     1.815308924035    -0.199820273837
    C            0.256303726523     0.635458962610    -0.127889756213
    C            1.480004445428    -0.260275927701    -0.105056891848
    O           -0.939991433177     0.037477384600    -0.150652645385
    C            2.780823781196     0.527324325675    -0.210036084733
    H            1.387434362455    -0.965490526803    -0.926705517952
    H            1.472170613667    -0.855118109585     0.803898988611
    H            2.814254557200     1.101194723603    -1.127356374593
    H            3.627719417669    -0.150493725812    -0.196231999341
    H            2.882000313110     1.220793082927     0.615197452763
    C           -1.170523169031    -1.228211485806     0.441684561801
    C           -2.655906762398    -1.506833390745     0.340676883280
    H           -0.855504189706    -1.209344424549     1.479221911523
    H           -0.603821420963    -1.995626969466    -0.072648087445
    H           -3.220611536851    -0.740866989779     0.858071602961
    H           -2.885438455484    -2.470095279966     0.784762612758
    H           -2.968085947254    -1.520304773442    -0.696875215395

  Mulliken Charges: (a.u.)
   Center  Symbol    Alpha    Beta     Spin     Total
       1     O     4.26455  4.26455  0.00000 -0.52910
       2     C     2.60254  2.60254  0.00000  0.79492
       3     C     3.22838  3.22838  0.00000 -0.45677
       4     O     4.30940  4.30940  0.00000 -0.61879
       5     C     3.23488  3.23488  0.00000 -0.46975
       6     H     0.40171  0.40171  0.00000  0.19657
       7     H     0.40532  0.40532  0.00000  0.18936
       8     H     0.40715  0.40715  0.00000  0.18569
       9     H     0.41919  0.41919  0.00000  0.16162
      10     H     0.40790  0.40790  0.00000  0.18419
      11     C     3.00456  3.00456  0.00000 -0.00911
      12     C     3.24507  3.24507  0.00000 -0.49014
      13     H     0.41775  0.41775  0.00000  0.16450
      14     H     0.41939  0.41939  0.00000  0.16122
      15     H     0.40606  0.40606  0.00000  0.18788
      16     H     0.41793  0.41793  0.00000  0.16414
      17     H     0.40821  0.40821  0.00000  0.18357

   Total alpha = 28.00000, Total beta = 28.00000, Total charge =  0.00000
