  ==> Input File <==

--------------------------------------------------------------------------
set {
	reference rhf
	basis cc-pvtz
}

set_num_threads( 4 )
memory 2 gb

molecule MOL {
0 1

H	 -2.195635	 0.397665	 2.521611
C	 -1.745930	 -0.448576	 3.035931
O	 -0.541806	 -0.817281	 2.451393
H	 -1.544164	 -0.166304	 4.058917
H	 -2.459557	 -1.270537	 3.034513
C	 -0.647155	 -1.218363	 1.124867
C	 0.725601	 -1.493331	 0.564260
H	 -1.246574	 -2.125709	 1.051464
H	 -1.129840	 -0.448261	 0.527046
O	 1.401606	 -0.295166	 0.366636
H	 1.271447	 -2.134157	 1.253335
H	 0.620690	 -2.027582	 -0.379954
C	 2.714315	 -0.441627	 -0.061017
H	 2.765292	 -0.641548	 -1.128869
H	 3.305661	 0.447341	 0.150952
H	 3.143725	 -1.278506	 0.470147

	symmetry c1
}
set optking {
	frozen_dihedral = ("
		7 10 13 14
	")
}

ee = optimize('scf')
oeprop('DIPOLE', 'QUADRUPOLE', 'MULLIKEN_CHARGES')
f=open( 'psi4out.xyz', 'w' )
f.write( "16  " )
f.write( str(ee) + "\n" )
f.write( MOL.save_string_xyz() )
f.close()
--------------------------------------------------------------------------

    Molecular point group: c1
  Charge       = 0
  Multiplicity = 1
  Basis Set: CC-PVTZ
  Basis Set:
  @DF-RHF Final Energy:  -307.09586982271634
    Total Energy =                       -307.0958698227159402
    Molecular point group: c1
  Basis Set: CC-PVTZ
  Basis Set:
  Basis Set: CC-PVTZ
  Basis Set:
  @DF-RHF Final Energy:  -307.09685400825515
    Total Energy =                       -307.0968540082548657
  Basis Set: CC-PVTZ
  Basis Set:
  Basis Set: CC-PVTZ
  Basis Set:
  @DF-RHF Final Energy:  -307.09708143375082
    Total Energy =                       -307.0970814337508727
  Basis Set: CC-PVTZ
  Basis Set:
  Charge       = 0
  Multiplicity = 1
  Basis Set: CC-PVTZ
  Basis Set:

    Orbital Energies (a.u.)
    -----------------------

    Doubly Occupied:

       1A    -20.547725     2A    -20.547059     3A    -11.267587
       4A    -11.266860     5A    -11.261556     6A    -11.261383
       7A     -1.391261     8A     -1.373935     9A     -1.032096
      10A     -0.937319    11A     -0.892138    12A     -0.824251
      13A     -0.685995    14A     -0.682477    15A     -0.659254
      16A     -0.638332    17A     -0.631651    18A     -0.598128
      19A     -0.552242    20A     -0.536154    21A     -0.509485
      22A     -0.479441    23A     -0.464549    24A     -0.422935
      25A     -0.412929

  @DF-RHF Final Energy:  -307.09708260248414

   => Energetics <=

    Nuclear Repulsion Energy =            258.8465525983943394
    One-Electron Energy =                -932.1337953959020979
    Two-Electron Energy =                 366.1901601950236227
    DFT Exchange-Correlation Energy =       0.0000000000000000
    Empirical Dispersion Energy =           0.0000000000000000
    PCM Polarization Energy =               0.0000000000000000
    EFP Energy =                            0.0000000000000000
    Total Energy =                       -307.0970826024841926
    Molecular point group: c1
  Basis Set: CC-PVTZ
  Basis Set:

  -Total Gradient:
     Atom            X                  Y                   Z
    ------   -----------------  -----------------  -----------------
       1        0.000002127322    -0.000000259339    -0.000001320788
       2       -0.000001515497    -0.000000759806    -0.000000117789
       3        0.000003386924    -0.000005199073     0.000028244725
       4        0.000002151369    -0.000001552413    -0.000001644167
       5       -0.000001258057    -0.000000589837     0.000000916890
       6        0.000020616331     0.000078724760    -0.000017003226
       7        0.000636497589    -0.000142013351     0.001772364667
       8        0.000035746882    -0.000001343374    -0.000006957382
       9       -0.000012778226     0.000001245260    -0.000011793275
      10       -0.000790218910     0.000819452373    -0.002801926056
      11        0.000025760414     0.000023381814     0.000009376634
      12       -0.000002318041    -0.000004357033     0.000010271696
      13        0.000077499319    -0.003172331515     0.001389737300
      14        0.000025017060     0.002407038746    -0.000381503361
      15       -0.000031879240     0.000024444194     0.000000326807
      16        0.000011164759    -0.000025881407     0.000011027324

  **** Optimization is complete! (in 4 steps) ****
    Final optimized geometry and variables:
    Molecular point group: c1

    Geometry (in Angstrom), charge = 0, multiplicity = 1:

    H           -2.506603768664     1.195094743139     1.271212115716
    C           -2.065555133611     0.342678848955     1.782808971461
    O           -0.864569107420    -0.035507428134     1.197914291951
    H           -1.861950496925     0.619221287981     2.806992144328
    H           -2.787118473811    -0.472331213123     1.777791694665
    C           -0.972598071220    -0.430304688124    -0.130274701169
    C            0.397972506584    -0.717434747083    -0.690310462083
    H           -1.580754228815    -1.331503434617    -0.207727895287
    H           -1.447162002826     0.346709462945    -0.725565613124
    O            1.087665379147     0.474983339093    -0.875865493995
    H            0.935577933912    -1.367834362195    -0.004539771758
    H            0.286448989924    -1.245513231383    -1.637546726013
    C            2.400277940420     0.330680283634    -1.308324393077
    H            2.447211632613     0.145742735200    -2.379467178207
    H            2.918529194549     1.257367671545    -1.105000634390
    H            2.911602528969    -0.473390292038    -0.786335893177

  Mulliken Charges: (a.u.)
   Center  Symbol    Alpha    Beta     Spin     Total
       1     H     0.47021  0.47021  0.00000  0.05959
       2     C     3.03202  3.03202  0.00000 -0.06404
       3     O     4.17034  4.17034  0.00000 -0.34067
       4     H     0.44638  0.44638  0.00000  0.10724
       5     H     0.47371  0.47371  0.00000  0.05258
       6     C     2.96126  2.96126  0.00000  0.07748
       7     C     2.96034  2.96034  0.00000  0.07931
       8     H     0.47619  0.47619  0.00000  0.04762
       9     H     0.47070  0.47070  0.00000  0.05860
      10     O     4.17138  4.17138  0.00000 -0.34277
      11     H     0.46913  0.46913  0.00000  0.06174
      12     H     0.47734  0.47734  0.00000  0.04533
      13     C     3.03101  3.03101  0.00000 -0.06202
      14     H     0.46922  0.46922  0.00000  0.06156
      15     H     0.44762  0.44762  0.00000  0.10476
      16     H     0.47316  0.47316  0.00000  0.05368

   Total alpha = 25.00000, Total beta = 25.00000, Total charge = -0.00000
