  ==> Input File <==

--------------------------------------------------------------------------
set {
	reference rhf
	basis cc-pvtz
}

set_num_threads( 4 )
memory 2 gb

molecule MOL {
0 1

O	 -2.071633	 -1.227563	 -0.223463
C	 -1.652164	 -0.152425	 0.058082
C	 -0.327811	 0.006324	 0.778296
C	 -2.402515	 1.108629	 -0.298924
C	 0.843231	 -0.001575	 -0.211665
H	 -0.319484	 0.928173	 1.350354
H	 -0.227804	 -0.823091	 1.466705
C	 2.197693	 0.138030	 0.476937
H	 0.722944	 0.805202	 -0.930230
H	 0.813976	 -0.926978	 -0.776588
C	 3.001736	 -1.157601	 0.472701
H	 2.771362	 0.920895	 -0.011479
H	 2.044575	 0.464877	 1.501273
H	 3.201336	 -1.491808	 -0.539968
H	 2.466551	 -1.951306	 0.982581
H	 3.954958	 -1.027577	 0.971564
H	 -3.240910	 0.874416	 -0.936711
H	 -1.747554	 1.818823	 -0.790984
H	 -2.760419	 1.579708	 0.610998

	symmetry c1
}
set optking {
	frozen_dihedral = ("
		11 8 5 9
	")
}

ee = optimize('scf')
oeprop('DIPOLE', 'QUADRUPOLE', 'MULLIKEN_CHARGES')
f=open( 'psi4out.xyz', 'w' )
f.write( "19  " )
f.write( str(ee) + "\n" )
f.write( MOL.save_string_xyz() )
f.close()
--------------------------------------------------------------------------

    Molecular point group: c1
  Charge       = 0
  Multiplicity = 1
  Basis Set: CC-PVTZ
  Basis Set:
  @DF-RHF Final Energy:  -309.17178841124337
    Total Energy =                       -309.1717884112431420
    Molecular point group: c1
  Basis Set: CC-PVTZ
  Basis Set:
  Basis Set: CC-PVTZ
  Basis Set:
  @DF-RHF Final Energy:  -309.17201613201678
    Total Energy =                       -309.1720161320163243
  Basis Set: CC-PVTZ
  Basis Set:
  Basis Set: CC-PVTZ
  Basis Set:
  @DF-RHF Final Energy:  -309.17209631633773
    Total Energy =                       -309.1720963163377291
  Basis Set: CC-PVTZ
  Basis Set:
  Basis Set: CC-PVTZ
  Basis Set:
  @DF-RHF Final Energy:  -309.17205646232952
    Total Energy =                       -309.1720564623293512
  Basis Set: CC-PVTZ
  Basis Set:
  Basis Set: CC-PVTZ
  Basis Set:
  @DF-RHF Final Energy:  -309.17210676679417
    Total Energy =                       -309.1721067667943998
  Basis Set: CC-PVTZ
  Basis Set:
  Basis Set: CC-PVTZ
  Basis Set:
  @DF-RHF Final Energy:  -309.17213289968589
    Total Energy =                       -309.1721328996857210
  Basis Set: CC-PVTZ
  Basis Set:
  Basis Set: CC-PVTZ
  Basis Set:
  @DF-RHF Final Energy:  -309.17213681774570
    Total Energy =                       -309.1721368177454679
  Basis Set: CC-PVTZ
  Basis Set:
  Charge       = 0
  Multiplicity = 1
  Basis Set: CC-PVTZ
  Basis Set:

    Orbital Energies (a.u.)
    -----------------------

    Doubly Occupied:

       1A    -20.537093     2A    -11.319402     3A    -11.228768
       4A    -11.228109     5A    -11.227018     6A    -11.222645
       7A    -11.212112     8A     -1.397143     9A     -1.090626
      10A     -1.029322    11A     -0.983617    12A     -0.892653
      13A     -0.805625    14A     -0.736641    15A     -0.656006
      16A     -0.654386    17A     -0.618772    18A     -0.610720
      19A     -0.594970    20A     -0.577451    21A     -0.545244
      22A     -0.534635    23A     -0.524393    24A     -0.499096
      25A     -0.481288    26A     -0.475371    27A     -0.464443
      28A     -0.399097

  @DF-RHF Final Energy:  -309.17213707993767

   => Energetics <=

    Nuclear Repulsion Energy =            303.0492451721341922
    One-Electron Energy =               -1019.3494743234161888
    Two-Electron Energy =                 407.1280920713444402
    DFT Exchange-Correlation Energy =       0.0000000000000000
    Empirical Dispersion Energy =           0.0000000000000000
    PCM Polarization Energy =               0.0000000000000000
    EFP Energy =                            0.0000000000000000
    Total Energy =                       -309.1721370799375563
    Molecular point group: c1
  Basis Set: CC-PVTZ
  Basis Set:

  -Total Gradient:
     Atom            X                  Y                   Z
    ------   -----------------  -----------------  -----------------
       1        0.000001653871    -0.000001720815    -0.000005619688
       2       -0.000004712927     0.000004779488     0.000005210016
       3        0.000000213894    -0.000000764712     0.000002615918
       4       -0.000004942709    -0.000004568256     0.000003954489
       5       -0.000948328912     0.001943274613     0.001554930186
       6        0.000002243833    -0.000000877833    -0.000000199160
       7       -0.000002128900    -0.000000212488     0.000002019669
       8       -0.000792895679    -0.000979211955     0.001767012263
       9        0.000992551430    -0.001418821384    -0.001761349535
      10        0.000001094253     0.000002113900     0.000000574584
      11        0.000753044284     0.000458513840    -0.001567957744
      12       -0.000003461421    -0.000004104382     0.000003104034
      13        0.000001521168     0.000003059263    -0.000000595305
      14       -0.000002105439    -0.000002769406     0.000000167024
      15        0.000000237660    -0.000000999217     0.000001418676
      16        0.000000597589     0.000001979273    -0.000001376689
      17        0.000000716081    -0.000000385795    -0.000000626592
      18        0.000002683638    -0.000000254645    -0.000001885331
      19        0.000002018286     0.000000970514    -0.000001396813

  **** Optimization is complete! (in 8 steps) ****
    Final optimized geometry and variables:
    Molecular point group: c1

    Geometry (in Angstrom), charge = 0, multiplicity = 1:

    O           -2.004965508458    -1.046160364936    -0.361975280513
    C           -1.599268745655     0.036180328165    -0.087728997172
    C           -0.277298051923     0.216935212696     0.631691870842
    C           -2.365383885839     1.285167049478    -0.453417228856
    C            0.895676155381     0.221102995587    -0.356644524485
    H           -0.281428305205     1.141453418026     1.199124231826
    H           -0.165429516118    -0.607799662440     1.324361920918
    C            2.269549952540     0.327108911099     0.334109544271
    H            0.776773455291     1.028095648939    -1.072059774606
    H            0.851329115009    -0.693381511267    -0.937018100670
    C            3.052517601989    -0.982699536107     0.323434748705
    H            2.863956600926     1.088914455351    -0.158288336114
    H            2.141778681140     0.664503407741     1.357486114336
    H            3.260105265529    -1.300286454828    -0.692303703104
    H            2.497481201014    -1.778190745155     0.809687450791
    H            3.999937459637    -0.876549883713     0.839327907566
    H           -3.199433342310     1.036174297596    -1.091305549212
    H           -1.718873517655     2.001139135574    -0.948219683097
    H           -2.731368591287     1.756554564014     0.453144426867

  Mulliken Charges: (a.u.)
   Center  Symbol    Alpha    Beta     Spin     Total
       1     O     4.17697  4.17697  0.00000 -0.35394
       2     C     2.85874  2.85874  0.00000  0.28253
       3     C     3.09883  3.09883  0.00000 -0.19765
       4     C     3.15520  3.15520  0.00000 -0.31041
       5     C     3.10691  3.10691  0.00000 -0.21383
       6     H     0.44846  0.44846  0.00000  0.10308
       7     H     0.43884  0.43884  0.00000  0.12232
       8     C     3.09052  3.09052  0.00000 -0.18105
       9     H     0.44506  0.44506  0.00000  0.10989
      10     H     0.44221  0.44221  0.00000  0.11558
      11     C     3.14613  3.14613  0.00000 -0.29227
      12     H     0.44811  0.44811  0.00000  0.10378
      13     H     0.45367  0.45367  0.00000  0.09266
      14     H     0.45346  0.45346  0.00000  0.09309
      15     H     0.45249  0.45249  0.00000  0.09502
      16     H     0.44894  0.44894  0.00000  0.10212
      17     H     0.43617  0.43617  0.00000  0.12765
      18     H     0.45087  0.45087  0.00000  0.09825
      19     H     0.44841  0.44841  0.00000  0.10318

   Total alpha = 28.00000, Total beta = 28.00000, Total charge = -0.00000
