  ==> Input File <==

--------------------------------------------------------------------------
set {
	reference rhf
	basis 6-31G*
}

set_num_threads( 4 )
memory 2 gb

molecule MOL {
0 1

H	 -1.491718	 -0.280830	 -0.300691
N	 -0.626943	 -0.667432	 -0.000092
C	 -0.604010	 -2.052237	 0.412830
C	 0.469286	 0.129090	 0.000148
H	 -1.267340	 -2.217404	 1.255278
H	 0.403082	 -2.299577	 0.706626
H	 -0.904215	 -2.705382	 -0.399765
C	 1.788933	 -0.616240	 -0.000037
O	 0.411098	 1.327768	 -0.000049
H	 1.872803	 -1.245775	 -0.880381
H	 2.595421	 0.101576	 0.003713
H	 1.870096	 -1.252171	 0.875943

	symmetry c1
}
set optking {
	frozen_dihedral = ("
		3 2 4 9
	")
}

ee = optimize('scf')
oeprop('DIPOLE', 'QUADRUPOLE', 'MULLIKEN_CHARGES')
f=open( 'psi4out.xyz', 'w' )
f.write( "12  " )
f.write( str(ee) + "\n" )
f.write( MOL.save_string_xyz() )
f.close()
--------------------------------------------------------------------------

    Molecular point group: c1
  Charge       = 0
  Multiplicity = 1
  Basis Set: 6-31G*
  Basis Set:
  @DF-RHF Final Energy:  -246.99174135553133
    Total Energy =                       -246.9917413555313033
    Molecular point group: c1
  Basis Set: 6-31G*
  Basis Set:
  Basis Set: 6-31G*
  Basis Set:
  @DF-RHF Final Energy:  -246.99471465434939
    Total Energy =                       -246.9947146543493091
  Basis Set: 6-31G*
  Basis Set:
  Basis Set: 6-31G*
  Basis Set:
  @DF-RHF Final Energy:  -246.99928018051637
    Total Energy =                       -246.9992801805165072
  Basis Set: 6-31G*
  Basis Set:
  Basis Set: 6-31G*
  Basis Set:
  @DF-RHF Final Energy:  -247.00020009022458
    Total Energy =                       -247.0002000902247801
  Basis Set: 6-31G*
  Basis Set:
  @DF-RHF Final Energy:  -247.00032317548542
    Total Energy =                       -247.0003231754852777
  @DF-RHF Final Energy:  -247.00037700511180
    Total Energy =                       -247.0003770051116021
  @DF-RHF Final Energy:  -247.00046512793554
    Total Energy =                       -247.0004651279353993
  @DF-RHF Final Energy:  -247.00055247832293
    Total Energy =                       -247.0005524783230157
  @DF-RHF Final Energy:  -247.00063961944485
    Total Energy =                       -247.0006396194448257
  @DF-RHF Final Energy:  -247.00089014988313
    Total Energy =                       -247.0008901498831619
  @DF-RHF Final Energy:  -247.00132588395263
    Total Energy =                       -247.0013258839524042
  @DF-RHF Final Energy:  -247.00144257588005
    Total Energy =                       -247.0014425758801622
  @DF-RHF Final Energy:  -247.00152623547149
    Total Energy =                       -247.0015262354714309
  Basis Set: 6-31G*
  Basis Set:
  @DF-RHF Final Energy:  -247.00155229083768
    Total Energy =                       -247.0015522908379353
  Basis Set: 6-31G*
  Basis Set:
  Basis Set: 6-31G*
  Basis Set:
  @DF-RHF Final Energy:  -247.00156579092027
    Total Energy =                       -247.0015657909200968
  Basis Set: 6-31G*
  Basis Set:
  Basis Set: 6-31G*
  Basis Set:
  @DF-RHF Final Energy:  -247.00156893095064
    Total Energy =                       -247.0015689309506115
  Basis Set: 6-31G*
  Basis Set:
  Charge       = 0
  Multiplicity = 1
  Basis Set: 6-31G*
  Basis Set:

    Orbital Energies (a.u.)
    -----------------------

    Doubly Occupied:

       1A    -20.518290     2A    -15.579040     3A    -11.343933
       4A    -11.271047     5A    -11.229967     6A     -1.386527
       7A     -1.228764     8A     -1.005814     9A     -0.955902
      10A     -0.780375    11A     -0.673536    12A     -0.667332
      13A     -0.639812    14A     -0.587297    15A     -0.577119
      16A     -0.561506    17A     -0.555320    18A     -0.514208
      19A     -0.414588    20A     -0.385588

  @DF-RHF Final Energy:  -247.00156952921751

   => Energetics <=

    Nuclear Repulsion Energy =            181.3256404646570843
    One-Electron Energy =                -694.9024951193994184
    Two-Electron Energy =                 266.5752851255249993
    DFT Exchange-Correlation Energy =       0.0000000000000000
    Empirical Dispersion Energy =           0.0000000000000000
    PCM Polarization Energy =               0.0000000000000000
    EFP Energy =                            0.0000000000000000
    Total Energy =                       -247.0015695292173064
    Molecular point group: c1
  Basis Set: 6-31G*
  Basis Set:

  -Total Gradient:
     Atom            X                  Y                   Z
    ------   -----------------  -----------------  -----------------
       1       -0.000014725143    -0.000010783334     0.000013560849
       2        0.000628596834    -0.000673913078    -0.001205652996
       3       -0.000471707532     0.000463739254     0.001158490307
       4        0.000117293815     0.000068007020    -0.001468134576
       5       -0.000000397187    -0.000011548767     0.000010454453
       6       -0.000006025869     0.000015697504    -0.000004033760
       7       -0.000002130643     0.000000944222    -0.000006345382
       8        0.000007926458     0.000009860215    -0.000000317424
       9       -0.000261883004     0.000144251860     0.001493079606
      10        0.000009766068    -0.000003045335     0.000006899223
      11       -0.000004624767    -0.000002836103    -0.000002266165
      12       -0.000002089031    -0.000000373464     0.000004265863

  **** Optimization is complete! (in 17 steps) ****
    Final optimized geometry and variables:
    Molecular point group: c1

    Geometry (in Angstrom), charge = 0, multiplicity = 1:

    H           -1.729490630730     0.152665903070    -0.265266161353
    N           -0.863596891226    -0.336975065266    -0.197133831233
    C           -0.922527015737    -1.686545851066     0.320817149993
    C            0.200037844620     0.510174475873    -0.096147449473
    H           -0.889808826048    -1.727815374509     1.406824465721
    H           -0.111970683671    -2.286500701664    -0.071177809156
    H           -1.849458753451    -2.137195187131    -0.007264418730
    C            1.553132393058    -0.118142964564     0.157788920011
    O            0.064713322671     1.694944093138    -0.223277634171
    H            1.785228686027    -0.863226091163    -0.595512429808
    H            2.297751323173     0.663163952419     0.133852271280
    H            1.579492649034    -0.605475189160     1.127299392538

  Mulliken Charges: (a.u.)
   Center  Symbol    Alpha    Beta     Spin     Total
       1     H     0.30775  0.30775  0.00000  0.38450
       2     N     3.88252  3.88252  0.00000 -0.76503
       3     C     3.14331  3.14331  0.00000 -0.28662
       4     C     2.63490  2.63490  0.00000  0.73021
       5     H     0.41605  0.41605  0.00000  0.16790
       6     H     0.40941  0.40941  0.00000  0.18119
       7     H     0.40659  0.40659  0.00000  0.18682
       8     C     3.29855  3.29855  0.00000 -0.59710
       9     O     4.29711  4.29711  0.00000 -0.59422
      10     H     0.40534  0.40534  0.00000  0.18932
      11     H     0.39110  0.39110  0.00000  0.21779
      12     H     0.40737  0.40737  0.00000  0.18525

   Total alpha = 20.00000, Total beta = 20.00000, Total charge = -0.00000
