                              Psi4 1.0.54 Driver

  ==> Input File <==

--------------------------------------------------------------------------
set {
	reference rhf
	basis cc-pvtz
}

set_num_threads( 4 )
memory 2 gb

molecule MOL {
0 1

H	 3.889604	 0.356866	 -0.089510
N	 3.091268	 -0.241216	 -0.065538
C	 1.860978	 0.530248	 0.016256
H	 3.192566	 -0.835836	 0.730398
C	 0.644130	 -0.381765	 -0.031064
H	 1.835721	 1.204666	 -0.833114
H	 1.808789	 1.151975	 0.911067
C	 -0.678115	 0.376691	 0.025731
H	 0.693998	 -0.977147	 -0.936845
H	 0.693309	 -1.082142	 0.800523
C	 -0.571393	 1.725415	 0.731958
H	 -1.421115	 -0.233651	 0.534049
H	 -1.052038	 0.531689	 -0.983739
C	 -1.896624	 2.477610	 0.792295
H	 -0.197515	 1.572812	 1.740531
H	 0.167717	 2.338705	 0.223664
H	 -2.647925	 1.904666	 1.325702
H	 -1.785778	 3.429273	 1.299300
H	 -2.279957	 2.676185	 -0.203175

	symmetry c1
}
set optking {
	frozen_dihedral = ("
		12 8 5 9
	")
}

ee,wfn = optimize('scf', return_wfn=True)
oeprop( wfn, 'DIPOLE', 'QUADRUPOLE', 'MULLIKEN_CHARGES')
f=open( 'psi4out.xyz', 'w' )
f.write( "19  " )
f.write( str(ee) + "\n" )
f.write( MOL.save_string_xyz() )
f.close()
--------------------------------------------------------------------------

    Molecular point group: c1
  Charge       = 0
  Multiplicity = 1
  Basis Set: CC-PVTZ
  Basis Set:
  @DF-RHF Final Energy:  -251.43816402651410
    Total Energy =                       -251.4381640265139595
    Molecular point group: c1
  Basis Set: CC-PVTZ
  Basis Set:
  Basis Set: CC-PVTZ
  Basis Set:
  @DF-RHF Final Energy:  -251.43818354451525
    Total Energy =                       -251.4381835445152547
  Basis Set: CC-PVTZ
  Basis Set:
  Basis Set: CC-PVTZ
  Basis Set:
  @DF-RHF Final Energy:  -251.44104417363306
    Total Energy =                       -251.4410441736329744
  Basis Set: CC-PVTZ
  Basis Set:
  Basis Set: CC-PVTZ
  Basis Set:
  @DF-RHF Final Energy:  -251.44134399537734
    Total Energy =                       -251.4413439953773945
  Basis Set: CC-PVTZ
  Basis Set:
  Basis Set: CC-PVTZ
  Basis Set:
  @DF-RHF Final Energy:  -251.44136574959330
    Total Energy =                       -251.4413657495932739
  Basis Set: CC-PVTZ
  Basis Set:
  Basis Set: CC-PVTZ
  Basis Set:
  @DF-RHF Final Energy:  -251.44137871807007
    Total Energy =                       -251.4413787180702116
  Basis Set: CC-PVTZ
  Basis Set:
  Basis Set: CC-PVTZ
  Basis Set:
  @DF-RHF Final Energy:  -251.44138183238215
    Total Energy =                       -251.4413818323822625
  Basis Set: CC-PVTZ
  Basis Set:
  Charge       = 0
  Multiplicity = 1
  Basis Set: CC-PVTZ
  Basis Set:

    Orbital Energies (a.u.)
    -----------------------

    Doubly Occupied:

       1A    -15.525878     2A    -11.236971     3A    -11.212482
       4A    -11.211272     5A    -11.208403     6A    -11.205898
       7A     -1.177754     8A     -1.072268     9A     -0.996152
      10A     -0.899752    11A     -0.834691    12A     -0.769677
      13A     -0.658729    14A     -0.644376    15A     -0.626248
      16A     -0.585801    17A     -0.572238    18A     -0.544465
      19A     -0.528476    20A     -0.504958    21A     -0.489357
      22A     -0.461362    23A     -0.452996    24A     -0.448396
      25A     -0.383092

  @DF-RHF Final Energy:  -251.44138210675183

   => Energetics <=

    Nuclear Repulsion Energy =            250.0333949231084318
    One-Electron Energy =                -834.4461738470681667
    Two-Electron Energy =                 332.9713968172077898
    DFT Exchange-Correlation Energy =       0.0000000000000000
    Empirical Dispersion Energy =           0.0000000000000000
    PCM Polarization Energy =               0.0000000000000000
    EFP Energy =                            0.0000000000000000
    Total Energy =                       -251.4413821067519734
    Molecular point group: c1
  Basis Set: CC-PVTZ
  Basis Set:

  -Total Gradient:
     Atom            X                  Y                   Z
    ------   -----------------  -----------------  -----------------
       1       -0.000002454535    -0.000001464556    -0.000007921941
       2        0.000004109876    -0.000002846046    -0.000012005999
       3       -0.000006089499    -0.000015276938     0.000022403630
       4        0.000000588495     0.000003299479     0.000003294998
       5       -0.003038385456    -0.005039634252     0.004801217195
       6       -0.000003375399     0.000005281954     0.000004537828
       7       -0.000008360234    -0.000011379387    -0.000005800952
       8       -0.001164650453    -0.002039827697    -0.007164027960
       9        0.002765062786     0.004575311713    -0.002957853240
      10        0.000006599354    -0.000003713243     0.000001141173
      11       -0.000021731043    -0.000032515867     0.000035399154
      12        0.001468938898     0.002567463317     0.005309593888
      13       -0.000014422676    -0.000004708745    -0.000004897558
      14        0.000001829648     0.000002965504    -0.000012382687
      15       -0.000002535157     0.000007431203     0.000001489450
      16        0.000005488858    -0.000011903909    -0.000008975387
      17        0.000011141345     0.000002535833    -0.000001732543
      18        0.000002549717    -0.000000243977    -0.000002885131
      19       -0.000004304530    -0.000000774387    -0.000000593919

  **** Optimization is complete! (in 8 steps) ****
    Final optimized geometry and variables:
    Molecular point group: c1

    Geometry (in Angstrom), charge = 0, multiplicity = 1:

    H            3.513890152184    -0.578902435828    -0.404325130741
    N            2.672182530141    -1.114163152730    -0.373994902156
    C            1.509983307692    -0.251113777201    -0.219753025327
    H            2.752475459011    -1.742935580113     0.398028673275
    C            0.235721744565    -1.091206810874    -0.212484973771
    H            1.490731574415     0.428364095239    -1.065648686946
    H            1.562995200662     0.362811889549     0.676639928291
    C           -1.087721730177    -0.302819716007    -0.224659426424
    H            0.290203167519    -1.702385467128    -1.105604985816
    H            0.263954332370    -1.757061152876     0.645282592962
    C           -1.077699257591     1.049729806140     0.493068622928
    H           -1.843264559635    -0.902903297279     0.273328946879
    H           -1.415155876145    -0.152139993108    -1.248157110564
    C           -2.453543060218     1.708679441075     0.498762356437
    H           -0.742355413846     0.916494715784     1.518073188168
    H           -0.367727792066     1.721801587319     0.023492723320
    H           -3.185100713735     1.085679754894     1.002582540221
    H           -2.428682697273     2.666005776570     1.006797335925
    H           -2.808800262135     1.880240622324    -0.512070291885

  Mulliken Charges: (a.u.)
   Center  Symbol    Alpha    Beta     Spin     Total
       1     H     0.43009  0.43009  0.00000  0.13983
       2     N     3.69182  3.69182  0.00000 -0.38365
       3     C     3.02787  3.02787  0.00000 -0.05575
       4     H     0.43105  0.43105  0.00000  0.13790
       5     C     3.09118  3.09118  0.00000 -0.18235
       6     H     0.45573  0.45573  0.00000  0.08853
       7     H     0.46366  0.46366  0.00000  0.07269
       8     C     3.09633  3.09633  0.00000 -0.19266
       9     H     0.44528  0.44528  0.00000  0.10944
      10     H     0.45726  0.45726  0.00000  0.08547
      11     C     3.09237  3.09237  0.00000 -0.18474
      12     H     0.45204  0.45204  0.00000  0.09592
      13     H     0.45060  0.45060  0.00000  0.09880
      14     C     3.15044  3.15044  0.00000 -0.30088
      15     H     0.45368  0.45368  0.00000  0.09263
      16     H     0.45197  0.45197  0.00000  0.09605
      17     H     0.45498  0.45498  0.00000  0.09005
      18     H     0.44854  0.44854  0.00000  0.10292
      19     H     0.45510  0.45510  0.00000  0.08979

   Total alpha = 25.00000, Total beta = 25.00000, Total charge =  0.00000

*** Psi4 exiting successfully. Buy a developer a beer!
