  ==> Input File <==

--------------------------------------------------------------------------
set {
	reference rhf
	basis 6-31G*
}

set_num_threads( 4 )
memory 2 gb

molecule MOL {
0 1

H	 0.769797	 -2.736789	 2.059114
O	 0.765876	 -2.258703	 1.235582
C	 -0.236672	 -1.381626	 1.271116
C	 -0.318135	 -0.576402	 0.000164
O	 -0.955168	 -1.280320	 2.211593
C	 -1.454360	 0.441875	 -0.000474
H	 0.644951	 -0.092684	 -0.139426
H	 -0.417967	 -1.279040	 -0.822841
C	 -2.826123	 -0.230780	 0.000056
H	 -1.357605	 1.085198	 -0.868380
H	 -1.357504	 1.086451	 0.866496
H	 -2.959731	 -0.858053	 -0.876869
H	 -3.619374	 0.509403	 -0.000080
H	 -2.959371	 -0.857318	 0.877556

	symmetry c1
}
set optking {
	frozen_dihedral = ("
		7 4 6 10
	")
}

ee = optimize('scf')
oeprop('DIPOLE', 'QUADRUPOLE', 'MULLIKEN_CHARGES')
f=open( 'psi4out.xyz', 'w' )
f.write( "14  " )
f.write( str(ee) + "\n" )
f.write( MOL.save_string_xyz() )
f.close()
--------------------------------------------------------------------------

    Molecular point group: c1
  Charge       = 0
  Multiplicity = 1
  Basis Set: 6-31G*
  Basis Set:
  @DF-RHF Final Energy:  -305.87950471329464
    Total Energy =                       -305.8795047132945797
    Molecular point group: c1
  Basis Set: 6-31G*
  Basis Set:
  Basis Set: 6-31G*
  Basis Set:
  @DF-RHF Final Energy:  -305.88014906846684
    Total Energy =                       -305.8801490684667215
  Basis Set: 6-31G*
  Basis Set:
  Basis Set: 6-31G*
  Basis Set:
  @DF-RHF Final Energy:  -305.88011300102693
    Total Energy =                       -305.8801130010268707
  Basis Set: 6-31G*
  Basis Set:
  Basis Set: 6-31G*
  Basis Set:
  @DF-RHF Final Energy:  -305.88033388862851
    Total Energy =                       -305.8803338886285701
  Basis Set: 6-31G*
  Basis Set:
  @DF-RHF Final Energy:  -305.88039586260794
    Total Energy =                       -305.8803958626079975
  @DF-RHF Final Energy:  -305.88040830819898
    Total Energy =                       -305.8804083081991507
  Basis Set: 6-31G*
  Basis Set:
  @DF-RHF Final Energy:  -305.88041729276176
    Total Energy =                       -305.8804172927619334
  Basis Set: 6-31G*
  Basis Set:
  Basis Set: 6-31G*
  Basis Set:
  @DF-RHF Final Energy:  -305.88043468330477
    Total Energy =                       -305.8804346833046566
  Basis Set: 6-31G*
  Basis Set:
  Basis Set: 6-31G*
  Basis Set:
  @DF-RHF Final Energy:  -305.88043905630116
    Total Energy =                       -305.8804390563013840
  Basis Set: 6-31G*
  Basis Set:
  Charge       = 0
  Multiplicity = 1
  Basis Set: 6-31G*
  Basis Set:

    Orbital Energies (a.u.)
    -----------------------

    Doubly Occupied:

       1A    -20.614040     2A    -20.552676     3A    -11.382549
       4A    -11.241531     5A    -11.226251     6A    -11.210338
       7A     -1.476087     8A     -1.366831     9A     -1.081551
      10A     -0.975890    11A     -0.861168    12A     -0.786983
      13A     -0.702394    14A     -0.691907    15A     -0.659596
      16A     -0.611976    17A     -0.594931    18A     -0.565988
      19A     -0.556790    20A     -0.496212    21A     -0.489842
      22A     -0.485763    23A     -0.477069    24A     -0.443203

  @DF-RHF Final Energy:  -305.88043909094608

   => Energetics <=

    Nuclear Repulsion Energy =            244.6073183600067296
    One-Electron Energy =                -901.8723846773136756
    Two-Electron Energy =                 351.3846272263605215
    DFT Exchange-Correlation Energy =       0.0000000000000000
    Empirical Dispersion Energy =           0.0000000000000000
    PCM Polarization Energy =               0.0000000000000000
    EFP Energy =                            0.0000000000000000
    Total Energy =                       -305.8804390909464246
    Molecular point group: c1
  Basis Set: 6-31G*
  Basis Set:

  -Total Gradient:
     Atom            X                  Y                   Z
    ------   -----------------  -----------------  -----------------
       1       -0.000002556998    -0.000003552098    -0.000001598660
       2        0.000005670987    -0.000001507783     0.000002781564
       3       -0.000004658272     0.000007271299     0.000004546994
       4       -0.000101708484    -0.000108761315    -0.000553384002
       5        0.000002954786    -0.000001702618    -0.000007447373
       6        0.000278227244     0.000325200324     0.000363031306
       7        0.000035057097     0.000040583777     0.000404800825
       8        0.000003922842    -0.000001299019     0.000000688245
       9        0.000003778664     0.000000639437    -0.000002095931
      10       -0.000221093462    -0.000255742391    -0.000216353297
      11       -0.000001658673    -0.000000118256    -0.000000175160
      12        0.000000630232     0.000000263612     0.000001497353
      13        0.000000551106     0.000000356275     0.000000077446
      14        0.000000882924    -0.000001631241     0.000003630687

  **** Optimization is complete! (in 10 steps) ****
    Final optimized geometry and variables:
    Molecular point group: c1

    Geometry (in Angstrom), charge = 0, multiplicity = 1:

    H            1.535512492297    -1.899689052387     1.188933704865
    O            1.473427523841    -1.456926984618     0.348074456125
    C            0.613840116575    -0.447358223099     0.474675324724
    C            0.487185614213     0.341256600483    -0.804824792853
    O            0.057838331764    -0.216840218190     1.499355171255
    C           -0.674811472069     1.333240012191    -0.810235834772
    H            1.434980113210     0.859469510220    -0.930882710359
    H            0.416498858185    -0.360653569659    -1.629410796447
    C           -2.048930002441     0.664537751825    -0.852896202125
    H           -0.562522790676     1.973871890115    -1.680372075237
    H           -0.603616138291     1.970122031222     0.064081400694
    H           -2.150907068510     0.036747848879    -1.734353052278
    H           -2.836252759037     1.410581719789    -0.888043957043
    H           -2.214594685050     0.049586012637     0.023660051361

  Mulliken Charges: (a.u.)
   Center  Symbol    Alpha    Beta     Spin     Total
       1     H     0.26777  0.26777  0.00000  0.46445
       2     O     4.35015  4.35015  0.00000 -0.70030
       3     C     2.62389  2.62389  0.00000  0.75223
       4     C     3.21040  3.21040  0.00000 -0.42080
       5     O     4.28047  4.28047  0.00000 -0.56094
       6     C     3.15389  3.15389  0.00000 -0.30778
       7     H     0.39607  0.39607  0.00000  0.20786
       8     H     0.39914  0.39914  0.00000  0.20172
       9     C     3.24668  3.24668  0.00000 -0.49337
      10     H     0.41761  0.41761  0.00000  0.16479
      11     H     0.40658  0.40658  0.00000  0.18684
      12     H     0.42407  0.42407  0.00000  0.15185
      13     H     0.41694  0.41694  0.00000  0.16611
      14     H     0.40633  0.40633  0.00000  0.18734

   Total alpha = 24.00000, Total beta = 24.00000, Total charge = -0.00000
