                              Psi4 1.0.54 Driver

  ==> Input File <==

--------------------------------------------------------------------------
set {
	reference rhf
	basis cc-pvtz
}

set_num_threads( 4 )
memory 2 gb

molecule MOL {
0 1

H	 -3.204295	 1.211568	 -1.086069
O	 -3.458596	 0.315260	 -0.960865
C	 -3.176635	 -0.080824	 0.355601
C	 -1.763371	 0.265266	 0.799691
H	 -3.321825	 -1.153438	 0.379502
H	 -3.895468	 0.357385	 1.043382
C	 -0.673390	 -0.426948	 -0.013392
H	 -1.631049	 1.344913	 0.747560
H	 -1.664587	 -0.001624	 1.849167
C	 0.737842	 -0.043159	 0.423759
H	 -0.806103	 -0.190518	 -1.063345
H	 -0.797221	 -1.503753	 0.074146
C	 1.824000	 -0.743224	 -0.390623
H	 0.850588	 1.033777	 0.343840
H	 0.868587	 -0.286314	 1.476203
C	 3.255957	 -0.453067	 0.062319
H	 1.718250	 -0.470599	 -1.438164
H	 1.658105	 -1.815850	 -0.339904
C	 3.707029	 0.992337	 -0.133857
H	 3.928201	 -1.104096	 -0.488158
H	 3.362667	 -0.724561	 1.109374
H	 3.605811	 1.294044	 -1.171549
H	 4.748333	 1.111029	 0.143343
H	 3.129882	 1.683078	 0.468956

	symmetry c1
}
set optking {
	frozen_dihedral = ("
		1 2 3 5
	")
}

ee,wfn = optimize('scf', return_wfn=True)
oeprop( wfn, 'DIPOLE', 'QUADRUPOLE', 'MULLIKEN_CHARGES')
f=open( 'psi4out.xyz', 'w' )
f.write( "24  " )
f.write( str(ee) + "\n" )
f.write( MOL.save_string_xyz() )
f.close()
--------------------------------------------------------------------------

    Molecular point group: c1
  Charge       = 0
  Multiplicity = 1
  Basis Set: CC-PVTZ
  Basis Set:
  @DF-RHF Final Energy:  -349.38009329445470
    Total Energy =                       -349.3800932944545252
    Molecular point group: c1
  Basis Set: CC-PVTZ
  Basis Set:
  Basis Set: CC-PVTZ
  Basis Set:
  @DF-RHF Final Energy:  -349.38010397299894
    Total Energy =                       -349.3801039729986542
  Basis Set: CC-PVTZ
  Basis Set:
  Basis Set: CC-PVTZ
  Basis Set:
  @DF-RHF Final Energy:  -349.38010608153894
    Total Energy =                       -349.3801060815392248
  Basis Set: CC-PVTZ
  Basis Set:
  Charge       = 0
  Multiplicity = 1
  Basis Set: CC-PVTZ
  Basis Set:

    Orbital Energies (a.u.)
    -----------------------

    Doubly Occupied:

       1A    -20.545696     2A    -11.265218     3A    -11.217498
       4A    -11.213102     5A    -11.211908     6A    -11.211282
       7A    -11.210713     8A    -11.206212     9A     -1.363744
      10A     -1.091398    11A     -1.050599    12A     -0.987679
      13A     -0.917182    14A     -0.852954    15A     -0.803511
      16A     -0.777980    17A     -0.674790    18A     -0.656204
      19A     -0.630005    20A     -0.623817    21A     -0.601873
      22A     -0.586959    23A     -0.559281    24A     -0.542099
      25A     -0.516620    26A     -0.512415    27A     -0.499783
      28A     -0.474001    29A     -0.467619    30A     -0.464082
      31A     -0.456001    32A     -0.453241    33A     -0.422264

  @DF-RHF Final Energy:  -349.38010665726188

   => Energetics <=

    Nuclear Repulsion Energy =            385.0116547734342021
    One-Electron Energy =               -1236.6480494940574317
    Two-Electron Energy =                 502.2562880633612394
    DFT Exchange-Correlation Energy =       0.0000000000000000
    Empirical Dispersion Energy =           0.0000000000000000
    PCM Polarization Energy =               0.0000000000000000
    EFP Energy =                            0.0000000000000000
    Total Energy =                       -349.3801066572619902
    Molecular point group: c1
  Basis Set: CC-PVTZ
  Basis Set:

  -Total Gradient:
     Atom            X                  Y                   Z
    ------   -----------------  -----------------  -----------------
       1        0.001269513087    -0.000398815534    -0.000390711319
       2       -0.001317123795     0.000459607693     0.000427691114
       3       -0.001085512696     0.000054690873     0.000278712767
       4       -0.000011792896     0.000010504586    -0.000004557856
       5        0.001128102795    -0.000162661437    -0.000302451516
       6        0.000013111270     0.000014960001    -0.000012126033
       7        0.000000089627    -0.000005572808    -0.000004840503
       8        0.000016653861     0.000018720772     0.000008949204
       9        0.000008070503     0.000001255134    -0.000014852422
      10       -0.000003885262     0.000006116504     0.000011392908
      11       -0.000007741508     0.000004252355    -0.000003190014
      12       -0.000002952474     0.000001740258     0.000002152270
      13       -0.000006169748    -0.000010042752     0.000004566541
      14        0.000003925326     0.000003235674    -0.000000025409
      15        0.000004238785     0.000002265195     0.000001204677
      16        0.000001490154    -0.000000706672    -0.000005370654
      17        0.000000678962    -0.000000708053     0.000001122779
      18       -0.000001885530    -0.000001366769     0.000000693568
      19       -0.000002990525     0.000001068415     0.000002354087
      20       -0.000001488379     0.000000851953    -0.000001910507
      21        0.000001019873    -0.000001027354    -0.000002080323
      22        0.000001578039    -0.000001899672     0.000000638095
      23       -0.000001246655     0.000000701883     0.000002154384
      24       -0.000005682817     0.000002829758     0.000000484157

  **** Optimization is complete! (in 4 steps) ****
    Final optimized geometry and variables:
    Molecular point group: c1

    Geometry (in Angstrom), charge = 0, multiplicity = 1:

    H           -3.218118238589     1.222499439942    -1.095894364313
    O           -3.465762064062     0.324102136520    -0.971562946674
    C           -3.180607114178    -0.072136578981     0.343908578143
    C           -1.766825842354     0.273578500186     0.787332716133
    H           -3.317966241250    -1.145903432427     0.366458696674
    H           -3.898207276714     0.366720336515     1.032298455614
    C           -0.674615288098    -0.422037103892    -0.020521745663
    H           -1.633007076378     1.353529284701     0.734450178318
    H           -1.669786094139     0.010176594579     1.837459677022
    C            0.735509571517    -0.043780545770     0.425142132657
    H           -0.798453202336    -0.186422007659    -1.072101182225
    H           -0.803476945539    -1.498160236722     0.065748368990
    C            1.823878274163    -0.748967196122    -0.381892380953
    H            0.853406314168     1.032637341645     0.345591337768
    H            0.858261770672    -0.286906035930     1.478493101168
    C            3.254167408665    -0.463552722782     0.079336100224
    H            1.725529992339    -0.477328510839    -1.430438891934
    H            1.653574383999    -1.820858720860    -0.330838555305
    C            3.711259144984     0.980345069174    -0.114086559635
    H            3.927294046169    -1.116792646998    -0.467366770786
    H            3.353965824773    -0.735614335241     1.126907352155
    H            3.615972497711     1.282913548150    -1.152091941285
    H            4.751664706848     1.095178307444     0.167943262122
    H            3.133936539976     1.672937639266     0.486443287350

  Mulliken Charges: (a.u.)
   Center  Symbol    Alpha    Beta     Spin     Total
       1     H     0.39493  0.39493  0.00000  0.21014
       2     O     4.20456  4.20456  0.00000 -0.40913
       3     C     2.97069  2.97069  0.00000  0.05863
       4     C     3.10868  3.10868  0.00000 -0.21736
       5     H     0.46110  0.46110  0.00000  0.07780
       6     H     0.46159  0.46159  0.00000  0.07682
       7     C     3.08601  3.08601  0.00000 -0.17201
       8     H     0.45852  0.45852  0.00000  0.08297
       9     H     0.45158  0.45158  0.00000  0.09684
      10     C     3.09180  3.09180  0.00000 -0.18361
      11     H     0.44785  0.44785  0.00000  0.10430
      12     H     0.45407  0.45407  0.00000  0.09186
      13     C     3.09474  3.09474  0.00000 -0.18947
      14     H     0.45340  0.45340  0.00000  0.09320
      15     H     0.45569  0.45569  0.00000  0.08862
      16     C     3.09019  3.09019  0.00000 -0.18038
      17     H     0.45360  0.45360  0.00000  0.09280
      18     H     0.44944  0.44944  0.00000  0.10112
      19     C     3.15259  3.15259  0.00000 -0.30518
      20     H     0.44841  0.44841  0.00000  0.10317
      21     H     0.45505  0.45505  0.00000  0.08991
      22     H     0.45486  0.45486  0.00000  0.09029
      23     H     0.44641  0.44641  0.00000  0.10718
      24     H     0.45424  0.45424  0.00000  0.09151

   Total alpha = 33.00000, Total beta = 33.00000, Total charge = -0.00000

*** Psi4 exiting successfully. Buy a developer a beer!
