                              Psi4 1.0.54 Driver

  ==> Input File <==

--------------------------------------------------------------------------
set {
	reference rhf
	basis cc-pvtz
}

set_num_threads( 4 )
memory 2 gb

molecule MOL {
0 1

H	 -1.417814	 2.246494	 3.823059
O	 -0.727701	 1.677545	 3.536291
C	 -0.871761	 1.394459	 2.169716
C	 0.256994	 0.476682	 1.745781
H	 -1.830023	 0.915751	 1.979069
H	 -0.842216	 2.312004	 1.585705
C	 0.196029	 0.106276	 0.266738
H	 0.218453	 -0.420072	 2.356164
H	 1.199867	 0.965397	 1.969533
C	 1.330220	 -0.826136	 -0.155230
H	 -0.762233	 -0.358152	 0.055183
H	 0.237519	 1.011288	 -0.335602
C	 2.719700	 -0.407669	 0.328325
H	 1.339388	 -0.911200	 -1.239363
H	 1.119001	 -1.821953	 0.224128
C	 3.241564	 0.893452	 -0.276737
H	 3.418299	 -1.204729	 0.093035
H	 2.711776	 -0.323368	 1.411960
H	 3.254204	 0.841071	 -1.360784
H	 2.634460	 1.745075	 0.005842
H	 4.254264	 1.092401	 0.054971

	symmetry c1
}
set optking {
	frozen_dihedral = ("
		4 7 10 14
	")
}

ee,wfn = optimize('scf', return_wfn=True)
oeprop( wfn, 'DIPOLE', 'QUADRUPOLE', 'MULLIKEN_CHARGES')
f=open( 'psi4out.xyz', 'w' )
f.write( "21  " )
f.write( str(ee) + "\n" )
f.write( MOL.save_string_xyz() )
f.close()
--------------------------------------------------------------------------

    Molecular point group: c1
  Charge       = 0
  Multiplicity = 1
  Basis Set: CC-PVTZ
  Basis Set:
  @DF-RHF Final Energy:  -310.32915472572574
    Total Energy =                       -310.3291547257252887
    Molecular point group: c1
  Basis Set: CC-PVTZ
  Basis Set:
  Basis Set: CC-PVTZ
  Basis Set:
  @DF-RHF Final Energy:  -310.31834042457757
    Total Energy =                       -310.3183404245779116
  Basis Set: CC-PVTZ
  Basis Set:
  Basis Set: CC-PVTZ
  Basis Set:
  @DF-RHF Final Energy:  -310.33006415049539
    Total Energy =                       -310.3300641504953319
  Basis Set: CC-PVTZ
  Basis Set:
  Basis Set: CC-PVTZ
  Basis Set:
  @DF-RHF Final Energy:  -310.33054572460338
    Total Energy =                       -310.3305457246032688
  Basis Set: CC-PVTZ
  Basis Set:
  Basis Set: CC-PVTZ
  Basis Set:
  @DF-RHF Final Energy:  -310.33060925501650
    Total Energy =                       -310.3306092550164408
  Basis Set: CC-PVTZ
  Basis Set:
  Basis Set: CC-PVTZ
  Basis Set:
  @DF-RHF Final Energy:  -310.33061304785298
    Total Energy =                       -310.3306130478530918
  Basis Set: CC-PVTZ
  Basis Set:
  Charge       = 0
  Multiplicity = 1
  Basis Set: CC-PVTZ
  Basis Set:

    Orbital Energies (a.u.)
    -----------------------

    Doubly Occupied:

       1A    -20.545550     2A    -11.265172     3A    -11.213660
       4A    -11.211905     5A    -11.210857     6A    -11.208824
       7A    -11.205120     8A     -1.363416     9A     -1.087174
      10A     -1.030696    11A     -0.956779    12A     -0.875956
      13A     -0.820414    14A     -0.763886    15A     -0.693239
      16A     -0.661853    17A     -0.628667    18A     -0.617793
      19A     -0.574393    20A     -0.562012    21A     -0.551916
      22A     -0.527635    23A     -0.502407    24A     -0.493379
      25A     -0.479671    26A     -0.455635    27A     -0.449102
      28A     -0.447404    29A     -0.437724

  @DF-RHF Final Energy:  -310.33061367417292

   => Energetics <=

    Nuclear Repulsion Energy =            320.0834284532344327
    One-Electron Energy =               -1055.1436167380827555
    Two-Electron Energy =                 424.7295746106756269
    DFT Exchange-Correlation Energy =       0.0000000000000000
    Empirical Dispersion Energy =           0.0000000000000000
    PCM Polarization Energy =               0.0000000000000000
    EFP Energy =                            0.0000000000000000
    Total Energy =                       -310.3306136741726959
    Molecular point group: c1
  Basis Set: CC-PVTZ
  Basis Set:

  -Total Gradient:
     Atom            X                  Y                   Z
    ------   -----------------  -----------------  -----------------
       1       -0.000009636984     0.000005847528    -0.000004569285
       2        0.000017012191    -0.000006709896     0.000007425001
       3       -0.000005011716     0.000010680809     0.000009923124
       4        0.001149710736     0.002387569049    -0.001050584240
       5       -0.000001894299    -0.000013920091    -0.000001192976
       6        0.000003877078     0.000003084771    -0.000009300315
       7       -0.001259859381    -0.002679965278     0.001323768023
       8       -0.000007040658    -0.000004284435     0.000014247239
       9        0.000008828219     0.000011342795     0.000004810007
      10       -0.001649995926    -0.002993096185     0.000520671456
      11       -0.000001800697    -0.000005183257    -0.000003866029
      12        0.000004887833     0.000000858119    -0.000010025526
      13        0.000021297822     0.000001429134     0.000014342940
      14        0.001764659518     0.003297809736    -0.000795691296
      15       -0.000001435381     0.000000678341     0.000004413341
      16       -0.000023424320    -0.000011316360    -0.000025085025
      17       -0.000014847878     0.000003785844     0.000002631188
      18        0.000001469763    -0.000014892190    -0.000011573360
      19        0.000007922051     0.000013114013     0.000008823555
      20        0.000003059908    -0.000002143442    -0.000007800866
      21       -0.000007777881    -0.000004689004     0.000008633047

  **** Optimization is complete! (in 7 steps) ****
    Final optimized geometry and variables:
    Molecular point group: c1

    Geometry (in Angstrom), charge = 0, multiplicity = 1:

    H           -2.685400047842     1.591839217581     2.450812670447
    O           -1.857366030286     1.203201980116     2.237576343045
    C           -1.913373792549     0.614742690372     0.965168167972
    C           -0.562032183934     0.001180998403     0.657679743722
    H           -2.684722145488    -0.151703198320     0.933781836542
    H           -2.161324987404     1.359823615231     0.211819109693
    C           -0.517388044118    -0.635560486630    -0.729497037018
    H           -0.340047400738    -0.739120569649     1.420798015373
    H            0.188065723807     0.777031634348     0.748963956604
    C            0.770571244651    -1.402770345529    -1.053898038956
    H           -1.353128159303    -1.321054745650    -0.839116954043
    H           -0.670972826395     0.140452813083    -1.474407613835
    C            2.086259370734    -0.669273880005    -0.775544944037
    H            0.757271070489    -1.650846525491    -2.111843471287
    H            0.774020399615    -2.339957980353    -0.505750253577
    C            2.283391156225     0.600583313214    -1.599763956909
    H            2.900883412546    -1.353736823319    -0.991865863239
    H            2.168368763093    -0.433643312006     0.279933496637
    H            2.225633684269     0.387739098770    -2.662518797160
    H            1.535325743558     1.351484029705    -1.374172782380
    H            3.254719185868     1.040249165171    -1.404389947897

  Mulliken Charges: (a.u.)
   Center  Symbol    Alpha    Beta     Spin     Total
       1     H     0.39749  0.39749  0.00000  0.20501
       2     O     4.19493  4.19493  0.00000 -0.38986
       3     C     2.96497  2.96497  0.00000  0.07007
       4     C     3.08865  3.08865  0.00000 -0.17731
       5     H     0.47304  0.47304  0.00000  0.05391
       6     H     0.47490  0.47490  0.00000  0.05021
       7     C     3.11676  3.11676  0.00000 -0.23352
       8     H     0.44941  0.44941  0.00000  0.10119
       9     H     0.44830  0.44830  0.00000  0.10339
      10     C     3.09807  3.09807  0.00000 -0.19614
      11     H     0.44510  0.44510  0.00000  0.10980
      12     H     0.45128  0.45128  0.00000  0.09744
      13     C     3.09955  3.09955  0.00000 -0.19909
      14     H     0.44984  0.44984  0.00000  0.10032
      15     H     0.44739  0.44739  0.00000  0.10522
      16     C     3.15177  3.15177  0.00000 -0.30355
      17     H     0.44457  0.44457  0.00000  0.11086
      18     H     0.44922  0.44922  0.00000  0.10156
      19     H     0.45445  0.45445  0.00000  0.09109
      20     H     0.45427  0.45427  0.00000  0.09146
      21     H     0.44604  0.44604  0.00000  0.10792

   Total alpha = 29.00000, Total beta = 29.00000, Total charge = -0.00000

*** Psi4 exiting successfully. Buy a developer a beer!
