  ==> Input File <==

--------------------------------------------------------------------------
set {
	reference rhf
	basis 6-31G*
}

set_num_threads( 1 )
memory 2 gb

molecule MOL {
0 1

H	 2.087597	 -3.623424	 -0.916819
C	 2.264624	 -2.644346	 -0.483439
C	 1.010706	 -1.774330	 -0.559107
H	 2.578602	 -2.791650	 0.546098
H	 3.093558	 -2.191175	 -1.019865
C	 1.217350	 -0.386724	 0.039429
H	 0.188327	 -2.256022	 -0.039439
H	 0.704174	 -1.674451	 -1.599037
N	 0.000003	 0.397874	 -0.023260
H	 1.497975	 -0.485373	 1.084648
H	 2.057334	 0.106635	 -0.460973
C	 -1.217365	 -0.386708	 0.039277
H	 -0.000031	 1.072115	 0.718656
C	 -2.452633	 0.504241	 -0.042481
H	 -1.215291	 -1.074557	 -0.802042
H	 -1.269739	 -1.003477	 0.942735
C	 -3.758029	 -0.289423	 -0.010781
H	 -2.394220	 1.093569	 -0.952170
H	 -2.440793	 1.210787	 0.785871
H	 -3.816659	 -0.981993	 -0.845726
H	 -4.617837	 0.370165	 -0.069296
H	 -3.847478	 -0.867502	 0.904682

	symmetry c1
}
set optking {
	frozen_dihedral = ("
		15 12 14 18
	")
}

ee = energy('scf')
oeprop('DIPOLE', 'QUADRUPOLE', 'MULLIKEN_CHARGES')
f=open( 'psi4out.xyz', 'w' )
f.write( "22  " )
f.write( str(ee) + "\n" )
f.write( MOL.save_string_xyz() )
f.close()
--------------------------------------------------------------------------

    Molecular point group: c1

    Geometry (in Angstrom), charge = 0, multiplicity = 1:

       Center              X                  Y                   Z               Mass
    ------------   -----------------  -----------------  -----------------  -----------------
           H          2.509632950777    -2.957338617092    -0.775728918056     1.007825032070
           C          2.686659950777    -1.978260617092    -0.342348918056    12.000000000000
           C          1.432741950777    -1.108244617092    -0.418016918056    12.000000000000
           H          3.000637950777    -2.125564617092     0.687188081944     1.007825032070
           H          3.515593950777    -1.525089617092    -0.878774918056     1.007825032070
           C          1.639385950777     0.279361382908     0.180519081944    12.000000000000
           H          0.610362950777    -1.589936617092     0.101651081944     1.007825032070
           H          1.126209950777    -1.008365617092    -1.457946918056     1.007825032070
           N          0.422038950777     1.063959382908     0.117830081944    14.003074004780
           H          1.920010950777     0.180712382908     1.225738081944     1.007825032070
           H          2.479369950777     0.772720382908    -0.319882918056     1.007825032070
           C         -0.795329049223     0.279377382908     0.180367081944    12.000000000000
           H          0.422004950777     1.738200382908     0.859746081944     1.007825032070
           C         -2.030597049223     1.170326382908     0.098609081944    12.000000000000
           H         -0.793255049223    -0.408471617092    -0.660951918056     1.007825032070
           H         -0.847703049223    -0.337391617092     1.083825081944     1.007825032070
           C         -3.335993049223     0.376662382908     0.130309081944    12.000000000000
           H         -1.972184049223     1.759654382908    -0.811079918056     1.007825032070
           H         -2.018757049223     1.876872382908     0.926961081944     1.007825032070
           H         -3.394623049223    -0.315907617092    -0.704635918056     1.007825032070
           H         -4.195801049223     1.036250382908     0.071794081944     1.007825032070
           H         -3.425442049223    -0.201416617092     1.045772081944     1.007825032070

  Charge       = 0
  Multiplicity = 1
  Basis Set: 6-31G*
  Basis Set:

    Orbital Energies (a.u.)
    -----------------------

    Doubly Occupied:

       1A    -15.530692     2A    -11.238324     3A    -11.236204
       4A    -11.214292     5A    -11.212024     6A    -11.210000
       7A    -11.209150     8A     -1.206780     9A     -1.055033
      10A     -1.027783    11A     -0.928323    12A     -0.880354
      13A     -0.818271    14A     -0.773118    15A     -0.666905
      16A     -0.636915    17A     -0.617570    18A     -0.613629
      19A     -0.569882    20A     -0.558384    21A     -0.547706
      22A     -0.530616    23A     -0.504390    24A     -0.485613
      25A     -0.477390    26A     -0.472913    27A     -0.466949
      28A     -0.454986    29A     -0.351223

  @DF-RHF Final Energy:  -290.36817922330141

   => Energetics <=

    Nuclear Repulsion Energy =            322.0191402259933398
    One-Electron Energy =               -1029.7839022006351115
    Two-Electron Energy =                 417.3965827513405316
    DFT Exchange-Correlation Energy =       0.0000000000000000
    Empirical Dispersion Energy =           0.0000000000000000
    PCM Polarization Energy =               0.0000000000000000
    EFP Energy =                            0.0000000000000000
    Total Energy =                       -290.3681792233011834

  Mulliken Charges: (a.u.)
   Center  Symbol    Alpha    Beta     Spin     Total
       1     H     0.41820  0.41820  0.00000  0.16360
       2     C     3.23995  3.23995  0.00000 -0.47990
       3     C     3.17402  3.17402  0.00000 -0.34803
       4     H     0.42166  0.42166  0.00000  0.15669
       5     H     0.42072  0.42072  0.00000  0.15856
       6     C     3.03973  3.03973  0.00000 -0.07946
       7     H     0.41408  0.41408  0.00000  0.17185
       8     H     0.41541  0.41541  0.00000  0.16918
       9     N     3.85802  3.85802  0.00000 -0.71605
      10     H     0.43526  0.43526  0.00000  0.12949
      11     H     0.42058  0.42058  0.00000  0.15883
      12     C     3.05956  3.05956  0.00000 -0.11912
      13     H     0.33347  0.33347  0.00000  0.33306
      14     C     3.15243  3.15243  0.00000 -0.30487
      15     H     0.41486  0.41486  0.00000  0.17027
      16     H     0.43691  0.43691  0.00000  0.12617
      17     C     3.24324  3.24324  0.00000 -0.48647
      18     H     0.41332  0.41332  0.00000  0.17336
      19     H     0.42755  0.42755  0.00000  0.14489
      20     H     0.42115  0.42115  0.00000  0.15770
      21     H     0.41776  0.41776  0.00000  0.16448
      22     H     0.42212  0.42212  0.00000  0.15577

   Total alpha = 29.00000, Total beta = 29.00000, Total charge = -0.00000
