  ==> Input File <==

--------------------------------------------------------------------------
set {
	reference rhf
	basis cc-pvtz
}

set_num_threads( 4 )
memory 2 gb

molecule MOL {
0 1

H	 -3.162190	 0.493205	 -0.000107
C	 -2.363908	 -0.234727	 0.000005
O	 -1.158738	 0.454634	 -0.000087
H	 -2.464314	 -0.863616	 -0.882153
H	 -2.464327	 -0.863359	 0.882345
C	 -0.028611	 -0.359694	 0.000037
C	 -0.149337	 -1.381299	 -1.112681
H	 0.069937	 -0.862307	 0.962485
H	 0.867780	 0.244772	 -0.140485
C	 1.054161	 -2.314852	 -1.179176
H	 -1.057778	 -1.953281	 -0.959391
H	 -0.266224	 -0.855001	 -2.053584
H	 1.175351	 -2.870139	 -0.255025
H	 0.941691	 -3.033493	 -1.981627
H	 1.972142	 -1.764562	 -1.356826

	symmetry c1
}
set optking {
	frozen_dihedral = ("
		8 6 3 2
	")
}

ee = optimize('scf')
oeprop('DIPOLE', 'QUADRUPOLE', 'MULLIKEN_CHARGES')
f=open( 'psi4out.xyz', 'w' )
f.write( "15  " )
f.write( str(ee) + "\n" )
f.write( MOL.save_string_xyz() )
f.close()
--------------------------------------------------------------------------

    Molecular point group: c1
  Charge       = 0
  Multiplicity = 1
  Basis Set: CC-PVTZ
  Basis Set:
  @DF-RHF Final Energy:  -232.21605960337553
    Total Energy =                       -232.2160596033756406
    Molecular point group: c1
  Basis Set: CC-PVTZ
  Basis Set:
  Basis Set: CC-PVTZ
  Basis Set:
  @DF-RHF Final Energy:  -232.21680956092632
    Total Energy =                       -232.2168095609266629
  Basis Set: CC-PVTZ
  Basis Set:
  Basis Set: CC-PVTZ
  Basis Set:
  @DF-RHF Final Energy:  -232.22223916361182
    Total Energy =                       -232.2222391636118459
  Basis Set: CC-PVTZ
  Basis Set:
  Basis Set: CC-PVTZ
  Basis Set:
  @DF-RHF Final Energy:  -232.22378362099252
    Total Energy =                       -232.2237836209925490
  Basis Set: CC-PVTZ
  Basis Set:
  Basis Set: CC-PVTZ
  Basis Set:
  @DF-RHF Final Energy:  -232.22397234594791
    Total Energy =                       -232.2239723459479137
  Basis Set: CC-PVTZ
  Basis Set:
  Basis Set: CC-PVTZ
  Basis Set:
  @DF-RHF Final Energy:  -232.22400886109577
    Total Energy =                       -232.2240088610957400
  Basis Set: CC-PVTZ
  Basis Set:
  Basis Set: CC-PVTZ
  Basis Set:
  @DF-RHF Final Energy:  -232.22401181584445
    Total Energy =                       -232.2240118158443352
  Basis Set: CC-PVTZ
  Basis Set:
  Charge       = 0
  Multiplicity = 1
  Basis Set: CC-PVTZ
  Basis Set:

    Orbital Energies (a.u.)
    -----------------------

    Doubly Occupied:

       1A    -20.545214     2A    -11.264155     3A    -11.260414
       4A    -11.217348     5A    -11.213927     6A     -1.376943
       7A     -1.058519     8A     -0.961280     9A     -0.885006
      10A     -0.802381    11A     -0.671532    12A     -0.660340
      13A     -0.633295    14A     -0.605614    15A     -0.564403
      16A     -0.529393    17A     -0.527490    18A     -0.498986
      19A     -0.487564    20A     -0.451862    21A     -0.410147

  @DF-RHF Final Energy:  -232.22401214463275

   => Energetics <=

    Nuclear Repulsion Energy =            192.2680713809381814
    One-Electron Energy =                -695.7325409260229208
    Two-Electron Energy =                 271.2404574004519304
    DFT Exchange-Correlation Energy =       0.0000000000000000
    Empirical Dispersion Energy =           0.0000000000000000
    PCM Polarization Energy =               0.0000000000000000
    EFP Energy =                            0.0000000000000000
    Total Energy =                       -232.2240121446328089
    Molecular point group: c1
  Basis Set: CC-PVTZ
  Basis Set:

  -Total Gradient:
     Atom            X                  Y                   Z
    ------   -----------------  -----------------  -----------------
       1       -0.000003619368    -0.000002593949    -0.000003738281
       2       -0.000104416053    -0.000066661255    -0.002700478151
       3        0.000650839709     0.000729506920     0.004159005675
       4        0.000001372878     0.000000341338     0.000008049720
       5        0.000008286053    -0.000001699905     0.000001575713
       6       -0.002555649765    -0.003013357894    -0.002442671477
       7        0.000006590720    -0.000003053258     0.000008400983
       8        0.001992585639     0.002363473115     0.000965776771
       9        0.000008918110    -0.000010246919    -0.000003010796
      10       -0.000002831507    -0.000004207455     0.000001544001
      11       -0.000000441825     0.000002871768     0.000003078272
      12       -0.000001723739     0.000005445790     0.000003474523
      13        0.000000993564     0.000000127899    -0.000001031946
      14        0.000001156468    -0.000000690589    -0.000000417079
      15       -0.000002060884     0.000000744394     0.000000442072

  **** Optimization is complete! (in 8 steps) ****
    Final optimized geometry and variables:
    Molecular point group: c1

    Geometry (in Angstrom), charge = 0, multiplicity = 1:

    H           -2.582154909545     1.475747444451     0.688046239052
    C           -1.891191586892     0.667066985634     0.497168087409
    O           -0.615961769674     1.217376441990     0.436592777262
    H           -2.176204737443     0.184477889786    -0.431838323116
    H           -1.977815743085    -0.058199732320     1.304485678211
    C            0.457378044744     0.323879247729     0.424185914668
    C            0.429041133248    -0.719896119745    -0.683222049117
    H            0.550531662795    -0.154322658349     1.399982709365
    H            1.337974621487     0.942425043467     0.301419320022
    C            1.725506840868    -1.522904057460    -0.725584213965
    H           -0.404945682614    -1.398792234706    -0.544450500122
    H            0.273255781615    -0.216888380184    -1.632487702131
    H            1.899546670728    -2.038655324940     0.212948344687
    H            1.694299513969    -2.269411449466    -1.509757431780
    H            2.579611691374    -0.881417714094    -0.913381973646

  Mulliken Charges: (a.u.)
   Center  Symbol    Alpha    Beta     Spin     Total
       1     H     0.44395  0.44395  0.00000  0.11210
       2     C     3.03656  3.03656  0.00000 -0.07311
       3     O     4.17575  4.17575  0.00000 -0.35150
       4     H     0.46826  0.46826  0.00000  0.06348
       5     H     0.47287  0.47287  0.00000  0.05425
       6     C     2.97521  2.97521  0.00000  0.04958
       7     C     3.09451  3.09451  0.00000 -0.18902
       8     H     0.46998  0.46998  0.00000  0.06005
       9     H     0.45209  0.45209  0.00000  0.09582
      10     C     3.15231  3.15231  0.00000 -0.30462
      11     H     0.45469  0.45469  0.00000  0.09063
      12     H     0.44895  0.44895  0.00000  0.10210
      13     H     0.45497  0.45497  0.00000  0.09006
      14     H     0.44666  0.44666  0.00000  0.10667
      15     H     0.45325  0.45325  0.00000  0.09351

   Total alpha = 21.00000, Total beta = 21.00000, Total charge = -0.00000
