  ==> Input File <==

--------------------------------------------------------------------------
set {
	reference rhf
	basis 6-31G*
}

set_num_threads( 4 )
memory 2 gb

molecule MOL {
0 1

H	 -3.301617	 0.570527	 0.000000
C	 -2.250981	 0.344174	 0.000000
C	 -1.813665	 -0.976045	 0.000000
C	 -1.315303	 1.358057	 0.000000
H	 -2.528860	 -1.779366	 0.000000
C	 -0.467298	 -1.270142	 0.000000
H	 -1.635074	 2.385107	 0.000000
C	 0.047081	 1.078114	 0.000000
H	 -0.115948	 -2.285222	 0.000000
C	 0.472063	 -0.241155	 0.000000
H	 0.749976	 1.888426	 0.000000
O	 1.765256	 -0.628444	 0.000000
C	 2.128619	 -1.834562	 0.606893
H	 1.894604	 -1.832515	 1.666405
H	 3.197009	 -1.926376	 0.480708
H	 1.640710	 -2.680289	 0.133581

	symmetry c1
}
set optking {
	frozen_dihedral = ("
		13 12 10 8
	")
}

ee = optimize('scf')
oeprop('DIPOLE', 'QUADRUPOLE', 'MULLIKEN_CHARGES')
f=open( 'psi4out.xyz', 'w' )
f.write( "16  " )
f.write( str(ee) + "\n" )
f.write( MOL.save_string_xyz() )
f.close()
--------------------------------------------------------------------------

    Molecular point group: c1
  Charge       = 0
  Multiplicity = 1
  Basis Set: 6-31G*
  Basis Set:
  @DF-RHF Final Energy:  -344.57294206643286
    Total Energy =                       -344.5729420664329155
    Molecular point group: c1
  Basis Set: 6-31G*
  Basis Set:
  Basis Set: 6-31G*
  Basis Set:
  @DF-RHF Final Energy:  -344.57709550042449
    Total Energy =                       -344.5770955004245479
  Basis Set: 6-31G*
  Basis Set:
  Basis Set: 6-31G*
  Basis Set:
  @DF-RHF Final Energy:  -344.58089592774229
    Total Energy =                       -344.5808959277418921
  Basis Set: 6-31G*
  Basis Set:
  Basis Set: 6-31G*
  Basis Set:
  @DF-RHF Final Energy:  -344.58149492130019
    Total Energy =                       -344.5814949213003047
  Basis Set: 6-31G*
  Basis Set:
  Basis Set: 6-31G*
  Basis Set:
  @DF-RHF Final Energy:  -344.58154486072971
    Total Energy =                       -344.5815448607297071
  Basis Set: 6-31G*
  Basis Set:
  Basis Set: 6-31G*
  Basis Set:
  @DF-RHF Final Energy:  -344.58155193154306
    Total Energy =                       -344.5815519315431175
  Basis Set: 6-31G*
  Basis Set:
  Charge       = 0
  Multiplicity = 1
  Basis Set: 6-31G*
  Basis Set:

    Orbital Energies (a.u.)
    -----------------------

    Doubly Occupied:

       1A    -20.580890     2A    -11.291839     3A    -11.278819
       4A    -11.233188     5A    -11.231672     6A    -11.224625
       7A    -11.220997     8A    -11.220163     9A     -1.409716
      10A     -1.146204    11A     -1.020405    12A     -1.013158
      13A     -0.939512    14A     -0.831343    15A     -0.805020
      16A     -0.719167    17A     -0.664669    18A     -0.661649
      19A     -0.651369    20A     -0.615575    21A     -0.588553
      22A     -0.578633    23A     -0.526803    24A     -0.515211
      25A     -0.506971    26A     -0.479245    27A     -0.453988
      28A     -0.334658    29A     -0.308282

  @DF-RHF Final Energy:  -344.58155287240749

   => Energetics <=

    Nuclear Repulsion Energy =            348.0445229763749353
    One-Electron Energy =               -1157.1475021317137362
    Two-Electron Energy =                 464.5214262829312020
    DFT Exchange-Correlation Energy =       0.0000000000000000
    Empirical Dispersion Energy =           0.0000000000000000
    PCM Polarization Energy =               0.0000000000000000
    EFP Energy =                            0.0000000000000000
    Total Energy =                       -344.5815528724075421
    Molecular point group: c1
  Basis Set: 6-31G*
  Basis Set:

  -Total Gradient:
     Atom            X                  Y                   Z
    ------   -----------------  -----------------  -----------------
       1       -0.000002971777    -0.000002793202     0.000007160243
       2        0.000023052158     0.000077241226     0.000026390110
       3        0.000054398473    -0.000043632228    -0.000055623043
       4       -0.000076517650    -0.000018073372    -0.000026348584
       5       -0.000002272792     0.000007685850     0.000006712481
       6       -0.000046871803    -0.000028125990     0.000018396772
       7       -0.000000904071     0.000001861989     0.000002892256
       8        0.000084654245    -0.000037363662     0.001671961801
       9        0.000023551531    -0.000011846471     0.000002340311
      10        0.000016870401     0.000504227552    -0.001658416584
      11        0.000002358149    -0.000005294427     0.000003744559
      12       -0.000263116626    -0.001258454120    -0.001457951779
      13        0.000188508722     0.000797720177     0.001482849296
      14        0.000007618348     0.000022090201    -0.000018831167
      15       -0.000007138248     0.000022265927     0.000003209807
      16       -0.000001219062    -0.000027509450    -0.000008486479

  **** Optimization is complete! (in 7 steps) ****
    Final optimized geometry and variables:
    Molecular point group: c1

    Geometry (in Angstrom), charge = 0, multiplicity = 1:

    H           -3.196219745189     0.986704809178    -0.076549277222
    C           -2.158299399383     0.707420319822    -0.079778280033
    C           -1.791463489544    -0.624757560293    -0.065001207761
    C           -1.167812831145     1.680930514342    -0.096591909098
    H           -2.546665912821    -1.390584386712    -0.052039832055
    C           -0.453306614625    -0.996118152787    -0.069210090035
    H           -1.437261957152     2.722189108851    -0.103339045391
    C            0.166306262074     1.325695522347    -0.094420439088
    H           -0.190330909140    -2.036948883694    -0.065174646062
    C            0.527949209727    -0.016869205375    -0.088521201777
    H            0.943111721934     2.067546643210    -0.101454837074
    O            1.854358374055    -0.284609389551    -0.109302858316
    C            2.323486757336    -1.452951072147     0.505287390075
    H            1.891955891916    -1.577169005454     1.492667122356
    H            3.394590928573    -1.343290938139     0.591834263707
    H            2.110608753257    -2.333615815931    -0.091303123259

  Mulliken Charges: (a.u.)
   Center  Symbol    Alpha    Beta     Spin     Total
       1     H     0.40091  0.40091  0.00000  0.19818
       2     C     3.11056  3.11056  0.00000 -0.22111
       3     C     3.09246  3.09246  0.00000 -0.18492
       4     C     3.09311  3.09311  0.00000 -0.18621
       5     H     0.39933  0.39933  0.00000  0.20133
       6     C     3.13811  3.13811  0.00000 -0.27622
       7     H     0.39867  0.39867  0.00000  0.20266
       8     C     3.12461  3.12461  0.00000 -0.24922
       9     H     0.39743  0.39743  0.00000  0.20513
      10     C     2.78666  2.78666  0.00000  0.42668
      11     H     0.39301  0.39301  0.00000  0.21398
      12     O     4.32836  4.32836  0.00000 -0.65672
      13     C     3.08982  3.08982  0.00000 -0.17965
      14     H     0.41904  0.41904  0.00000  0.16193
      15     H     0.40637  0.40637  0.00000  0.18726
      16     H     0.42155  0.42155  0.00000  0.15689

   Total alpha = 29.00000, Total beta = 29.00000, Total charge = -0.00000
