                              Psi4 1.0.54 Driver

  ==> Input File <==

--------------------------------------------------------------------------
set {
	reference rhf
	basis cc-pvtz
}

set_num_threads( 4 )
memory 2 gb

molecule MOL {
0 1

H	 3.889604	 0.356866	 -0.089510
N	 3.091268	 -0.241216	 -0.065538
C	 1.860978	 0.530248	 0.016256
H	 3.192566	 -0.835836	 0.730398
C	 0.644130	 -0.381765	 -0.031064
H	 1.835721	 1.204666	 -0.833114
H	 1.808789	 1.151975	 0.911067
C	 -0.678115	 0.376691	 0.025731
H	 0.693998	 -0.977147	 -0.936845
H	 0.693309	 -1.082142	 0.800523
C	 -1.607894	 -0.111595	 1.133111
H	 -1.186119	 0.285783	 -0.931673
H	 -0.483112	 1.437415	 0.166130
C	 -2.931184	 0.644805	 1.182467
H	 -1.803579	 -1.171269	 0.994943
H	 -1.104041	 -0.018253	 2.091334
H	 -3.475849	 0.541886	 0.249735
H	 -3.566651	 0.273758	 1.978401
H	 -2.770676	 1.704064	 1.354353

	symmetry c1
}
set optking {
	frozen_dihedral = ("
		12 8 5 9
	")
}

ee,wfn = optimize('scf', return_wfn=True)
oeprop( wfn, 'DIPOLE', 'QUADRUPOLE', 'MULLIKEN_CHARGES')
f=open( 'psi4out.xyz', 'w' )
f.write( "19  " )
f.write( str(ee) + "\n" )
f.write( MOL.save_string_xyz() )
f.close()
--------------------------------------------------------------------------

    Molecular point group: c1
  Charge       = 0
  Multiplicity = 1
  Basis Set: CC-PVTZ
  Basis Set:
  @DF-RHF Final Energy:  -251.44309960350333
    Total Energy =                       -251.4430996035033559
    Molecular point group: c1
  Basis Set: CC-PVTZ
  Basis Set:
  Basis Set: CC-PVTZ
  Basis Set:
  @DF-RHF Final Energy:  -251.44330481102645
    Total Energy =                       -251.4433048110264508
  Basis Set: CC-PVTZ
  Basis Set:
  Basis Set: CC-PVTZ
  Basis Set:
  @DF-RHF Final Energy:  -251.44335747954540
    Total Energy =                       -251.4433574795455115
  Basis Set: CC-PVTZ
  Basis Set:
  Charge       = 0
  Multiplicity = 1
  Basis Set: CC-PVTZ
  Basis Set:

    Orbital Energies (a.u.)
    -----------------------

    Doubly Occupied:

       1A    -15.526427     2A    -11.238432     3A    -11.212787
       4A    -11.210419     5A    -11.207457     6A    -11.205666
       7A     -1.178395     8A     -1.072819     9A     -0.998556
      10A     -0.901011    11A     -0.816107    12A     -0.789288
      13A     -0.663199    14A     -0.640877    15A     -0.617507
      16A     -0.594902    17A     -0.563110    18A     -0.549012
      19A     -0.535942    20A     -0.490934    21A     -0.488811
      22A     -0.465627    23A     -0.456586    24A     -0.448695
      25A     -0.383975

  @DF-RHF Final Energy:  -251.44335797124478

   => Energetics <=

    Nuclear Repulsion Energy =            246.5897274036684621
    One-Electron Energy =                -827.5530880920214258
    Two-Electron Energy =                 329.5200027171082979
    DFT Exchange-Correlation Energy =       0.0000000000000000
    Empirical Dispersion Energy =           0.0000000000000000
    PCM Polarization Energy =               0.0000000000000000
    EFP Energy =                            0.0000000000000000
    Total Energy =                       -251.4433579712446658
    Molecular point group: c1
  Basis Set: CC-PVTZ
  Basis Set:

  -Total Gradient:
     Atom            X                  Y                   Z
    ------   -----------------  -----------------  -----------------
       1        0.000035303302    -0.000006722283     0.000003432310
       2        0.000065782470    -0.000015995901    -0.000009036498
       3       -0.000069085851    -0.000026115592    -0.000002536439
       4        0.000009095777     0.000000075086     0.000006374434
       5       -0.000971379225    -0.001688469250     0.000968460124
       6       -0.000003060546    -0.000001232727     0.000006405925
       7       -0.000011350884     0.000009924904    -0.000004887935
       8        0.000979238273     0.001750744995    -0.000731347800
       9        0.000647054319     0.001158995083    -0.000723887197
      10       -0.000003860965    -0.000003885860    -0.000000619583
      11        0.000017061055     0.000053789272     0.000001739804
      12       -0.000685158517    -0.001219661919     0.000485622243
      13        0.000012882101     0.000002223818     0.000008739101
      14       -0.000027198959    -0.000014117191    -0.000014212402
      15        0.000012520043    -0.000004104248     0.000008146409
      16        0.000003402350     0.000008832417    -0.000001185100
      17       -0.000004868858     0.000009951555     0.000000115712
      18       -0.000009500071    -0.000004071992    -0.000002603802
      19        0.000003124187    -0.000010160168     0.000001280694

  **** Optimization is complete! (in 4 steps) ****
    Final optimized geometry and variables:
    Molecular point group: c1

    Geometry (in Angstrom), charge = 0, multiplicity = 1:

    H            3.800118955696     0.222710055960    -0.511732119113
    N            3.003990454523    -0.377877687347    -0.478019910681
    C            1.772486828192     0.387044639235    -0.374986834129
    H            3.119476073872    -0.976827542792     0.312769126871
    C            0.556462775300    -0.529327426890    -0.401860011484
    H            1.728190932669     1.062751312559    -1.222812845619
    H            1.730022907744     1.007998723111     0.521420386707
    C           -0.777764231737     0.237695470070    -0.343583532420
    H            0.614608869503    -1.129377622236    -1.301834588390
    H            0.623075532734    -1.219749500264     0.434839727430
    C           -1.716911482893    -0.247707583246     0.759040167019
    H           -1.291839012879     0.149396867953    -1.295322510858
    H           -0.588721241663     1.297800802719    -0.198084705863
    C           -3.042334490023     0.504735696120     0.794106622633
    H           -1.907629680470    -1.308938677434     0.623875785610
    H           -1.219639503501    -0.149002459605     1.720538786291
    H           -3.579240938176     0.395208217760    -0.142362850647
    H           -3.683127466762     0.136485564081     1.587158830390
    H           -2.885963021702     1.565457034127     0.961042869662

  Mulliken Charges: (a.u.)
   Center  Symbol    Alpha    Beta     Spin     Total
       1     H     0.43013  0.43013  0.00000  0.13974
       2     N     3.68995  3.68995  0.00000 -0.37990
       3     C     3.02429  3.02429  0.00000 -0.04858
       4     H     0.43078  0.43078  0.00000  0.13845
       5     C     3.08725  3.08725  0.00000 -0.17450
       6     H     0.45603  0.45603  0.00000  0.08794
       7     H     0.46908  0.46908  0.00000  0.06184
       8     C     3.09947  3.09947  0.00000 -0.19894
       9     H     0.44569  0.44569  0.00000  0.10861
      10     H     0.45962  0.45962  0.00000  0.08075
      11     C     3.08324  3.08324  0.00000 -0.16648
      12     H     0.44970  0.44970  0.00000  0.10059
      13     H     0.45649  0.45649  0.00000  0.08702
      14     C     3.15005  3.15005  0.00000 -0.30010
      15     H     0.45326  0.45326  0.00000  0.09347
      16     H     0.45572  0.45572  0.00000  0.08856
      17     H     0.45498  0.45498  0.00000  0.09003
      18     H     0.44880  0.44880  0.00000  0.10241
      19     H     0.45546  0.45546  0.00000  0.08908

   Total alpha = 25.00000, Total beta = 25.00000, Total charge = -0.00000

*** Psi4 exiting successfully. Buy a developer a beer!
