  ==> Input File <==

--------------------------------------------------------------------------
set {
	reference rhf
	basis 6-31G*
}

set_num_threads( 4 )
memory 2 gb

molecule MOL {
0 1

O	 3.225979	 0.970355	 -0.599647
C	 2.701189	 0.057885	 -0.047330
C	 1.245376	 -0.013843	 0.345420
O	 3.347903	 -1.046386	 0.304773
C	 0.455112	 1.231400	 -0.050772
H	 0.838542	 -0.913825	 -0.103701
H	 1.208210	 -0.175333	 1.419774
C	 -0.998893	 1.219485	 0.433193
H	 0.482531	 1.345121	 -1.130325
H	 0.957290	 2.103070	 0.354729
C	 -1.883438	 0.145884	 -0.207175
H	 -1.431207	 2.195402	 0.224832
H	 -1.019646	 1.105716	 1.516076
C	 -3.304279	 0.637326	 -0.491244
H	 -1.425423	 -0.186808	 -1.137421
H	 -1.936772	 -0.728848	 0.437009
C	 -4.198744	 -0.428797	 -1.126417
H	 -3.260358	 1.505424	 -1.146767
H	 -3.759027	 0.980155	 0.436858
C	 -5.614758	 0.071162	 -1.410396
H	 -3.745299	 -0.773208	 -2.053461
H	 -4.247391	 -1.295595	 -0.470615
H	 -6.224198	 -0.706648	 -1.860066
H	 -5.602505	 0.917065	 -2.091934
H	 -6.108145	 0.391198	 -0.496931
C	 4.728119	 -1.109107	 -0.004993
H	 4.882018	 -1.033965	 -1.071845
H	 5.068212	 -2.067527	 0.355250
H	 5.265056	 -0.311663	 0.488280

	symmetry c1
}
set optking {
	frozen_dihedral = ("
		15 11 8 5
	")
}

ee = optimize('scf')
oeprop('DIPOLE', 'QUADRUPOLE', 'MULLIKEN_CHARGES')
f=open( 'psi4out.xyz', 'w' )
f.write( "29  " )
f.write( str(ee) + "\n" )
f.write( MOL.save_string_xyz() )
f.close()
--------------------------------------------------------------------------

    Molecular point group: c1
  Charge       = 0
  Multiplicity = 1
  Basis Set: 6-31G*
  Basis Set:
  @DF-RHF Final Energy:  -501.04086961067026
    Total Energy =                       -501.0408696106702564
    Molecular point group: c1
  Basis Set: 6-31G*
  Basis Set:
  Basis Set: 6-31G*
  Basis Set:
  @DF-RHF Final Energy:  -501.04108422037893
    Total Energy =                       -501.0410842203787070
  Basis Set: 6-31G*
  Basis Set:
  Basis Set: 6-31G*
  Basis Set:
  @DF-RHF Final Energy:  -501.04119115303433
    Total Energy =                       -501.0411911530345606
  Basis Set: 6-31G*
  Basis Set:
  Basis Set: 6-31G*
  Basis Set:
  @DF-RHF Final Energy:  -501.04110468451177
    Total Energy =                       -501.0411046845119927
  Basis Set: 6-31G*
  Basis Set:
  Basis Set: 6-31G*
  Basis Set:
  @DF-RHF Final Energy:  -501.04115516561330
    Total Energy =                       -501.0411551656134179
  Basis Set: 6-31G*
  Basis Set:
  Basis Set: 6-31G*
  Basis Set:
  @DF-RHF Final Energy:  -501.04119781445263
    Total Energy =                       -501.0411978144534260
  Basis Set: 6-31G*
  Basis Set:
  Basis Set: 6-31G*
  Basis Set:
  @DF-RHF Final Energy:  -501.04120368080078
    Total Energy =                       -501.0412036808012317
  Basis Set: 6-31G*
  Basis Set:
  Charge       = 0
  Multiplicity = 1
  Basis Set: 6-31G*
  Basis Set:

    Orbital Energies (a.u.)
    -----------------------

    Doubly Occupied:

       1A    -20.603283     2A    -20.545081     3A    -11.371841
       4A    -11.280595     5A    -11.234507     6A    -11.219203
       7A    -11.217270     8A    -11.216071     9A    -11.215706
      10A    -11.214740    11A    -11.208959    12A     -1.468951
      13A     -1.362389    14A     -1.097476    15A     -1.066747
      16A     -1.018509    17A     -0.976943    18A     -0.928370
      19A     -0.861869    20A     -0.800324    21A     -0.790643
      22A     -0.763375    23A     -0.699794    24A     -0.682494
      25A     -0.671747    26A     -0.650650    27A     -0.628376
      28A     -0.605327    29A     -0.592533    30A     -0.579888
      31A     -0.566368    32A     -0.552044    33A     -0.532057
      34A     -0.528311    35A     -0.518209    36A     -0.512081
      37A     -0.493738    38A     -0.477789    39A     -0.472010
      40A     -0.460370    41A     -0.457145    42A     -0.456139
      43A     -0.441410    44A     -0.434705

  @DF-RHF Final Energy:  -501.04120446384638

   => Energetics <=

    Nuclear Repulsion Energy =            610.7512139454412363
    One-Electron Energy =               -1892.6327686568388344
    Two-Electron Energy =                 780.8403502475507594
    DFT Exchange-Correlation Energy =       0.0000000000000000
    Empirical Dispersion Energy =           0.0000000000000000
    PCM Polarization Energy =               0.0000000000000000
    EFP Energy =                            0.0000000000000000
    Total Energy =                       -501.0412044638469524
    Molecular point group: c1
  Basis Set: 6-31G*
  Basis Set:

  -Total Gradient:
     Atom            X                  Y                   Z
    ------   -----------------  -----------------  -----------------
       1        0.000002608893     0.000000223165    -0.000003245286
       2        0.000005425623     0.000021333255     0.000025853161
       3       -0.000016334995    -0.000017614775    -0.000041000194
       4       -0.000002602548    -0.000012130654    -0.000014949372
       5       -0.000691564921     0.001873873306    -0.002136054597
       6        0.000001928727    -0.000011306382     0.000003951623
       7       -0.000005243046     0.000011292424     0.000000337520
       8        0.001441742541    -0.003371351894     0.003451793363
       9        0.000001639256     0.000015726990     0.000014745036
      10        0.000003081446    -0.000000858326     0.000020534707
      11       -0.002701819839     0.004299068867    -0.003325936963
      12       -0.000008191959     0.000005558793    -0.000026187758
      13       -0.000009937456     0.000008952348    -0.000011682366
      14        0.000009682399     0.000021752362    -0.000000750020
      15        0.001969145998    -0.002843832035     0.002002928055
      16       -0.000000919228     0.000001783702     0.000028181344
      17        0.000015725223    -0.000001190909    -0.000012802118
      18       -0.000005165242     0.000014262724     0.000018782394
      19       -0.000010047351    -0.000021112056     0.000006141114
      20        0.000001907224     0.000004446361     0.000001138950
      21       -0.000001864923     0.000000524484    -0.000002145252
      22        0.000001570168    -0.000001079865    -0.000001885824
      23        0.000001124494    -0.000001437785     0.000002996747
      24       -0.000000511737    -0.000001462116    -0.000001631510
      25        0.000001046898     0.000002068872    -0.000000595394
      26       -0.000001814137     0.000002536008     0.000001556758
      27       -0.000000508237    -0.000000113562    -0.000000114867
      28       -0.000000825784    -0.000000067174     0.000000097829
      29        0.000000722502     0.000000153875    -0.000000057083

  **** Optimization is complete! (in 8 steps) ****
    Final optimized geometry and variables:
    Molecular point group: c1

    Geometry (in Angstrom), charge = 0, multiplicity = 1:

    O            3.205106948211     0.807000586741    -0.349097193036
    C            2.669905367098    -0.089852053324     0.218715294591
    C            1.220970920482    -0.123183274960     0.639921807757
    O            3.296899786149    -1.207465689787     0.564134711573
    C            0.453796238479     1.142132352459     0.262902480748
    H            0.777890423453    -1.010267853019     0.197659448577
    H            1.199477705464    -0.286401561782     1.714332165564
    C           -1.008969086183     1.118459231518     0.716368643698
    H            0.498432278869     1.283759601081    -0.812305679693
    H            0.954688844893     1.998327207417     0.702224491064
    C           -1.874430864362     0.041128599867     0.034734851981
    H           -1.429990222999     2.097187233255     0.498623814508
    H           -1.061398643358     1.006973755896     1.797004981436
    C           -3.307716076481     0.495494711143    -0.241825340148
    H           -1.401590192666    -0.282490276342    -0.890849140241
    H           -1.904268035942    -0.849416721872     0.659933105305
    C           -4.180477845745    -0.593997639915    -0.866363034650
    H           -3.287549942524     1.362389878110    -0.900031122208
    H           -3.762678683570     0.831450449064     0.688862485783
    C           -5.608336884539    -0.127262432681    -1.147777327315
    H           -3.722964062649    -0.934044111494    -1.793133079108
    H           -4.207137537018    -1.457436368407    -0.204971448188
    H           -6.202445516919    -0.921622874972    -1.588925423678
    H           -5.617628283914     0.713540463225    -1.835614173049
    H           -6.104655950445     0.188673286382    -0.234480362080
    C            4.668679033781    -1.305081460523     0.227174916930
    H            4.802842225564    -1.239341030763    -0.842968917940
    H            4.992858360175    -2.269491654134     0.586082789880
    H            5.234416984959    -0.518199525078     0.704978585554

  Mulliken Charges: (a.u.)
   Center  Symbol    Alpha    Beta     Spin     Total
       1     O     4.28605  4.28605  0.00000 -0.57210
       2     C     2.60523  2.60523  0.00000  0.78953
       3     C     3.20919  3.20919  0.00000 -0.41838
       4     O     4.30737  4.30737  0.00000 -0.61473
       5     C     3.15472  3.15472  0.00000 -0.30944
       6     H     0.39841  0.39841  0.00000  0.20317
       7     H     0.40125  0.40125  0.00000  0.19750
       8     C     3.15875  3.15875  0.00000 -0.31751
       9     H     0.41211  0.41211  0.00000  0.17579
      10     H     0.41033  0.41033  0.00000  0.17933
      11     C     3.15665  3.15665  0.00000 -0.31331
      12     H     0.41704  0.41704  0.00000  0.16592
      13     H     0.42144  0.42144  0.00000  0.15711
      14     C     3.15158  3.15158  0.00000 -0.30316
      15     H     0.42220  0.42220  0.00000  0.15560
      16     H     0.42251  0.42251  0.00000  0.15498
      17     C     3.15214  3.15214  0.00000 -0.30428
      18     H     0.42278  0.42278  0.00000  0.15445
      19     H     0.42319  0.42319  0.00000  0.15362
      20     C     3.23938  3.23938  0.00000 -0.47875
      21     H     0.42287  0.42287  0.00000  0.15427
      22     H     0.42318  0.42318  0.00000  0.15364
      23     H     0.41923  0.41923  0.00000  0.16153
      24     H     0.42146  0.42146  0.00000  0.15708
      25     H     0.42175  0.42175  0.00000  0.15649
      26     C     3.09238  3.09238  0.00000 -0.18476
      27     H     0.40913  0.40913  0.00000  0.18173
      28     H     0.40852  0.40852  0.00000  0.18295
      29     H     0.40913  0.40913  0.00000  0.18174

   Total alpha = 44.00000, Total beta = 44.00000, Total charge = -0.00000
