                              Psi4 1.0.54 Driver

  ==> Input File <==

--------------------------------------------------------------------------
set {
	reference rhf
	basis cc-pvtz
}

set_num_threads( 4 )
memory 2 gb

molecule MOL {
0 1

H	 2.861380	 0.254583	 -0.065178
C	 1.948180	 -0.217873	 0.320185
C	 0.692262	 0.592428	 0.156232
O	 2.002220	 -1.286520	 0.822885
C	 -0.554654	 -0.292621	 0.086567
H	 0.791858	 1.203694	 -0.731051
H	 0.617379	 1.254358	 1.016534
C	 -1.846385	 0.513195	 -0.016346
H	 -0.473986	 -0.956115	 -0.769708
H	 -0.597929	 -0.929215	 0.966651
C	 -3.089953	 -0.365049	 -0.098564
H	 -1.798267	 1.154820	 -0.891143
H	 -1.925398	 1.173265	 0.842889
H	 -3.055079	 -1.012299	 -0.968245
H	 -3.988403	 0.236438	 -0.170014
H	 -3.183055	 -0.995885	 0.779079

	symmetry c1
}
set optking {
	frozen_dihedral = ("
		4 2 3 6
	")
}

ee,wfn = optimize('scf', return_wfn=True)
oeprop( wfn, 'DIPOLE', 'QUADRUPOLE', 'MULLIKEN_CHARGES')
f=open( 'psi4out.xyz', 'w' )
f.write( "16  " )
f.write( str(ee) + "\n" )
f.write( MOL.save_string_xyz() )
f.close()
--------------------------------------------------------------------------

    Molecular point group: c1
  Charge       = 0
  Multiplicity = 1
  Basis Set: CC-PVTZ
  Basis Set:
  @DF-RHF Final Energy:  -270.11861124310303
    Total Energy =                       -270.1186112431032029
    Molecular point group: c1
  Basis Set: CC-PVTZ
  Basis Set:
  Basis Set: CC-PVTZ
  Basis Set:
  @DF-RHF Final Energy:  -270.11877859235165
    Total Energy =                       -270.1187785923518163
  Basis Set: CC-PVTZ
  Basis Set:
  Basis Set: CC-PVTZ
  Basis Set:
  @DF-RHF Final Energy:  -270.11809655333559
    Total Energy =                       -270.1180965533354765
  Basis Set: CC-PVTZ
  Basis Set:
  Basis Set: CC-PVTZ
  Basis Set:
  @DF-RHF Final Energy:  -270.11929971111260
    Total Energy =                       -270.1192997111126033
  Basis Set: CC-PVTZ
  Basis Set:
  Basis Set: CC-PVTZ
  Basis Set:
  @DF-RHF Final Energy:  -270.11930768943546
    Total Energy =                       -270.1193076894355727
  Basis Set: CC-PVTZ
  Basis Set:
  Basis Set: CC-PVTZ
  Basis Set:
  @DF-RHF Final Energy:  -270.11930933996848
    Total Energy =                       -270.1193093399684813
  Basis Set: CC-PVTZ
  Basis Set:
  Basis Set: CC-PVTZ
  Basis Set:
  @DF-RHF Final Energy:  -270.11931067961450
    Total Energy =                       -270.1193106796145571
  Basis Set: CC-PVTZ
  Basis Set:
  Charge       = 0
  Multiplicity = 1
  Basis Set: CC-PVTZ
  Basis Set:

    Orbital Energies (a.u.)
    -----------------------

    Doubly Occupied:

       1A    -20.552289     2A    -11.322791     3A    -11.235951
       4A    -11.222008     5A    -11.221279     6A    -11.211138
       7A     -1.407889     8A     -1.090759     9A     -1.016558
      10A     -0.909540    11A     -0.814835    12A     -0.773322
      13A     -0.680050    14A     -0.654637    15A     -0.632527
      16A     -0.599916    17A     -0.585729    18A     -0.539608
      19A     -0.529909    20A     -0.499508    21A     -0.485623
      22A     -0.479425    23A     -0.473238    24A     -0.412348

  @DF-RHF Final Energy:  -270.11931068552121

   => Energetics <=

    Nuclear Repulsion Energy =            231.9445584563616478
    One-Electron Energy =                -825.4259860347240192
    Two-Electron Energy =                 323.3621168928411862
    DFT Exchange-Correlation Energy =       0.0000000000000000
    Empirical Dispersion Energy =           0.0000000000000000
    PCM Polarization Energy =               0.0000000000000000
    EFP Energy =                            0.0000000000000000
    Total Energy =                       -270.1193106855212136
    Molecular point group: c1
  Basis Set: CC-PVTZ
  Basis Set:

  -Total Gradient:
     Atom            X                  Y                   Z
    ------   -----------------  -----------------  -----------------
       1        0.000002895806     0.000000351423     0.000000587791
       2       -0.000051718528    -0.000981498030    -0.002784419541
       3       -0.000711416354    -0.001594831365    -0.000663053916
       4        0.000138972439     0.000934095366     0.002130681795
       5       -0.000006303559    -0.000003898999    -0.000001085423
       6        0.000628871152     0.001644490216     0.001314701663
       7       -0.000001551134    -0.000001838939    -0.000004464118
       8       -0.000001960563     0.000000491057     0.000012206981
       9        0.000001688732    -0.000001246194     0.000002601150
      10       -0.000000401678     0.000003162121    -0.000003067276
      11        0.000001296599    -0.000000236360    -0.000006365602
      12        0.000000556116    -0.000001188832     0.000002663428
      13       -0.000002559836     0.000000821871     0.000001186327
      14       -0.000000759991    -0.000001980711     0.000001117274
      15        0.000001371264    -0.000000039633    -0.000002197855
      16        0.000001019541     0.000003347011    -0.000001092677

  **** Optimization is complete! (in 8 steps) ****
    Final optimized geometry and variables:
    Molecular point group: c1

    Geometry (in Angstrom), charge = 0, multiplicity = 1:

    H            2.983748419811     0.723370958937    -0.083567403191
    C            2.105143527390     0.125568865485     0.187977285888
    C            0.777469276866     0.804226690588    -0.026466762900
    O            2.245110041178    -0.950772576208     0.656939747560
    C           -0.410929161136    -0.141880632809    -0.137981359980
    H            0.860830362665     1.460467875209    -0.887998805183
    H            0.653084004914     1.471802124845     0.826476167341
    C           -1.738234970020     0.594959597347    -0.291494819509
    H           -0.260985836538    -0.803252640720    -0.985949188784
    H           -0.440066574350    -0.777206362925     0.738727612464
    C           -2.929121688163    -0.349594894160    -0.412159251766
    H           -1.697928313975     1.236841577861    -1.167578399144
    H           -1.885422077967     1.252570658768     0.561116381182
    H           -2.828313756206    -0.997289667949    -1.276448712835
    H           -3.856677128901     0.200946794815    -0.517515005567
    H           -3.016292253380    -0.981884070270     0.464757596761

  Mulliken Charges: (a.u.)
   Center  Symbol    Alpha    Beta     Spin     Total
       1     H     0.45265  0.45265  0.00000  0.09470
       2     C     2.92241  2.92241  0.00000  0.15518
       3     C     3.09094  3.09094  0.00000 -0.18188
       4     O     4.16563  4.16563  0.00000 -0.33125
       5     C     3.08425  3.08425  0.00000 -0.16850
       6     H     0.44725  0.44725  0.00000  0.10549
       7     H     0.44620  0.44620  0.00000  0.10759
       8     C     3.08428  3.08428  0.00000 -0.16857
       9     H     0.45018  0.45018  0.00000  0.09965
      10     H     0.44173  0.44173  0.00000  0.11653
      11     C     3.14906  3.14906  0.00000 -0.29812
      12     H     0.45545  0.45545  0.00000  0.08910
      13     H     0.45445  0.45445  0.00000  0.09111
      14     H     0.45412  0.45412  0.00000  0.09176
      15     H     0.44818  0.44818  0.00000  0.10364
      16     H     0.45321  0.45321  0.00000  0.09357

   Total alpha = 24.00000, Total beta = 24.00000, Total charge =  0.00000

*** Psi4 exiting successfully. Buy a developer a beer!
