                              Psi4 1.0.54 Driver

  ==> Input File <==

--------------------------------------------------------------------------
set {
	reference rhf
	basis cc-pvtz
}

set_num_threads( 4 )
memory 2 gb

molecule MOL {
0 1

H	 3.770553	 0.455376	 1.065392
N	 2.958515	 -0.124123	 1.085211
C	 1.790632	 0.593716	 0.599189
H	 2.828669	 -0.416884	 2.031138
C	 0.573392	 -0.317840	 0.553151
H	 2.011612	 0.946182	 -0.402731
H	 1.555905	 1.475813	 1.196485
C	 -0.678115	 0.376691	 0.025731
H	 0.810026	 -1.178821	 -0.063389
H	 0.378470	 -0.699979	 1.553380
C	 -1.900706	 -0.535531	 -0.022488
H	 -0.481825	 0.762153	 -0.972189
H	 -0.902916	 1.241281	 0.646070
C	 -3.220513	 0.226854	 0.028039
H	 -1.865036	 -1.134397	 -0.928236
H	 -1.857948	 -1.236381	 0.806820
H	 -3.309098	 0.911849	 -0.808725
H	 -4.066838	 -0.449485	 -0.008086
H	 -3.301685	 0.809374	 0.939860

	symmetry c1
}
set optking {
	frozen_dihedral = ("
		12 8 11 15
	")
}

ee,wfn = optimize('scf', return_wfn=True)
oeprop( wfn, 'DIPOLE', 'QUADRUPOLE', 'MULLIKEN_CHARGES')
f=open( 'psi4out.xyz', 'w' )
f.write( "19  " )
f.write( str(ee) + "\n" )
f.write( MOL.save_string_xyz() )
f.close()
--------------------------------------------------------------------------

    Molecular point group: c1
  Charge       = 0
  Multiplicity = 1
  Basis Set: CC-PVTZ
  Basis Set:
  @DF-RHF Final Energy:  -251.44610039735372
    Total Energy =                       -251.4461003973539164
    Molecular point group: c1
  Basis Set: CC-PVTZ
  Basis Set:
  Basis Set: CC-PVTZ
  Basis Set:
  @DF-RHF Final Energy:  -251.44629870185130
    Total Energy =                       -251.4462987018515037
  Basis Set: CC-PVTZ
  Basis Set:
  Basis Set: CC-PVTZ
  Basis Set:
  @DF-RHF Final Energy:  -251.44637174042592
    Total Energy =                       -251.4463717404261729
  Basis Set: CC-PVTZ
  Basis Set:
  Charge       = 0
  Multiplicity = 1
  Basis Set: CC-PVTZ
  Basis Set:

    Orbital Energies (a.u.)
    -----------------------

    Doubly Occupied:

       1A    -15.526351     2A    -11.237781     3A    -11.211923
       4A    -11.210521     5A    -11.207623     6A    -11.205391
       7A     -1.178054     8A     -1.073507     9A     -0.999411
      10A     -0.900486    11A     -0.813507    12A     -0.789215
      13A     -0.664729    14A     -0.644656    15A     -0.617234
      16A     -0.590145    17A     -0.564470    18A     -0.554014
      19A     -0.526343    20A     -0.499742    21A     -0.482016
      22A     -0.464401    23A     -0.460532    24A     -0.449846
      25A     -0.383692

  @DF-RHF Final Energy:  -251.44637243442514

   => Energetics <=

    Nuclear Repulsion Energy =            246.0663603620559456
    One-Electron Energy =                -826.5142766247067811
    Two-Electron Energy =                 329.0015438282257492
    DFT Exchange-Correlation Energy =       0.0000000000000000
    Empirical Dispersion Energy =           0.0000000000000000
    PCM Polarization Energy =               0.0000000000000000
    EFP Energy =                            0.0000000000000000
    Total Energy =                       -251.4463724344250295
    Molecular point group: c1
  Basis Set: CC-PVTZ
  Basis Set:

  -Total Gradient:
     Atom            X                  Y                   Z
    ------   -----------------  -----------------  -----------------
       1        0.000034786723    -0.000006130380     0.000011875397
       2        0.000035087093     0.000028812753    -0.000024970298
       3        0.000009831195    -0.000015130642     0.000027064763
       4       -0.000004550138     0.000003890389     0.000007953202
       5       -0.000062552346     0.000054825682    -0.000029731337
       6        0.000009593249    -0.000002509950     0.000007942427
       7        0.000017221437     0.000003122085    -0.000002146047
       8       -0.003365597230     0.004319287393     0.000510010755
       9       -0.000007357400     0.000001646976     0.000008116180
      10        0.000002301657    -0.000008096091    -0.000006673605
      11        0.003010708825    -0.004089630455     0.002158376792
      12        0.002372701406    -0.003030155825    -0.000755507850
      13        0.000015852960    -0.000013579863     0.000000747827
      14       -0.000006367279    -0.000043411168     0.000005015519
      15       -0.002025214270     0.002776424861    -0.001904774603
      16       -0.000009190631     0.000015075229    -0.000009897381
      17       -0.000000556859    -0.000012313106     0.000013332716
      18       -0.000025703777     0.000019710398     0.000004185749
      19       -0.000000994617    -0.000001838287    -0.000020920206

  **** Optimization is complete! (in 4 steps) ****
    Final optimized geometry and variables:
    Molecular point group: c1

    Geometry (in Angstrom), charge = 0, multiplicity = 1:

    H            3.838861792963     0.403594368213     0.588150471346
    N            3.024068014448    -0.170447032925     0.636049737826
    C            1.847064715123     0.550456646097     0.177287362537
    H            2.919559089508    -0.453988559205     1.587917501110
    C            0.622846960971    -0.352781361184     0.175280318079
    H            2.041137400098     0.892284738097    -0.833859273075
    H            1.635442835002     1.439894438339     0.772623713435
    C           -0.642831557332     0.348195362511    -0.313480165165
    H            0.832595971576    -1.218176429126    -0.445345789467
    H            0.458329458651    -0.729979693387     1.182689050970
    C           -1.853857566565    -0.585778439676    -0.385882522400
    H           -0.444923648596     0.748368435964    -1.304457649209
    H           -0.863947630664     1.190943713693     0.335365809132
    C           -3.183918545021     0.163869072904    -0.384794162828
    H           -1.797400555643    -1.170455570939    -1.298957442588
    H           -1.834153274436    -1.284108379362     0.444753953960
    H           -3.235461431395     0.868552352073    -1.208563928295
    H           -4.020925753049    -0.518324469646    -0.481825953145
    H           -3.317367340051     0.723660100815     0.534918601766

  Mulliken Charges: (a.u.)
   Center  Symbol    Alpha    Beta     Spin     Total
       1     H     0.43024  0.43024  0.00000  0.13951
       2     N     3.68905  3.68905  0.00000 -0.37810
       3     C     3.02733  3.02733  0.00000 -0.05466
       4     H     0.43100  0.43100  0.00000  0.13800
       5     C     3.08188  3.08188  0.00000 -0.16376
       6     H     0.45715  0.45715  0.00000  0.08570
       7     H     0.46870  0.46870  0.00000  0.06260
       8     C     3.09401  3.09401  0.00000 -0.18802
       9     H     0.44885  0.44885  0.00000  0.10230
      10     H     0.46043  0.46043  0.00000  0.07914
      11     C     3.08344  3.08344  0.00000 -0.16689
      12     H     0.45417  0.45417  0.00000  0.09166
      13     H     0.45661  0.45661  0.00000  0.08678
      14     C     3.14911  3.14911  0.00000 -0.29823
      15     H     0.45304  0.45304  0.00000  0.09392
      16     H     0.45465  0.45465  0.00000  0.09069
      17     H     0.45500  0.45500  0.00000  0.09000
      18     H     0.44917  0.44917  0.00000  0.10166
      19     H     0.45615  0.45615  0.00000  0.08769

   Total alpha = 25.00000, Total beta = 25.00000, Total charge =  0.00000

*** Psi4 exiting successfully. Buy a developer a beer!
