                              Psi4 1.0.54 Driver

  ==> Input File <==

--------------------------------------------------------------------------
set {
	reference rhf
	basis cc-pvtz
}

set_num_threads( 4 )
memory 2 gb

molecule MOL {
0 1

H	 2.315846	 -0.385405	 0.138116
O	 1.465484	 -0.261690	 0.516566
C	 0.700177	 0.619554	 -0.266242
C	 -0.713111	 0.588314	 0.266177
H	 0.702768	 0.308579	 -1.306536
H	 1.090698	 1.632051	 -0.205243
O	 -1.421673	 -0.521378	 -0.196983
H	 -1.244794	 1.469161	 -0.069059
H	 -0.685100	 0.604721	 1.352683
H	 -0.933408	 -1.297830	 0.014544

	symmetry c1
}
set optking {
	frozen_dihedral = ("
		5 3 4 7
	")
}

ee,wfn = optimize('scf', return_wfn=True)
oeprop( wfn, 'DIPOLE', 'QUADRUPOLE', 'MULLIKEN_CHARGES')
f=open( 'psi4out.xyz', 'w' )
f.write( "10  " )
f.write( str(ee) + "\n" )
f.write( MOL.save_string_xyz() )
f.close()
--------------------------------------------------------------------------

    Molecular point group: c1
  Charge       = 0
  Multiplicity = 1
  Basis Set: CC-PVTZ
  Basis Set:
  @DF-RHF Final Energy:  -229.02676869315565
    Total Energy =                       -229.0267686931557023
    Molecular point group: c1
  Basis Set: CC-PVTZ
  Basis Set:
  Basis Set: CC-PVTZ
  Basis Set:
  @DF-RHF Final Energy:  -229.02708548592307
    Total Energy =                       -229.0270854859229246
  Basis Set: CC-PVTZ
  Basis Set:
  Basis Set: CC-PVTZ
  Basis Set:
  @DF-RHF Final Energy:  -229.02722696948305
    Total Energy =                       -229.0272269694831095
  Basis Set: CC-PVTZ
  Basis Set:
  Basis Set: CC-PVTZ
  Basis Set:
  @DF-RHF Final Energy:  -229.02722807766798
    Total Energy =                       -229.0272280776679850
  Basis Set: CC-PVTZ
  Basis Set:
  Charge       = 0
  Multiplicity = 1
  Basis Set: CC-PVTZ
  Basis Set:

    Orbital Energies (a.u.)
    -----------------------

    Doubly Occupied:

       1A    -20.556630     2A    -20.545916     3A    -11.271875
       4A    -11.266955     5A     -1.380489     6A     -1.357917
       7A     -1.002706     8A     -0.844862     9A     -0.728429
      10A     -0.680774    11A     -0.649782    12A     -0.608814
      13A     -0.575768    14A     -0.529371    15A     -0.493359
      16A     -0.456811    17A     -0.437204

  @DF-RHF Final Energy:  -229.02722809044474

   => Energetics <=

    Nuclear Repulsion Energy =            133.5857848255081990
    One-Electron Energy =                -578.4507007778953493
    Two-Electron Energy =                 215.8376878619423280
    DFT Exchange-Correlation Energy =       0.0000000000000000
    Empirical Dispersion Energy =           0.0000000000000000
    PCM Polarization Energy =               0.0000000000000000
    EFP Energy =                            0.0000000000000000
    Total Energy =                       -229.0272280904448223
    Molecular point group: c1
  Basis Set: CC-PVTZ
  Basis Set:

  -Total Gradient:
     Atom            X                  Y                   Z
    ------   -----------------  -----------------  -----------------
       1       -0.000004337795     0.000010063403    -0.000005932023
       2       -0.000030402329     0.000011588858    -0.000015350295
       3       -0.001244263068     0.006612087008    -0.002758476993
       4        0.001803130791    -0.003890852791     0.004405150529
       5        0.000691101285    -0.004780935899     0.001390367751
       6        0.000010077159     0.000006118773    -0.000003835027
       7       -0.001267310009     0.002105697433    -0.003076988846
       8        0.000027709940     0.000032404310     0.000045259088
       9       -0.000004346590    -0.000058542344     0.000002844517
      10        0.000018640618    -0.000047628753     0.000016961298

  **** Optimization is complete! (in 5 steps) ****
    Final optimized geometry and variables:
    Molecular point group: c1

    Geometry (in Angstrom), charge = 0, multiplicity = 1:

    H            2.288986593675    -0.452958528481     0.022153541032
    O            1.439820729692    -0.345936063770     0.408861342172
    C            0.672144768563     0.569738237187    -0.337133593566
    C           -0.742400092869     0.518455631952     0.194422589612
    H            0.664365182031     0.266938430887    -1.379080930095
    H            1.074648950513     1.574397722198    -0.247117632585
    O           -1.449328616580    -0.592955211161    -0.274663903931
    H           -1.286602578967     1.388557865962    -0.149262906674
    H           -0.715767864717     0.544563904694     1.279423225026
    H           -1.038215107287    -1.377551499971     0.043309449087

  Mulliken Charges: (a.u.)
   Center  Symbol    Alpha    Beta     Spin     Total
       1     H     0.39192  0.39192  0.00000  0.21616
       2     O     4.20628  4.20628  0.00000 -0.41256
       3     C     2.97690  2.97690  0.00000  0.04620
       4     C     2.96469  2.96469  0.00000  0.07061
       5     H     0.46739  0.46739  0.00000  0.06523
       6     H     0.47138  0.47138  0.00000  0.05725
       7     O     4.20785  4.20785  0.00000 -0.41569
       8     H     0.45878  0.45878  0.00000  0.08243
       9     H     0.46731  0.46731  0.00000  0.06538
      10     H     0.38750  0.38750  0.00000  0.22499

   Total alpha = 17.00000, Total beta = 17.00000, Total charge = -0.00000

*** Psi4 exiting successfully. Buy a developer a beer!
