  ==> Input File <==

--------------------------------------------------------------------------
set {
	reference rhf
	basis cc-pvtz
}

set_num_threads( 4 )
memory 2 gb

molecule MOL {
0 1

O	 3.341000	 0.980000	 -0.604000
C	 2.817000	 0.067000	 -0.052000
C	 1.361000	 -0.005000	 0.341000
O	 3.463000	 -1.038000	 0.299000
C	 0.571000	 1.240000	 -0.055000
H	 0.954000	 -0.905000	 -0.109000
H	 1.323000	 -0.167000	 1.415000
C	 -0.884000	 1.228000	 0.428000
H	 0.598000	 1.355000	 -1.135000
H	 1.073000	 2.112000	 0.351000
C	 -1.768000	 0.155000	 -0.212000
H	 -1.316000	 2.204000	 0.220000
H	 -0.905000	 1.115000	 1.511000
C	 -3.232000	 0.255000	 0.220000
H	 -1.706000	 0.240000	 -1.296000
H	 -1.395000	 -0.836000	 0.038000
C	 -4.125000	 -0.817000	 -0.409000
H	 -3.618000	 1.240000	 -0.040000
H	 -3.294000	 0.181000	 1.305000
C	 -5.586000	 -0.708000	 0.025000
H	 -4.064000	 -0.745000	 -1.493000
H	 -3.744000	 -1.802000	 -0.147000
H	 -6.193000	 -1.480000	 -0.437000
H	 -6.007000	 0.254000	 -0.255000
H	 -5.684000	 -0.810000	 1.102000
C	 4.843000	 -1.100000	 -0.011000
H	 4.997000	 -1.024000	 -1.077000
H	 5.184000	 -2.059000	 0.349000
H	 5.380000	 -0.303000	 0.483000

	symmetry c1
}
ee = optimize('scf')
oeprop('DIPOLE', 'QUADRUPOLE', 'MULLIKEN_CHARGES')
f=open( 'psi4out.xyz', 'w' )
f.write( "29  " )
f.write( str(ee) + "\n" )
f.write( MOL.save_string_xyz() )
f.close()
--------------------------------------------------------------------------

    Molecular point group: c1
  Charge       = 0
  Multiplicity = 1
  Basis Set: CC-PVTZ
  Basis Set:
  @DF-RHF Final Energy:  -501.22479391024092
    Total Energy =                       -501.2247939102421697
    Molecular point group: c1
  Basis Set: CC-PVTZ
  Basis Set:
  Basis Set: CC-PVTZ
  Basis Set:
  @DF-RHF Final Energy:  -501.22494867090916
    Total Energy =                       -501.2249486709089297
  Basis Set: CC-PVTZ
  Basis Set:
  Basis Set: CC-PVTZ
  Basis Set:
  @DF-RHF Final Energy:  -501.22476691206862
    Total Energy =                       -501.2247669120683895
  Basis Set: CC-PVTZ
  Basis Set:
  Basis Set: CC-PVTZ
  Basis Set:
  @DF-RHF Final Energy:  -501.22494317479016
    Total Energy =                       -501.2249431747900417
  Basis Set: CC-PVTZ
  Basis Set:
  Basis Set: CC-PVTZ
  Basis Set:
  @DF-RHF Final Energy:  -501.22495378453686
    Total Energy =                       -501.2249537845369787
  Basis Set: CC-PVTZ
  Basis Set:
  Basis Set: CC-PVTZ
  Basis Set:
  @DF-RHF Final Energy:  -501.22495662243625
    Total Energy =                       -501.2249566224359114
  Basis Set: CC-PVTZ
  Basis Set:
  Basis Set: CC-PVTZ
  Basis Set:
  @DF-RHF Final Energy:  -501.22495775316622
    Total Energy =                       -501.2249577531667910
  Basis Set: CC-PVTZ
  Basis Set:
  Charge       = 0
  Multiplicity = 1
  Basis Set: CC-PVTZ
  Basis Set:

    Orbital Energies (a.u.)
    -----------------------

    Doubly Occupied:

       1A    -20.596001     2A    -20.533844     3A    -11.364253
       4A    -11.278253     5A    -11.232931     6A    -11.217039
       7A    -11.215525     8A    -11.213932     9A    -11.213688
      10A    -11.212291    11A    -11.207120    12A     -1.471890
      13A     -1.365489    14A     -1.099372    15A     -1.068050
      16A     -1.020627    17A     -0.978174    18A     -0.929222
      19A     -0.862177    20A     -0.799740    21A     -0.791014
      22A     -0.765647    23A     -0.702973    24A     -0.685461
      25A     -0.676089    26A     -0.651927    27A     -0.629510
      28A     -0.605888    29A     -0.595893    30A     -0.582090
      31A     -0.568125    32A     -0.549743    33A     -0.533160
      34A     -0.531643    35A     -0.517301    36A     -0.512591
      37A     -0.496945    38A     -0.478271    39A     -0.470469
      40A     -0.463044    41A     -0.460567    42A     -0.458119
      43A     -0.443812    44A     -0.437474

  @DF-RHF Final Energy:  -501.22495782956298

   => Energetics <=

    Nuclear Repulsion Energy =            611.1888697790752758
    One-Electron Energy =               -1893.8529106866233178
    Two-Electron Energy =                 781.4390830779855150
    DFT Exchange-Correlation Energy =       0.0000000000000000
    Empirical Dispersion Energy =           0.0000000000000000
    PCM Polarization Energy =               0.0000000000000000
    EFP Energy =                            0.0000000000000000
    Total Energy =                       -501.2249578295625270
    Molecular point group: c1
  Basis Set: CC-PVTZ
  Basis Set:

  -Total Gradient:
     Atom            X                  Y                   Z
    ------   -----------------  -----------------  -----------------
       1       -0.000029200429     0.000026438706     0.000019567637
       2        0.000019461524    -0.000023946668    -0.000049247498
       3        0.000009413794     0.000000662427    -0.000000876267
       4       -0.000012756000    -0.000013964127     0.000024816108
       5        0.000011366623     0.000005992154     0.000000441650
       6        0.000004657757     0.000004215410     0.000002291814
       7        0.000003480777     0.000005016490    -0.000000553389
       8        0.000007140074    -0.000007533188     0.000010529796
       9        0.000002577960     0.000001761225     0.000004111633
      10        0.000004060991    -0.000008872158    -0.000000053254
      11       -0.000001086789     0.000006229835     0.000001413256
      12        0.000002881620    -0.000011291156    -0.000006079463
      13       -0.000005102347     0.000008190752     0.000000631728
      14       -0.000000521532    -0.000003458556    -0.000008157504
      15       -0.000004355975     0.000005716954     0.000007348426
      16        0.000002781314     0.000001400201    -0.000006282719
      17       -0.000003040376     0.000002368814     0.000005562229
      18        0.000003962945    -0.000007074592    -0.000006055369
      19       -0.000002425745     0.000006227301    -0.000005460437
      20       -0.000001411201    -0.000008522637     0.000003464628
      21       -0.000001845551     0.000004035899     0.000006510785
      22       -0.000000544381     0.000002269086    -0.000004475143
      23       -0.000000925631     0.000000842562     0.000003124609
      24        0.000004908320    -0.000004914896     0.000000128552
      25       -0.000001159465     0.000001187799    -0.000002423350
      26        0.000003321850     0.000007138389    -0.000005263771
      27       -0.000000999643    -0.000000528570     0.000002799768
      28       -0.000012300905     0.000002691721     0.000002635997
      29       -0.000002339588    -0.000002279175    -0.000000450447

  **** Optimization is complete! (in 8 steps) ****
    Final optimized geometry and variables:
    Molecular point group: c1

    Geometry (in Angstrom), charge = 0, multiplicity = 1:

    O            3.219312608808     0.959291024871    -0.614105739785
    C            2.698709868612     0.058176438840    -0.050237311808
    C            1.246364043980    -0.005813067770     0.348415722109
    O            3.344100833071    -1.038700168919     0.312316964124
    C            0.453207010185     1.232820654691    -0.049003241347
    H            0.839269855546    -0.907818452756    -0.092281331533
    H            1.216682848207    -0.160520938557     1.422434114813
    C           -0.998367391664     1.217981354313     0.432194754295
    H            0.481498315242     1.345442539188    -1.127236315027
    H            0.951413452552     2.105556571095     0.354892611384
    C           -1.882951205188     0.151251064298    -0.211235307189
    H           -1.429489918848     2.193659121078     0.228843366263
    H           -1.019755135693     1.099322651734     1.513278857083
    C           -3.342450226309     0.243269064523     0.226008448193
    H           -1.826222880756     0.246578181078    -1.293161686812
    H           -1.508032664260    -0.839649685487     0.027694618322
    C           -4.234517264587    -0.821434539078    -0.405970127993
    H           -3.730148942921     1.228245206984    -0.022691565153
    H           -3.398859925943     0.159951640700     1.308941031666
    C           -5.691246022864    -0.721850803694     0.034258230218
    H           -4.179349204996    -0.739305387736    -1.488065755299
    H           -3.849976037445    -1.806579267910    -0.156022342177
    H           -6.296255773578    -1.491085254680    -0.431817595403
    H           -6.115961552624     0.240001750085    -0.233257328826
    H           -5.783802591896    -0.834697713740     1.109388487660
    C            4.720528530194    -1.114346028210     0.001448465484
    H            4.874321105223    -1.055556891509    -1.065851793445
    H            5.057823505549    -2.067950471973     0.373976703057
    H            5.264321479327    -0.313596350665     0.480349846619

  Mulliken Charges: (a.u.)
   Center  Symbol    Alpha    Beta     Spin     Total
       1     O     4.19699  4.19699  0.00000 -0.39397
       2     C     2.80487  2.80487  0.00000  0.39026
       3     C     3.10169  3.10169  0.00000 -0.20338
       4     O     4.14721  4.14721  0.00000 -0.29442
       5     C     3.09264  3.09264  0.00000 -0.18529
       6     H     0.43906  0.43906  0.00000  0.12187
       7     H     0.43991  0.43991  0.00000  0.12017
       8     C     3.10388  3.10388  0.00000 -0.20776
       9     H     0.44624  0.44624  0.00000  0.10753
      10     H     0.43956  0.43956  0.00000  0.12088
      11     C     3.09288  3.09288  0.00000 -0.18576
      12     H     0.44537  0.44537  0.00000  0.10926
      13     H     0.45373  0.45373  0.00000  0.09255
      14     C     3.08602  3.08602  0.00000 -0.17204
      15     H     0.45301  0.45301  0.00000  0.09399
      16     H     0.45410  0.45410  0.00000  0.09180
      17     C     3.08336  3.08336  0.00000 -0.16671
      18     H     0.45383  0.45383  0.00000  0.09234
      19     H     0.45501  0.45501  0.00000  0.08998
      20     C     3.15055  3.15055  0.00000 -0.30110
      21     H     0.45446  0.45446  0.00000  0.09108
      22     H     0.45510  0.45510  0.00000  0.08979
      23     H     0.44835  0.44835  0.00000  0.10330
      24     H     0.45495  0.45495  0.00000  0.09010
      25     H     0.45525  0.45525  0.00000  0.08950
      26     C     3.03813  3.03813  0.00000 -0.07626
      27     H     0.45435  0.45435  0.00000  0.09130
      28     H     0.44527  0.44527  0.00000  0.10945
      29     H     0.45423  0.45423  0.00000  0.09155

   Total alpha = 44.00000, Total beta = 44.00000, Total charge = -0.00000
