                              Psi4 1.0.54 Driver

  ==> Input File <==

--------------------------------------------------------------------------
set {
	reference rhf
	basis cc-pvtz
}

set_num_threads( 4 )
memory 2 gb

molecule MOL {
0 1

O	 -2.081319	 -0.951530	 -0.502732
N	 -1.613558	 0.006676	 0.014756
C	 -0.329345	 -0.171618	 0.743966
O	 -2.068523	 1.100482	 -0.024385
C	 0.238381	 -1.554089	 0.448076
H	 -0.559859	 -0.048480	 1.789011
H	 0.322650	 0.612318	 0.396720
C	 1.560624	 -1.779948	 1.176653
H	 -0.484081	 -2.303273	 0.750284
H	 0.382928	 -1.653512	 -0.621484
C	 2.154584	 -3.154881	 0.891605
H	 1.407522	 -1.666877	 2.245864
H	 2.270143	 -1.011859	 0.883346
H	 1.480860	 -3.944309	 1.205607
H	 2.347757	 -3.285215	 -0.167363
H	 3.091259	 -3.288772	 1.418743

	symmetry c1
}
set optking {
	frozen_dihedral = ("
		5 3 2 1
	")
}

ee,wfn = optimize('scf', return_wfn=True)
oeprop( wfn, 'DIPOLE', 'QUADRUPOLE', 'MULLIKEN_CHARGES')
f=open( 'psi4out.xyz', 'w' )
f.write( "16  " )
f.write( str(ee) + "\n" )
f.write( MOL.save_string_xyz() )
f.close()
--------------------------------------------------------------------------

    Molecular point group: c1
  Charge       = 0
  Multiplicity = 1
  Basis Set: CC-PVTZ
  Basis Set:
  @DF-RHF Final Energy:  -360.90637959368058
    Total Energy =                       -360.9063795936806400
    Molecular point group: c1
  Basis Set: CC-PVTZ
  Basis Set:
  Basis Set: CC-PVTZ
  Basis Set:
  @DF-RHF Final Energy:  -360.90562557916041
    Total Energy =                       -360.9056255791605281
  Basis Set: CC-PVTZ
  Basis Set:
  Basis Set: CC-PVTZ
  Basis Set:
  @DF-RHF Final Energy:  -360.90288746156153
    Total Energy =                       -360.9028874615615905
  Basis Set: CC-PVTZ
  Basis Set:
  Basis Set: CC-PVTZ
  Basis Set:
  @DF-RHF Final Energy:  -360.90431582824868
    Total Energy =                       -360.9043158282485138
  Basis Set: CC-PVTZ
  Basis Set:
  Basis Set: CC-PVTZ
  Basis Set:
  @DF-RHF Final Energy:  -360.90832623433658
    Total Energy =                       -360.9083262343363572
  Basis Set: CC-PVTZ
  Basis Set:
  Basis Set: CC-PVTZ
  Basis Set:
  @DF-RHF Final Energy:  -360.90844549632931
    Total Energy =                       -360.9084454963289090
  Basis Set: CC-PVTZ
  Basis Set:
  Basis Set: CC-PVTZ
  Basis Set:
  @DF-RHF Final Energy:  -360.90845448364792
    Total Energy =                       -360.9084544836480291
  Basis Set: CC-PVTZ
  Basis Set:
  Charge       = 0
  Multiplicity = 1
  Basis Set: CC-PVTZ
  Basis Set:

    Orbital Energies (a.u.)
    -----------------------

    Doubly Occupied:

       1A    -20.593049     2A    -20.586902     3A    -15.837882
       4A    -11.298191     5A    -11.243478     6A    -11.239704
       7A    -11.224198     8A     -1.636526     9A     -1.420634
      10A     -1.133964    11A     -1.058544    12A     -0.948830
      13A     -0.843456    14A     -0.821120    15A     -0.758951
      16A     -0.752538    17A     -0.730579    18A     -0.666769
      19A     -0.615315    20A     -0.602550    21A     -0.565562
      22A     -0.534337    23A     -0.524090    24A     -0.501927
      25A     -0.494326    26A     -0.486759    27A     -0.469072
      28A     -0.452814

  @DF-RHF Final Energy:  -360.90845540696370

   => Energetics <=

    Nuclear Repulsion Energy =            312.4918157018395846
    One-Electron Energy =               -1110.7164066182947408
    Two-Electron Energy =                 437.3161355094915734
    DFT Exchange-Correlation Energy =       0.0000000000000000
    Empirical Dispersion Energy =           0.0000000000000000
    PCM Polarization Energy =               0.0000000000000000
    EFP Energy =                            0.0000000000000000
    Total Energy =                       -360.9084554069635260
    Molecular point group: c1
  Basis Set: CC-PVTZ
  Basis Set:

  -Total Gradient:
     Atom            X                  Y                   Z
    ------   -----------------  -----------------  -----------------
       1        0.000080896375    -0.000028971467    -0.000125082251
       2       -0.000107917279    -0.000093145444     0.000171940436
       3        0.000085029876     0.000088229797    -0.000165804290
       4        0.000000698729     0.000073595441     0.000040280860
       5       -0.000046411240    -0.000047758133     0.000092216319
       6        0.000010177169    -0.000004516039     0.000000345871
       7        0.000007194001     0.000002652916    -0.000009614132
       8        0.000014347280     0.000010921942    -0.000006241524
       9       -0.000017304237    -0.000034756624    -0.000012698424
      10        0.000000538628     0.000028309958     0.000019703028
      11       -0.000026823994    -0.000009026929     0.000006900729
      12       -0.000000986688     0.000005944835    -0.000002565423
      13        0.000004870374     0.000008957026    -0.000013982336
      14       -0.000004709376    -0.000013120065    -0.000001623938
      15        0.000005162027     0.000005724961    -0.000002303988
      16       -0.000004761642     0.000006957823     0.000008529060

  **** Optimization is complete! (in 8 steps) ****
    Final optimized geometry and variables:
    Molecular point group: c1

    Geometry (in Angstrom), charge = 0, multiplicity = 1:

    O           -1.834372420268     0.110834717208    -0.907556149754
    N           -1.268800383384     0.974903602356    -0.330117293681
    C            0.021811223699     0.658814874730     0.354308333742
    O           -1.647327457992     2.094112728400    -0.229492320131
    C            0.578384705006    -0.709404680075     0.020918285057
    H           -0.201443173628     0.768304538988     1.406057750716
    H            0.683519395037     1.462237206725     0.071030632965
    C            1.902967020119    -0.946924579442     0.744650142011
    H           -0.138403159370    -1.470932575410     0.297844304941
    H            0.721977573919    -0.790135777011    -1.049658573483
    C            2.495045325383    -2.317965291565     0.437924206732
    H            1.753759674749    -0.850938815757     1.816486567849
    H            2.615161126431    -0.176061347941     0.464247065512
    H            1.819447624863    -3.111170861260     0.738137624988
    H            2.688056813602    -2.431504053149    -0.623047374631
    H            3.431375100634    -2.462717986310     0.962982418180

  Mulliken Charges: (a.u.)
   Center  Symbol    Alpha    Beta     Spin     Total
       1     O     4.16883  4.16883  0.00000 -0.33766
       2     N     3.27184  3.27184  0.00000  0.45632
       3     C     3.05196  3.05196  0.00000 -0.10392
       4     O     4.17488  4.17488  0.00000 -0.34976
       5     C     3.09316  3.09316  0.00000 -0.18632
       6     H     0.43333  0.43333  0.00000  0.13335
       7     H     0.43172  0.43172  0.00000  0.13656
       8     C     3.09429  3.09429  0.00000 -0.18857
       9     H     0.43786  0.43786  0.00000  0.12429
      10     H     0.44092  0.44092  0.00000  0.11816
      11     C     3.14808  3.14808  0.00000 -0.29615
      12     H     0.45192  0.45192  0.00000  0.09617
      13     H     0.45165  0.45165  0.00000  0.09669
      14     H     0.45191  0.45191  0.00000  0.09618
      15     H     0.45204  0.45204  0.00000  0.09591
      16     H     0.44561  0.44561  0.00000  0.10878

   Total alpha = 28.00000, Total beta = 28.00000, Total charge = -0.00000

*** Psi4 exiting successfully. Buy a developer a beer!
