  ==> Input File <==

--------------------------------------------------------------------------
set {
	reference rhf
	basis 6-31G*
}

set_num_threads( 4 )
memory 2 gb

molecule MOL {
0 1

H	 3.729471	 -0.928294	 -0.070608
O	 2.826016	 -1.159218	 0.122261
C	 2.077727	 -0.067559	 -0.035091
C	 0.624473	 -0.343591	 0.253101
O	 2.542965	 0.974826	 -0.363729
C	 -0.265902	 0.883932	 0.072916
H	 0.324016	 -1.163849	 -0.390541
H	 0.565024	 -0.726111	 1.268924
C	 -1.728698	 0.646073	 0.462102
H	 -0.209144	 1.219470	 -0.958188
H	 0.135059	 1.692851	 0.673903
C	 -2.482460	 -0.343073	 -0.431425
H	 -2.245265	 1.602650	 0.432430
H	 -1.779332	 0.308348	 1.496285
C	 -2.995748	 0.301932	 -1.718662
H	 -1.824656	 -1.173143	 -0.681067
H	 -3.323764	 -0.770524	 0.107904
H	 -3.527288	 -0.417257	 -2.333923
H	 -2.177182	 0.702551	 -2.309663
H	 -3.677365	 1.119757	 -1.502333

	symmetry c1
}
set optking {
	frozen_dihedral = ("
		16 12 9 6
	")
}

ee = optimize('scf')
oeprop('DIPOLE', 'QUADRUPOLE', 'MULLIKEN_CHARGES')
f=open( 'psi4out.xyz', 'w' )
f.write( "20  " )
f.write( str(ee) + "\n" )
f.write( MOL.save_string_xyz() )
f.close()
--------------------------------------------------------------------------

    Molecular point group: c1
  Charge       = 0
  Multiplicity = 1
  Basis Set: 6-31G*
  Basis Set:
  @DF-RHF Final Energy:  -383.94572675608862
    Total Energy =                       -383.9457267560885612
    Molecular point group: c1
  Basis Set: 6-31G*
  Basis Set:
  Basis Set: 6-31G*
  Basis Set:
  @DF-RHF Final Energy:  -383.94589498065642
    Total Energy =                       -383.9458949806561918
  Basis Set: 6-31G*
  Basis Set:
  Basis Set: 6-31G*
  Basis Set:
  @DF-RHF Final Energy:  -383.94614384889064
    Total Energy =                       -383.9461438488903582
  Basis Set: 6-31G*
  Basis Set:
  Basis Set: 6-31G*
  Basis Set:
  @DF-RHF Final Energy:  -383.94616375216896
    Total Energy =                       -383.9461637521692978
  Basis Set: 6-31G*
  Basis Set:
  Basis Set: 6-31G*
  Basis Set:
  @DF-RHF Final Energy:  -383.94609403002016
    Total Energy =                       -383.9460940300201628
  Basis Set: 6-31G*
  Basis Set:
  Basis Set: 6-31G*
  Basis Set:
  @DF-RHF Final Energy:  -383.94616891890433
    Total Energy =                       -383.9461689189045046
  Basis Set: 6-31G*
  Basis Set:
  Basis Set: 6-31G*
  Basis Set:
  @DF-RHF Final Energy:  -383.94617067430210
    Total Energy =                       -383.9461706743018681
  Basis Set: 6-31G*
  Basis Set:
  Charge       = 0
  Multiplicity = 1
  Basis Set: 6-31G*
  Basis Set:

    Orbital Energies (a.u.)
    -----------------------

    Doubly Occupied:

       1A    -20.612686     2A    -20.551784     3A    -11.381377
       4A    -11.240411     5A    -11.223062     6A    -11.220723
       7A    -11.220111     8A    -11.211320     9A     -1.474761
      10A     -1.365810    11A     -1.095823    12A     -1.039381
      13A     -0.958959    14A     -0.874949    15A     -0.815500
      16A     -0.771295    17A     -0.699691    18A     -0.690581
      19A     -0.666608    20A     -0.626407    21A     -0.617145
      22A     -0.583230    23A     -0.576895    24A     -0.566841
      25A     -0.524095    26A     -0.510817    27A     -0.509644
      28A     -0.479519    29A     -0.468735    30A     -0.461064
      31A     -0.457961    32A     -0.443937

  @DF-RHF Final Energy:  -383.94617086769006

   => Energetics <=

    Nuclear Repulsion Energy =            379.2040693264932543
    One-Electron Energy =               -1274.4182410907380927
    Two-Electron Energy =                 511.2680008965547813
    DFT Exchange-Correlation Energy =       0.0000000000000000
    Empirical Dispersion Energy =           0.0000000000000000
    PCM Polarization Energy =               0.0000000000000000
    EFP Energy =                            0.0000000000000000
    Total Energy =                       -383.9461708676900571
    Molecular point group: c1
  Basis Set: 6-31G*
  Basis Set:

  -Total Gradient:
     Atom            X                  Y                   Z
    ------   -----------------  -----------------  -----------------
       1       -0.000000542173     0.000001661902     0.000001101032
       2       -0.000004271446    -0.000005070395    -0.000006352719
       3        0.000000812915     0.000008950585     0.000001484685
       4       -0.000000966622    -0.000006504021    -0.000034624051
       5        0.000001432136     0.000001713018     0.000006688358
       6        0.000550455102    -0.001462282238     0.001066891590
       7        0.000001133669    -0.000004192296     0.000009481929
       8       -0.000003889818     0.000008506878     0.000009491545
       9       -0.000618689392     0.002438934783    -0.001955625803
      10        0.000003670190    -0.000005969007     0.000009089019
      11        0.000005196350    -0.000000796546    -0.000006902153
      12       -0.000709791781    -0.002307123209     0.002940883965
      13       -0.000002424230     0.000010428286     0.000024981043
      14        0.000020443165     0.000009218568    -0.000010668369
      15        0.000001833616    -0.000013586865    -0.000020845119
      16        0.000752648478     0.001321968375    -0.002030267076
      17        0.000011779839     0.000000154087     0.000003766386
      18       -0.000007833437     0.000007792448    -0.000006284360
      19       -0.000011193195    -0.000004289420    -0.000008662350
      20        0.000010196630     0.000000485066     0.000006372446

  **** Optimization is complete! (in 8 steps) ****
    Final optimized geometry and variables:
    Molecular point group: c1

    Geometry (in Angstrom), charge = 0, multiplicity = 1:

    H            3.626312588900    -1.007715004296     0.178044661533
    O            2.732498915339    -1.229757300065     0.420024237545
    C            1.963257145536    -0.168265479359     0.179567144765
    C            0.523414718924    -0.432759101039     0.537311025555
    O            2.402604135130     0.842624823220    -0.263300616077
    C           -0.388244893676     0.764937219576     0.279561422141
    H            0.214604228858    -1.311482877104    -0.019567690331
    H            0.500243367693    -0.723359538550     1.584317250042
    C           -1.848577730760     0.511997840189     0.677397766188
    H           -0.321753532075     1.048401937557    -0.765707895129
    H           -0.007943899754     1.611876733799     0.840573129450
    C           -2.624776255120    -0.438683416888    -0.248954676437
    H           -2.370841246443     1.464388575924     0.718352569208
    H           -1.865463821824     0.119349133028     1.692195027029
    C           -3.161385362891     0.250071731607    -1.506400219497
    H           -1.990748929276    -1.266468046862    -0.555046569113
    H           -3.457353427628    -0.872565116551     0.297163016959
    H           -3.687933092389    -0.454659229062    -2.142666332878
    H           -2.362077782171     0.688870422040    -2.095895826021
    H           -3.854933293199     1.045253093767    -1.248463593801

  Mulliken Charges: (a.u.)
   Center  Symbol    Alpha    Beta     Spin     Total
       1     H     0.26783  0.26783  0.00000  0.46434
       2     O     4.35147  4.35147  0.00000 -0.70294
       3     C     2.62258  2.62258  0.00000  0.75483
       4     C     3.21170  3.21170  0.00000 -0.42340
       5     O     4.27923  4.27923  0.00000 -0.55845
       6     C     3.15595  3.15595  0.00000 -0.31189
       7     H     0.39756  0.39756  0.00000  0.20488
       8     H     0.39876  0.39876  0.00000  0.20248
       9     C     3.15918  3.15918  0.00000 -0.31835
      10     H     0.41026  0.41026  0.00000  0.17948
      11     H     0.40888  0.40888  0.00000  0.18224
      12     C     3.15562  3.15562  0.00000 -0.31123
      13     H     0.41692  0.41692  0.00000  0.16616
      14     H     0.42205  0.42205  0.00000  0.15589
      15     C     3.24053  3.24053  0.00000 -0.48105
      16     H     0.42346  0.42346  0.00000  0.15308
      17     H     0.41856  0.41856  0.00000  0.16288
      18     H     0.41888  0.41888  0.00000  0.16224
      19     H     0.41979  0.41979  0.00000  0.16043
      20     H     0.42081  0.42081  0.00000  0.15839

   Total alpha = 32.00000, Total beta = 32.00000, Total charge =  0.00000
