                              Psi4 1.0.54 Driver

  ==> Input File <==

--------------------------------------------------------------------------
set {
	reference rhf
	basis cc-pvtz
}

set_num_threads( 4 )
memory 2 gb

molecule MOL {
0 1

H	 -2.289660	 1.772250	 -0.467627
O	 -1.452422	 1.333833	 -0.490873
C	 -1.605397	 0.107680	 0.001145
C	 -0.310616	 -0.658853	 0.000791
O	 -2.650582	 -0.290218	 0.384858
C	 0.926581	 0.227233	 0.000178
H	 -0.327628	 -1.313681	 -0.864448
H	 -0.327041	 -1.313334	 0.866298
C	 2.220156	 -0.582071	 -0.000088
H	 0.899945	 0.878221	 -0.866390
H	 0.900542	 0.878581	 0.866486
C	 3.466689	 0.296012	 -0.000457
H	 2.239073	 -1.234095	 -0.869382
H	 2.239505	 -1.233985	 0.869270
H	 3.493549	 0.935857	 -0.875887
H	 4.368821	 -0.304526	 -0.001199
H	 3.494559	 0.935166	 0.875458

	symmetry c1
}
set optking {
	frozen_dihedral = ("
		2 3 4 7
	")
}

ee,wfn = optimize('scf', return_wfn=True)
oeprop( wfn, 'DIPOLE', 'QUADRUPOLE', 'MULLIKEN_CHARGES')
f=open( 'psi4out.xyz', 'w' )
f.write( "17  " )
f.write( str(ee) + "\n" )
f.write( MOL.save_string_xyz() )
f.close()
--------------------------------------------------------------------------

    Molecular point group: c1
  Charge       = 0
  Multiplicity = 1
  Basis Set: CC-PVTZ
  Basis Set:
  @DF-RHF Final Energy:  -345.04552019695143
    Total Energy =                       -345.0455201969516565
    Molecular point group: c1
  Basis Set: CC-PVTZ
  Basis Set:
  Basis Set: CC-PVTZ
  Basis Set:
  @DF-RHF Final Energy:  -345.04607860233665
    Total Energy =                       -345.0460786023365927
  Basis Set: CC-PVTZ
  Basis Set:
  Basis Set: CC-PVTZ
  Basis Set:
  @DF-RHF Final Energy:  -345.04643051048771
    Total Energy =                       -345.0464305104877667
  Basis Set: CC-PVTZ
  Basis Set:
  Basis Set: CC-PVTZ
  Basis Set:
  @DF-RHF Final Energy:  -345.04648612083821
    Total Energy =                       -345.0464861208383809
  Basis Set: CC-PVTZ
  Basis Set:
  Basis Set: CC-PVTZ
  Basis Set:
  @DF-RHF Final Energy:  -345.04649771499396
    Total Energy =                       -345.0464977149939614
  Basis Set: CC-PVTZ
  Basis Set:
  Basis Set: CC-PVTZ
  Basis Set:
  @DF-RHF Final Energy:  -345.04650492737079
    Total Energy =                       -345.0465049273706200
  Basis Set: CC-PVTZ
  Basis Set:
  Charge       = 0
  Multiplicity = 1
  Basis Set: CC-PVTZ
  Basis Set:

    Orbital Energies (a.u.)
    -----------------------

    Doubly Occupied:

       1A    -20.606431     2A    -20.536918     3A    -11.373883
       4A    -11.239390     5A    -11.226157     6A    -11.223437
       7A    -11.213453     8A     -1.478647     9A     -1.367804
      10A     -1.095341    11A     -1.020225    12A     -0.910418
      13A     -0.827581    14A     -0.809305    15A     -0.703287
      16A     -0.681084    17A     -0.668236    18A     -0.633585
      19A     -0.593233    20A     -0.582757    21A     -0.577472
      22A     -0.536317    23A     -0.517035    24A     -0.500613
      25A     -0.485374    26A     -0.481009    27A     -0.470534
      28A     -0.436673

  @DF-RHF Final Energy:  -345.04650493994762

   => Energetics <=

    Nuclear Repulsion Energy =            305.3533706253045352
    One-Electron Energy =               -1075.2073559547570767
    Two-Electron Energy =                 424.8074803895049172
    DFT Exchange-Correlation Energy =       0.0000000000000000
    Empirical Dispersion Energy =           0.0000000000000000
    PCM Polarization Energy =               0.0000000000000000
    EFP Energy =                            0.0000000000000000
    Total Energy =                       -345.0465049399476811
    Molecular point group: c1
  Basis Set: CC-PVTZ
  Basis Set:

  -Total Gradient:
     Atom            X                  Y                   Z
    ------   -----------------  -----------------  -----------------
       1       -0.000001037086     0.000003177558     0.000000186976
       2        0.000129135091     0.000254412818     0.000639108935
       3       -0.000259665979    -0.000475516667    -0.000794291618
       4        0.000388357594     0.000822565928    -0.000295951469
       5        0.000017865745     0.000016672798    -0.000002780081
       6        0.000007582060     0.000001316770     0.000017122992
       7       -0.000290346099    -0.000623748999     0.000434772353
       8        0.000005425249     0.000001323745    -0.000000207734
       9        0.000001305197    -0.000001495048     0.000004550509
      10        0.000002813232    -0.000001269793     0.000004194330
      11        0.000001388248     0.000001227003     0.000002855822
      12       -0.000001348371     0.000000781145    -0.000010159200
      13       -0.000000107532    -0.000003788224     0.000000999130
      14       -0.000000506028     0.000004331106     0.000002815652
      15        0.000001794122     0.000003929666    -0.000000758856
      16       -0.000001196726    -0.000000638272    -0.000003108702
      17       -0.000001458722    -0.000003281537     0.000000650962

  **** Optimization is complete! (in 7 steps) ****
    Final optimized geometry and variables:
    Molecular point group: c1

    Geometry (in Angstrom), charge = 0, multiplicity = 1:

    H           -2.557847469245     1.531408507698    -0.328284826585
    O           -1.672676645266     1.203265779545    -0.382426019821
    C           -1.667493191504    -0.048612705890     0.060485753161
    C           -0.316283850312    -0.715396453710    -0.001288544354
    O           -2.651721942641    -0.580341334837     0.445899541484
    C            0.899427451664     0.205682333459    -0.012478927409
    H           -0.333111050940    -1.334610793546    -0.893931995499
    H           -0.282743133789    -1.400262826173     0.835711449869
    C            2.209792823873    -0.576299303855    -0.034220833452
    H            0.852495360220     0.862295441670    -0.872788944351
    H            0.875938430989     0.846993911197     0.863217762124
    C            3.438033242440     0.327052564637    -0.045177435007
    H            2.229058549782    -1.221381138357    -0.908508300929
    H            2.253170540670    -1.233344965241     0.829901734091
    H            3.440775078943     0.972968064069    -0.916615996852
    H            4.351754401609    -0.255280671941    -0.061881126318
    H            3.465320416862     0.960591580175     0.834924401375

  Mulliken Charges: (a.u.)
   Center  Symbol    Alpha    Beta     Spin     Total
       1     H     0.38325  0.38325  0.00000  0.23349
       2     O     4.15346  4.15346  0.00000 -0.30693
       3     C     2.81334  2.81334  0.00000  0.37332
       4     C     3.09626  3.09626  0.00000 -0.19252
       5     O     4.19604  4.19604  0.00000 -0.39208
       6     C     3.08973  3.08973  0.00000 -0.17947
       7     H     0.44108  0.44108  0.00000  0.11784
       8     H     0.43459  0.43459  0.00000  0.13081
       9     C     3.08789  3.08789  0.00000 -0.17577
      10     H     0.44436  0.44436  0.00000  0.11127
      11     H     0.44874  0.44874  0.00000  0.10251
      12     C     3.14933  3.14933  0.00000 -0.29865
      13     H     0.45378  0.45378  0.00000  0.09244
      14     H     0.45289  0.45289  0.00000  0.09421
      15     H     0.45407  0.45407  0.00000  0.09185
      16     H     0.44714  0.44714  0.00000  0.10573
      17     H     0.45403  0.45403  0.00000  0.09193

   Total alpha = 28.00000, Total beta = 28.00000, Total charge =  0.00000

*** Psi4 exiting successfully. Buy a developer a beer!
