                              Psi4 1.0.54 Driver

  ==> Input File <==

--------------------------------------------------------------------------
set {
	reference rhf
	basis cc-pvtz
}

set_num_threads( 4 )
memory 2 gb

molecule MOL {
0 1

H	 -2.816458	 -0.841657	 -0.064679
N	 -1.878861	 -0.711874	 0.250184
C	 -1.341419	 0.551458	 -0.220231
H	 -1.333674	 -1.468530	 -0.105118
C	 0.082190	 0.731516	 0.254705
H	 -1.357065	 0.652078	 -1.304747
H	 -1.939897	 1.357530	 0.189797
O	 0.881195	 -0.248324	 -0.336237
H	 0.440901	 1.722476	 -0.020063
H	 0.119896	 0.643586	 1.338114
C	 0.254836	 -0.973038	 -1.342062
H	 0.962101	 -1.697273	 -1.719745
H	 -0.618914	 -1.501395	 -0.966435
H	 -0.058309	 -0.329053	 -2.160467

	symmetry c1
}
set optking {
	frozen_dihedral = ("
		11 8 5 3
	")
}

ee,wfn = optimize('scf', return_wfn=True)
oeprop( wfn, 'DIPOLE', 'QUADRUPOLE', 'MULLIKEN_CHARGES')
f=open( 'psi4out.xyz', 'w' )
f.write( "14  " )
f.write( str(ee) + "\n" )
f.write( MOL.save_string_xyz() )
f.close()
--------------------------------------------------------------------------

    Molecular point group: c1
  Charge       = 0
  Multiplicity = 1
  Basis Set: CC-PVTZ
  Basis Set:
  @DF-RHF Final Energy:  -248.16226462514359
    Total Energy =                       -248.1622646251437345
    Molecular point group: c1
  Basis Set: CC-PVTZ
  Basis Set:
  Basis Set: CC-PVTZ
  Basis Set:
  @DF-RHF Final Energy:  -248.18791761236588
    Total Energy =                       -248.1879176123658226
  Basis Set: CC-PVTZ
  Basis Set:
  Basis Set: CC-PVTZ
  Basis Set:
  @DF-RHF Final Energy:  -248.19115616894115
    Total Energy =                       -248.1911561689412338
  Basis Set: CC-PVTZ
  Basis Set:
  Basis Set: CC-PVTZ
  Basis Set:
  @DF-RHF Final Energy:  -248.20251190587322
    Total Energy =                       -248.2025119058728819
  Basis Set: CC-PVTZ
  Basis Set:
  @DF-RHF Final Energy:  -248.21057615643204
    Total Energy =                       -248.2105761564318982
  @DF-RHF Final Energy:  -248.21127786414917
    Total Energy =                       -248.2112778641491104
  @DF-RHF Final Energy:  -248.21149535978327
    Total Energy =                       -248.2114953597831573
  @DF-RHF Final Energy:  -248.21164947727576
    Total Energy =                       -248.2116494772757846
  @DF-RHF Final Energy:  -248.21172426189324
    Total Energy =                       -248.2117242618930959
  Basis Set: CC-PVTZ
  Basis Set:
  @DF-RHF Final Energy:  -248.21175151108596
    Total Energy =                       -248.2117515110860495
  Basis Set: CC-PVTZ
  Basis Set:
  Basis Set: CC-PVTZ
  Basis Set:
  @DF-RHF Final Energy:  -248.21177026330031
    Total Energy =                       -248.2117702633004228
  Basis Set: CC-PVTZ
  Basis Set:
  Basis Set: CC-PVTZ
  Basis Set:
  @DF-RHF Final Energy:  -248.21177404234876
    Total Energy =                       -248.2117740423486794
  Basis Set: CC-PVTZ
  Basis Set:
  Charge       = 0
  Multiplicity = 1
  Basis Set: CC-PVTZ
  Basis Set:

    Orbital Energies (a.u.)
    -----------------------

    Doubly Occupied:

       1A    -20.543429     2A    -15.534225     3A    -11.265337
       4A    -11.264392     5A    -11.248634     6A     -1.372519
       7A     -1.184198     8A     -1.002801     9A     -0.924928
      10A     -0.805961    11A     -0.687650    12A     -0.677225
      13A     -0.647501    14A     -0.613815    15A     -0.608406
      16A     -0.550554    17A     -0.538129    18A     -0.522343
      19A     -0.452711    20A     -0.409915    21A     -0.392489

  @DF-RHF Final Energy:  -248.21177456647382

   => Energetics <=

    Nuclear Repulsion Energy =            196.5828995030320243
    One-Electron Energy =                -727.0950242080887165
    Two-Electron Energy =                 282.3003501385829281
    DFT Exchange-Correlation Energy =       0.0000000000000000
    Empirical Dispersion Energy =           0.0000000000000000
    PCM Polarization Energy =               0.0000000000000000
    EFP Energy =                            0.0000000000000000
    Total Energy =                       -248.2117745664738209
    Molecular point group: c1
  Basis Set: CC-PVTZ
  Basis Set:

  -Total Gradient:
     Atom            X                  Y                   Z
    ------   -----------------  -----------------  -----------------
       1        0.000017544735    -0.000014319664     0.000001222410
       2        0.000018312982    -0.000021463516    -0.000057452240
       3        0.001539379809     0.002717607895    -0.001520753330
       4       -0.000017859148     0.000051462903     0.000057444073
       5       -0.003631600486    -0.005638290304     0.003094691823
       6        0.000003580352     0.000009514928    -0.000000863693
       7        0.000006336262     0.000011202758    -0.000003364792
       8        0.004404691655     0.005758751932    -0.002949279389
       9        0.000003373723     0.000002548994    -0.000007520315
      10        0.000006403543    -0.000002358070    -0.000004851296
      11       -0.002359382934    -0.002844068423     0.001417260985
      12        0.000006397107    -0.000007661557    -0.000008559710
      13        0.000006806666    -0.000014274813    -0.000008709803
      14       -0.000003984264    -0.000008653064    -0.000009264723

  **** Optimization is complete! (in 13 steps) ****
    Final optimized geometry and variables:
    Molecular point group: c1

    Geometry (in Angstrom), charge = 0, multiplicity = 1:

    H           -2.485943751183     0.630343910267     1.022469461082
    N           -1.639809088944     0.102867644773     0.990399959867
    C           -0.508778368143     0.944340044016     0.632618858082
    H           -1.775580292997    -0.641405873625     0.341972948817
    C            0.806214823642     0.180507356641     0.625487940107
    H           -0.639145140858     1.477368643930    -0.306598846235
    H           -0.412883721536     1.699914669132     1.403681391286
    O            1.106009748859    -0.622636520733    -0.491617658085
    H            1.606877071017     0.909041356220     0.717125627293
    H            0.838757369099    -0.460223773867     1.496789061464
    C            0.344565925727    -0.572989390269    -1.651241667324
    H            0.767913877100    -1.300616120516    -2.328836338717
    H           -0.696566306324    -0.832537398672    -1.489743579831
    H            0.383263056993     0.399650132185    -2.134505144968

  Mulliken Charges: (a.u.)
   Center  Symbol    Alpha    Beta     Spin     Total
       1     H     0.42871  0.42871  0.00000  0.14257
       2     N     3.68985  3.68985  0.00000 -0.37970
       3     C     3.06051  3.06051  0.00000 -0.12102
       4     H     0.42543  0.42543  0.00000  0.14915
       5     C     2.96396  2.96396  0.00000  0.07209
       6     H     0.45627  0.45627  0.00000  0.08746
       7     H     0.44618  0.44618  0.00000  0.10764
       8     O     4.18216  4.18216  0.00000 -0.36433
       9     H     0.46557  0.46557  0.00000  0.06886
      10     H     0.45828  0.45828  0.00000  0.08345
      11     C     3.03429  3.03429  0.00000 -0.06858
      12     H     0.43977  0.43977  0.00000  0.12046
      13     H     0.47889  0.47889  0.00000  0.04223
      14     H     0.47013  0.47013  0.00000  0.05973

   Total alpha = 21.00000, Total beta = 21.00000, Total charge =  0.00000

*** Psi4 exiting successfully. Buy a developer a beer!
