                              Psi4 1.0.54 Driver

  ==> Input File <==

--------------------------------------------------------------------------
set {
	reference rhf
	basis cc-pvtz
}

set_num_threads( 4 )
memory 2 gb

molecule MOL {
0 1

O	 1.333054	 -2.743886	 0.403399
C	 0.418092	 -2.017797	 0.214932
C	 -1.023549	 -2.438004	 0.187501
O	 0.550743	 -0.719877	 0.000412
H	 -1.574600	 -1.894063	 0.943725
H	 -1.094228	 -3.498439	 0.366430
H	 -1.454897	 -2.192028	 -0.774201
C	 1.863204	 -0.194033	 0.000410
H	 2.031502	 0.409177	 -0.879273
H	 2.524488	 -1.045142	 0.000793
H	 2.031291	 0.409823	 0.879686

	symmetry c1
}
set optking {
	frozen_dihedral = ("
		2 4 8 9
	")
}

ee,wfn = optimize('scf', return_wfn=True)
oeprop( wfn, 'DIPOLE', 'QUADRUPOLE', 'MULLIKEN_CHARGES')
f=open( 'psi4out.xyz', 'w' )
f.write( "11  " )
f.write( str(ee) + "\n" )
f.write( MOL.save_string_xyz() )
f.close()
--------------------------------------------------------------------------

    Molecular point group: c1
  Charge       = 0
  Multiplicity = 1
  Basis Set: CC-PVTZ
  Basis Set:
  @DF-RHF Final Energy:  -266.93536547750762
    Total Energy =                       -266.9353654775076734
    Molecular point group: c1
  Basis Set: CC-PVTZ
  Basis Set:
  Basis Set: CC-PVTZ
  Basis Set:
  @DF-RHF Final Energy:  -266.91130639555286
    Total Energy =                       -266.9113063955527991
  Basis Set: CC-PVTZ
  Basis Set:
  Basis Set: CC-PVTZ
  Basis Set:
  @DF-RHF Final Energy:  -266.93683850482449
    Total Energy =                       -266.9368385048246068
  Basis Set: CC-PVTZ
  Basis Set:
  Basis Set: CC-PVTZ
  Basis Set:
  @DF-RHF Final Energy:  -266.93726307418137
    Total Energy =                       -266.9372630741813737
  Basis Set: CC-PVTZ
  Basis Set:
  Basis Set: CC-PVTZ
  Basis Set:
  @DF-RHF Final Energy:  -266.93647100942701
    Total Energy =                       -266.9364710094268958
  Basis Set: CC-PVTZ
  Basis Set:
  Basis Set: CC-PVTZ
  Basis Set:
  @DF-RHF Final Energy:  -266.93728026473815
    Total Energy =                       -266.9372802647382059
  Basis Set: CC-PVTZ
  Basis Set:
  Charge       = 0
  Multiplicity = 1
  Basis Set: CC-PVTZ
  Basis Set:

    Orbital Energies (a.u.)
    -----------------------

    Doubly Occupied:

       1A    -20.597690     2A    -20.534552     3A    -11.370109
       4A    -11.278505     5A    -11.232541     6A     -1.471735
       7A     -1.368269     8A     -1.037033     9A     -0.954108
      10A     -0.779123    11A     -0.699346    12A     -0.682358
      13A     -0.680974    14A     -0.598209    15A     -0.592567
      16A     -0.561443    17A     -0.530990    18A     -0.520450
      19A     -0.458598    20A     -0.446144

  @DF-RHF Final Energy:  -266.93728230640255

   => Energetics <=

    Nuclear Repulsion Energy =            183.2599254104263196
    One-Electron Energy =                -727.6049244323767198
    Two-Electron Energy =                 277.4077167155479628
    DFT Exchange-Correlation Energy =       0.0000000000000000
    Empirical Dispersion Energy =           0.0000000000000000
    PCM Polarization Energy =               0.0000000000000000
    EFP Energy =                            0.0000000000000000
    Total Energy =                       -266.9372823064023805
    Molecular point group: c1
  Basis Set: CC-PVTZ
  Basis Set:

  -Total Gradient:
     Atom            X                  Y                   Z
    ------   -----------------  -----------------  -----------------
       1       -0.000089545428    -0.000000222526     0.000037514656
       2        0.000068391602     0.000167812606    -0.000658122051
       3       -0.000032091633     0.000085009241     0.000021325088
       4        0.000054223650    -0.000308288970     0.000762393409
       5        0.000023510959    -0.000011689402    -0.000015933354
       6        0.000055442076     0.000048396005    -0.000006874195
       7        0.000036281931    -0.000018771407     0.000018607643
       8       -0.000209080498     0.000499945240     0.000290415120
       9        0.000145525904    -0.000458733217    -0.000448503880
      10       -0.000025822035     0.000008934773     0.000010010114
      11       -0.000026836529    -0.000012392343    -0.000010832549

  **** Optimization is complete! (in 7 steps) ****
    Final optimized geometry and variables:
    Molecular point group: c1

    Geometry (in Angstrom), charge = 0, multiplicity = 1:

    O            0.740671707686    -1.141507239966    -0.171202382614
    C           -0.194918509299    -0.436963928119    -0.006648537393
    C           -1.612180185534    -0.916454483423     0.128425239587
    O           -0.128918754434     0.881544706962     0.084344161196
    H           -2.011755118948    -0.600911928160     1.083432729343
    H           -1.638486587210    -1.991005107569     0.050679930905
    H           -2.221522847727    -0.470239302916    -0.646656031986
    C            1.124728677215     1.528282731976    -0.031915789760
    H            1.014076691839     2.321964240346    -0.755163051889
    H            1.885187028604     0.837662123791    -0.352698609186
    H            1.388400425824     1.946244517139     0.928949548464

  Mulliken Charges: (a.u.)
   Center  Symbol    Alpha    Beta     Spin     Total
       1     O     4.19708  4.19708  0.00000 -0.39416
       2     C     2.79797  2.79797  0.00000  0.40406
       3     C     3.13947  3.13947  0.00000 -0.27893
       4     O     4.14997  4.14997  0.00000 -0.29994
       5     H     0.44558  0.44558  0.00000  0.10884
       6     H     0.43801  0.43801  0.00000  0.12398
       7     H     0.44579  0.44579  0.00000  0.10843
       8     C     3.03703  3.03703  0.00000 -0.07406
       9     H     0.45141  0.45141  0.00000  0.09719
      10     H     0.44345  0.44345  0.00000  0.11310
      11     H     0.45425  0.45425  0.00000  0.09150

   Total alpha = 20.00000, Total beta = 20.00000, Total charge =  0.00000

*** Psi4 exiting successfully. Buy a developer a beer!
