  ==> Input File <==

--------------------------------------------------------------------------
set {
	reference rhf
	basis 6-31G*
}

set_num_threads( 4 )
memory 2 gb

molecule MOL {
0 1

H	 2.332609	 0.878551	 -1.051851
C	 2.357710	 0.000000	 -0.417167
C	 1.175432	 0.000000	 0.532082
H	 3.291263	 0.000000	 0.136880
H	 2.332609	 -0.878551	 -1.051851
O	 0.000000	 0.000000	 -0.221444
H	 1.206604	 0.877321	 1.177902
H	 1.206604	 -0.877321	 1.177902
C	 -1.175432	 0.000000	 0.532082
C	 -1.073339	 -1.084889	 1.586334
H	 -2.034859	 -0.177706	 -0.114101
H	 -1.320035	 0.973135	 1.000959
H	 -0.940758	 -2.054226	 1.119309
H	 -1.973474	 -1.113117	 2.192511
H	 -0.224932	 -0.901772	 2.235933

	symmetry c1
}
set optking {
	frozen_dihedral = ("
		11 9 6 3
	")
}

ee = optimize('scf')
oeprop('DIPOLE', 'QUADRUPOLE', 'MULLIKEN_CHARGES')
f=open( 'psi4out.xyz', 'w' )
f.write( "15  " )
f.write( str(ee) + "\n" )
f.write( MOL.save_string_xyz() )
f.close()
--------------------------------------------------------------------------

    Molecular point group: c1
  Charge       = 0
  Multiplicity = 1
  Basis Set: 6-31G*
  Basis Set:
  @DF-RHF Final Energy:  -232.13158442170521
    Total Energy =                       -232.1315844217053268
    Molecular point group: c1
  Basis Set: 6-31G*
  Basis Set:
  Basis Set: 6-31G*
  Basis Set:
  @DF-RHF Final Energy:  -232.13192998942287
    Total Energy =                       -232.1319299894229857
  Basis Set: 6-31G*
  Basis Set:
  Basis Set: 6-31G*
  Basis Set:
  @DF-RHF Final Energy:  -232.13796949677948
    Total Energy =                       -232.1379694967794762
  Basis Set: 6-31G*
  Basis Set:
  Basis Set: 6-31G*
  Basis Set:
  @DF-RHF Final Energy:  -232.13997244345992
    Total Energy =                       -232.1399724434599534
  Basis Set: 6-31G*
  Basis Set:
  Basis Set: 6-31G*
  Basis Set:
  @DF-RHF Final Energy:  -232.14023168890893
    Total Energy =                       -232.1402316889087842
  Basis Set: 6-31G*
  Basis Set:
  Basis Set: 6-31G*
  Basis Set:
  @DF-RHF Final Energy:  -232.14028926014723
    Total Energy =                       -232.1402892601471990
  Basis Set: 6-31G*
  Basis Set:
  Basis Set: 6-31G*
  Basis Set:
  @DF-RHF Final Energy:  -232.14029421134907
    Total Energy =                       -232.1402942113488734
  Basis Set: 6-31G*
  Basis Set:
  Charge       = 0
  Multiplicity = 1
  Basis Set: 6-31G*
  Basis Set:

    Orbital Energies (a.u.)
    -----------------------

    Doubly Occupied:

       1A    -20.549097     2A    -11.268627     3A    -11.267078
       4A    -11.213813     5A    -11.207698     6A     -1.373176
       7A     -1.039883     8A     -0.988915     9A     -0.868442
      10A     -0.803230    11A     -0.674646    12A     -0.656563
      13A     -0.629411    14A     -0.588937    15A     -0.547313
      16A     -0.537966    17A     -0.524569    18A     -0.503048
      19A     -0.491560    20A     -0.452031    21A     -0.407347

  @DF-RHF Final Energy:  -232.14029468381977

   => Energetics <=

    Nuclear Repulsion Energy =            193.2211518191779760
    One-Electron Energy =                -697.5361914745549257
    Two-Electron Energy =                 272.1747449715570610
    DFT Exchange-Correlation Energy =       0.0000000000000000
    Empirical Dispersion Energy =           0.0000000000000000
    PCM Polarization Energy =               0.0000000000000000
    EFP Energy =                            0.0000000000000000
    Total Energy =                       -232.1402946838198886
    Molecular point group: c1
  Basis Set: 6-31G*
  Basis Set:

  -Total Gradient:
     Atom            X                  Y                   Z
    ------   -----------------  -----------------  -----------------
       1       -0.000000362840    -0.000002850953     0.000002097232
       2        0.000013870583    -0.000004732318     0.000008320198
       3       -0.000039451409    -0.003360597289     0.000167445207
       4        0.000012049086     0.000004192863    -0.000004936804
       5       -0.000002592602     0.000002484393     0.000004981288
       6        0.000143404391     0.004081993869    -0.000097350637
       7       -0.000005361696     0.000003084974     0.000004273418
       8        0.000000191699     0.000010009352    -0.000002059114
       9       -0.000402889095     0.003138613963    -0.000905683058
      10       -0.000008994387     0.000009806691    -0.000002919017
      11        0.000299763123    -0.003884721469     0.000828689227
      12       -0.000017516936    -0.000006234985     0.000017100063
      13        0.000002753574    -0.000001131255    -0.000005097907
      14        0.000004334750     0.000002060557    -0.000001760448
      15        0.000000801760     0.000008021607    -0.000013099646

  **** Optimization is complete! (in 8 steps) ****
    Final optimized geometry and variables:
    Molecular point group: c1

    Geometry (in Angstrom), charge = 0, multiplicity = 1:

    H            1.998944408687     1.263259026986    -1.454077636465
    C            2.114989911084     0.334282106661    -0.907538563514
    C            0.989048839548     0.163948193630     0.094331858608
    H            3.076464536697     0.345653575312    -0.403101391873
    H            2.109489846196    -0.482143760749    -1.620979464254
    O           -0.217692604895     0.138540979087    -0.610910365911
    H            0.993321740066     0.987000348481     0.809542606124
    H            1.127092614492    -0.755630153432     0.656321000728
    C           -1.399955257675     0.195762937390     0.137011633345
    C           -1.495136429372    -0.820566450810     1.271002975332
    H           -2.192096670369    -0.016567353117    -0.569515462813
    H           -1.544710826699     1.202504172852     0.526699015773
    H           -1.307461418983    -1.823557669027     0.901470317676
    H           -2.496112263482    -0.796312948858     1.691180880863
    H           -0.797889241360    -0.615865548596     2.075775158079

  Mulliken Charges: (a.u.)
   Center  Symbol    Alpha    Beta     Spin     Total
       1     H     0.41410  0.41410  0.00000  0.17179
       2     C     3.24288  3.24288  0.00000 -0.48577
       3     C     2.98981  2.98981  0.00000  0.02038
       4     H     0.42331  0.42331  0.00000  0.15339
       5     H     0.41335  0.41335  0.00000  0.17331
       6     O     4.31158  4.31158  0.00000 -0.62316
       7     H     0.43398  0.43398  0.00000  0.13205
       8     H     0.42887  0.42887  0.00000  0.14227
       9     C     2.98488  2.98488  0.00000  0.03024
      10     C     3.26194  3.26194  0.00000 -0.52388
      11     H     0.41577  0.41577  0.00000  0.16845
      12     H     0.43054  0.43054  0.00000  0.13893
      13     H     0.41344  0.41344  0.00000  0.17313
      14     H     0.41761  0.41761  0.00000  0.16477
      15     H     0.41794  0.41794  0.00000  0.16412

   Total alpha = 21.00000, Total beta = 21.00000, Total charge = -0.00000
