  ==> Input File <==

--------------------------------------------------------------------------
set {
	reference rhf
	basis 6-31G*
}

set_num_threads( 1 )
memory 2 gb

molecule MOL {
0 1

O	 2.103151	 0.829500	 -0.861637
C	 1.705091	 0.115954	 0.001797
C	 0.381791	 -0.609817	 0.001258
O	 2.395180	 -0.143607	 1.105219
C	 -0.823008	 0.326187	 0.001381
H	 0.371250	 -1.265087	 -0.865474
H	 0.370908	 -1.265746	 0.867490
C	 -2.149452	 -0.435131	 -0.000098
H	 -0.770201	 0.977095	 -0.865636
H	 -0.771220	 0.975655	 0.869608
C	 -3.368779	 0.488503	 -0.000883
H	 -2.193746	 -1.087250	 -0.871175
H	 -2.195311	 -1.087803	 0.870418
C	 -4.693822	 -0.272754	 -0.001129
H	 -3.325798	 1.139422	 -0.871284
H	 -3.326423	 1.139959	 0.869145
H	 -4.781274	 -0.907928	 -0.878124
H	 -5.538651	 0.408946	 -0.001420
H	 -4.781694	 -0.907783	 0.875984
C	 3.662120	 0.475964	 1.231516
H	 4.315294	 0.173049	 0.425827
H	 4.058924	 0.145895	 2.178868
H	 3.561770	 1.551763	 1.221907

	symmetry c1
}
set optking {
	frozen_dihedral = ("
		15 11 8 12,
		9 5 8 12,
		9 5 3 6,
		1 2 4 20
	")
}

ee = energy('scf')
oeprop('DIPOLE', 'QUADRUPOLE', 'MULLIKEN_CHARGES')
f=open( 'psi4out.xyz', 'w' )
f.write( "23  " )
f.write( str(ee) + "\n" )
f.write( MOL.save_string_xyz() )
f.close()
--------------------------------------------------------------------------

    Molecular point group: c1

    Geometry (in Angstrom), charge = 0, multiplicity = 1:

       Center              X                  Y                   Z               Mass
    ------------   -----------------  -----------------  -----------------  -----------------
           O          2.153926672547     0.737049273371    -1.035029455584    15.994914619560
           C          1.755866672547     0.023503273371    -0.171595455584    12.000000000000
           C          0.432566672547    -0.702267726629    -0.172134455584    12.000000000000
           O          2.445955672547    -0.236057726629     0.931826544416    15.994914619560
           C         -0.772232327453     0.233736273371    -0.172011455584    12.000000000000
           H          0.422025672547    -1.357537726629    -1.038866455584     1.007825032070
           H          0.421683672547    -1.358196726629     0.694097544416     1.007825032070
           C         -2.098676327453    -0.527581726629    -0.173490455584    12.000000000000
           H         -0.719425327453     0.884644273371    -1.039028455584     1.007825032070
           H         -0.720444327453     0.883204273371     0.696215544416     1.007825032070
           C         -3.318003327453     0.396052273371    -0.174275455584    12.000000000000
           H         -2.142970327453    -1.179700726629    -1.044567455584     1.007825032070
           H         -2.144535327453    -1.180253726629     0.697025544416     1.007825032070
           C         -4.643046327453    -0.365204726629    -0.174521455584    12.000000000000
           H         -3.275022327453     1.046971273371    -1.044676455584     1.007825032070
           H         -3.275647327453     1.047508273371     0.695752544416     1.007825032070
           H         -4.730498327453    -1.000378726629    -1.051516455584     1.007825032070
           H         -5.487875327453     0.316495273371    -0.174812455584     1.007825032070
           H         -4.730918327453    -1.000233726629     0.702591544416     1.007825032070
           C          3.712895672547     0.383513273371     1.058123544416    12.000000000000
           H          4.366069672547     0.080598273371     0.252434544416     1.007825032070
           H          4.109699672547     0.053444273371     2.005475544416     1.007825032070
           H          3.612545672547     1.459312273371     1.048514544416     1.007825032070

  Charge       = 0
  Multiplicity = 1
  Basis Set: 6-31G*
  Basis Set:

    Orbital Energies (a.u.)
    -----------------------

    Doubly Occupied:

       1A    -20.604889     2A    -20.543122     3A    -11.371314
       4A    -11.280203     5A    -11.233319     6A    -11.227153
       7A    -11.221197     8A    -11.219096     9A    -11.211522
      10A     -1.468965    11A     -1.361572    12A     -1.096403
      13A     -1.045033    14A     -0.986856    15A     -0.933346
      16A     -0.846600    17A     -0.798140    18A     -0.771218
      19A     -0.694103    20A     -0.680730    21A     -0.672061
      22A     -0.652840    23A     -0.605874    24A     -0.598528
      25A     -0.577440    26A     -0.571004    27A     -0.543705
      28A     -0.530657    29A     -0.523967    30A     -0.508430
      31A     -0.486872    32A     -0.475227    33A     -0.468732
      34A     -0.465530    35A     -0.453827    36A     -0.430105

  @DF-RHF Final Energy:  -422.97410992464518

   => Energetics <=

    Nuclear Repulsion Energy =            452.6696230633423284
    One-Electron Energy =               -1472.9683991088286348
    Two-Electron Energy =                 597.3246661208401065
    DFT Exchange-Correlation Energy =       0.0000000000000000
    Empirical Dispersion Energy =           0.0000000000000000
    PCM Polarization Energy =               0.0000000000000000
    EFP Energy =                            0.0000000000000000
    Total Energy =                       -422.9741099246461999

  Mulliken Charges: (a.u.)
   Center  Symbol    Alpha    Beta     Spin     Total
       1     O     4.28592  4.28592  0.00000 -0.57184
       2     C     2.61026  2.61026  0.00000  0.77947
       3     C     3.20404  3.20404  0.00000 -0.40808
       4     O     4.30312  4.30312  0.00000 -0.60625
       5     C     3.16122  3.16122  0.00000 -0.32243
       6     H     0.40158  0.40158  0.00000  0.19683
       7     H     0.40078  0.40078  0.00000  0.19844
       8     C     3.15283  3.15283  0.00000 -0.30567
       9     H     0.40582  0.40582  0.00000  0.18837
      10     H     0.41574  0.41574  0.00000  0.16852
      11     C     3.15240  3.15240  0.00000 -0.30480
      12     H     0.42139  0.42139  0.00000  0.15721
      13     H     0.42212  0.42212  0.00000  0.15576
      14     C     3.23985  3.23985  0.00000 -0.47969
      15     H     0.42064  0.42064  0.00000  0.15872
      16     H     0.42192  0.42192  0.00000  0.15615
      17     H     0.42109  0.42109  0.00000  0.15781
      18     H     0.41811  0.41811  0.00000  0.16379
      19     H     0.42148  0.42148  0.00000  0.15703
      20     C     3.09338  3.09338  0.00000 -0.18675
      21     H     0.40875  0.40875  0.00000  0.18251
      22     H     0.40860  0.40860  0.00000  0.18280
      23     H     0.40895  0.40895  0.00000  0.18211

   Total alpha = 36.00000, Total beta = 36.00000, Total charge =  0.00000
