  ==> Input File <==

--------------------------------------------------------------------------
set {
	reference rhf
	basis cc-pvtz
}

set_num_threads( 4 )
memory 2 gb

molecule MOL {
0 1

H	 2.175577	 -1.296983	 -0.314993
N	 2.433987	 -0.362316	 -0.080024
C	 1.263552	 0.494993	 0.021953
H	 3.051480	 -0.038793	 -0.795127
C	 -0.016533	 -0.325589	 -0.026925
H	 1.280915	 1.180773	 -0.818522
H	 1.263064	 1.106893	 0.925038
C	 -1.280353	 0.525521	 0.047747
H	 -0.016686	 -0.912532	 -0.939714
H	 -0.014099	 -1.037598	 0.796369
C	 -2.560681	 -0.301323	 -0.007747
H	 -1.279957	 1.241025	 -0.770189
H	 -1.270445	 1.110526	 0.963468
H	 -2.617064	 -0.872870	 -0.928010
H	 -3.439525	 0.331102	 0.043462
H	 -2.609427	 -1.002736	 0.818585

	symmetry c1
}
set optking {
	frozen_dihedral = ("
		1 2 3 6
	")
}

ee = optimize('scf')
oeprop('DIPOLE', 'QUADRUPOLE', 'MULLIKEN_CHARGES')
f=open( 'psi4out.xyz', 'w' )
f.write( "16  " )
f.write( str(ee) + "\n" )
f.write( MOL.save_string_xyz() )
f.close()
--------------------------------------------------------------------------

    Molecular point group: c1
  Charge       = 0
  Multiplicity = 1
  Basis Set: CC-PVTZ
  Basis Set:
  @DF-RHF Final Energy:  -212.39549694031695
    Total Energy =                       -212.3954969403170594
    Molecular point group: c1
  Basis Set: CC-PVTZ
  Basis Set:
  Basis Set: CC-PVTZ
  Basis Set:
  @DF-RHF Final Energy:  -212.39668516734321
    Total Energy =                       -212.3966851673433212
  Basis Set: CC-PVTZ
  Basis Set:
  Basis Set: CC-PVTZ
  Basis Set:
  @DF-RHF Final Energy:  -212.39685444985639
    Total Energy =                       -212.3968544498562778
  Basis Set: CC-PVTZ
  Basis Set:
  Basis Set: CC-PVTZ
  Basis Set:
  @DF-RHF Final Energy:  -212.39685950449655
    Total Energy =                       -212.3968595044964900
  Basis Set: CC-PVTZ
  Basis Set:
  Charge       = 0
  Multiplicity = 1
  Basis Set: CC-PVTZ
  Basis Set:

    Orbital Energies (a.u.)
    -----------------------

    Doubly Occupied:

       1A    -15.522620     2A    -11.237552     3A    -11.215718
       4A    -11.213704     5A    -11.208298     6A     -1.175008
       7A     -1.063289     8A     -0.961164     9A     -0.846898
      10A     -0.797921    11A     -0.661571    12A     -0.643390
      13A     -0.598320    14A     -0.582422    15A     -0.570696
      16A     -0.520356    17A     -0.511622    18A     -0.472829
      19A     -0.470987    20A     -0.464022    21A     -0.376837

  @DF-RHF Final Energy:  -212.39686034004907

   => Energetics <=

    Nuclear Repulsion Energy =            186.6149534405259658
    One-Electron Energy =                -655.7931776628494163
    Two-Electron Energy =                 256.7813638822742632
    DFT Exchange-Correlation Energy =       0.0000000000000000
    Empirical Dispersion Energy =           0.0000000000000000
    PCM Polarization Energy =               0.0000000000000000
    EFP Energy =                            0.0000000000000000
    Total Energy =                       -212.3968603400492157
    Molecular point group: c1
  Basis Set: CC-PVTZ
  Basis Set:

  -Total Gradient:
     Atom            X                  Y                   Z
    ------   -----------------  -----------------  -----------------
       1       -0.000269290222    -0.000374346393     0.001786313785
       2        0.000608327270     0.000722591537    -0.001975574215
       3       -0.001209501061    -0.001526710747    -0.000759122903
       4       -0.000016736190     0.000004366276    -0.000008652290
       5        0.000141069687     0.000031117169    -0.000002024509
       6        0.000816977608     0.001116888296     0.000939902388
       7       -0.000022810597    -0.000000237968     0.000015140746
       8       -0.000023645192     0.000006934696    -0.000001450361
       9        0.000020083381     0.000012458414     0.000007582875
      10       -0.000006369109     0.000013406339    -0.000024738652
      11       -0.000034161055     0.000014457775     0.000027510423
      12        0.000016509519    -0.000014888703    -0.000002159823
      13       -0.000007400130    -0.000000965609    -0.000008593834
      14        0.000008094066     0.000011284162     0.000002240628
      15       -0.000015777784    -0.000009081347     0.000003611499
      16       -0.000005370191    -0.000007273896     0.000000014242

  **** Optimization is complete! (in 5 steps) ****
    Final optimized geometry and variables:
    Molecular point group: c1

    Geometry (in Angstrom), charge = 0, multiplicity = 1:

    H            2.239810671288    -1.294239825544    -0.248952890290
    N            2.456135296799    -0.350782680286    -0.013776729662
    C            1.266966563292     0.494346732237    -0.003858648497
    H            3.151310348910    -0.022776365592    -0.645811067072
    C           -0.017568367139    -0.320187278275    -0.038984175416
    H            1.276180242987     1.194029598601    -0.836212754370
    H            1.272523565235     1.099788687024     0.898083940377
    C           -1.276877862067     0.533048940497     0.074845674415
    H           -0.050434784324    -0.893865233093    -0.962734982260
    H            0.004659432461    -1.041721122675     0.774352224759
    C           -2.560685533621    -0.289489911315     0.039822258672
    H           -1.293307735267     1.259544864294    -0.732954332107
    H           -1.240888244310     1.104101611817     0.998012189341
    H           -2.643858870413    -0.846198777649    -0.887673864495
    H           -3.435504252375     0.344851094981     0.123872781289
    H           -2.590054858361    -1.003319521033     0.856228192180

  Mulliken Charges: (a.u.)
   Center  Symbol    Alpha    Beta     Spin     Total
       1     H     0.42889  0.42889  0.00000  0.14223
       2     N     3.69633  3.69633  0.00000 -0.39267
       3     C     3.01513  3.01513  0.00000 -0.03027
       4     H     0.42768  0.42768  0.00000  0.14465
       5     C     3.08811  3.08811  0.00000 -0.17622
       6     H     0.46563  0.46563  0.00000  0.06874
       7     H     0.46386  0.46386  0.00000  0.07228
       8     C     3.08878  3.08878  0.00000 -0.17757
       9     H     0.45818  0.45818  0.00000  0.08364
      10     H     0.45179  0.45179  0.00000  0.09642
      11     C     3.14916  3.14916  0.00000 -0.29832
      12     H     0.45514  0.45514  0.00000  0.08972
      13     H     0.45319  0.45319  0.00000  0.09363
      14     H     0.45534  0.45534  0.00000  0.08932
      15     H     0.44826  0.44826  0.00000  0.10348
      16     H     0.45453  0.45453  0.00000  0.09094

   Total alpha = 21.00000, Total beta = 21.00000, Total charge =  0.00000
