  ==> Input File <==

--------------------------------------------------------------------------
set {
	reference rhf
	basis 6-31G*
}

set_num_threads( 1 )
memory 2 gb

molecule MOL {
0 1

O	 0.080435	 -0.162669	 0.496939
C	 1.122059	 0.121804	 -0.000188
C	 1.433802	 1.420087	 -0.703873
O	 2.172624	 -0.688929	 0.000216
C	 0.257495	 2.391035	 -0.733953
H	 2.294621	 1.859818	 -0.207504
H	 1.766327	 1.173209	 -1.708478
C	 0.599943	 3.697134	 -1.452424
H	 -0.058932	 2.602274	 0.282785
H	 -0.588196	 1.914465	 -1.219948
C	 -0.573492	 4.675279	 -1.488302
H	 1.448366	 4.170105	 -0.961962
H	 0.918817	 3.479509	 -2.469788
H	 -0.893688	 4.939512	 -0.484654
H	 -0.304326	 5.592521	 -2.002593
H	 -1.426786	 4.244223	 -2.003782
C	 3.452279	 -0.082609	 0.000533
H	 3.583069	 0.529321	 -0.880332
H	 4.163299	 -0.894027	 0.001117
H	 3.582335	 0.529955	 0.881077

	symmetry c1
}
set optking {
	frozen_dihedral = ("
		9 5 8 12,
		1 2 3 6,
		9 5 3 6
	")
}

ee = energy('scf')
oeprop('DIPOLE', 'QUADRUPOLE', 'MULLIKEN_CHARGES')
f=open( 'psi4out.xyz', 'w' )
f.write( "20  " )
f.write( str(ee) + "\n" )
f.write( MOL.save_string_xyz() )
f.close()
--------------------------------------------------------------------------

    Molecular point group: c1

    Geometry (in Angstrom), charge = 0, multiplicity = 1:

       Center              X                  Y                   Z               Mass
    ------------   -----------------  -----------------  -----------------  -----------------
           O         -1.006201082425    -1.570517124978     0.974567534012    15.994914619560
           C          0.035422917575    -1.286044124978     0.477440534012    12.000000000000
           C          0.347165917575     0.012238875022    -0.226244465988    12.000000000000
           O          1.085987917575    -2.096777124978     0.477844534012    15.994914619560
           C         -0.829141082425     0.983186875022    -0.256324465988    12.000000000000
           H          1.207984917575     0.451969875022     0.270124534012     1.007825032070
           H          0.679690917575    -0.234639124978    -1.230849465988     1.007825032070
           C         -0.486693082425     2.289285875022    -0.974795465988    12.000000000000
           H         -1.145568082425     1.194425875022     0.760413534012     1.007825032070
           H         -1.674832082425     0.506616875022    -0.742319465988     1.007825032070
           C         -1.660128082425     3.267430875022    -1.010673465988    12.000000000000
           H          0.361729917575     2.762256875022    -0.484333465988     1.007825032070
           H         -0.167819082425     2.071660875022    -1.992159465988     1.007825032070
           H         -1.980324082425     3.531663875022    -0.007025465988     1.007825032070
           H         -1.390962082425     4.184672875022    -1.524964465988     1.007825032070
           H         -2.513422082425     2.836374875022    -1.526153465988     1.007825032070
           C          2.365642917575    -1.490457124978     0.478161534012    12.000000000000
           H          2.496432917575    -0.878527124978    -0.402703465988     1.007825032070
           H          3.076662917575    -2.301875124978     0.478745534012     1.007825032070
           H          2.495698917575    -0.877893124978     1.358705534012     1.007825032070

  Charge       = 0
  Multiplicity = 1
  Basis Set: 6-31G*
  Basis Set:

    Orbital Energies (a.u.)
    -----------------------

    Doubly Occupied:

       1A    -20.602998     2A    -20.547006     3A    -11.374788
       4A    -11.297471     5A    -11.241628     6A    -11.224329
       7A    -11.223061     8A    -11.213598     9A     -1.467303
      10A     -1.369542    11A     -1.092314    12A     -1.018529
      13A     -0.987724    14A     -0.906486    15A     -0.812515
      16A     -0.765217    17A     -0.701966    18A     -0.692710
      19A     -0.678539    20A     -0.649215    21A     -0.611422
      22A     -0.592005    23A     -0.584653    24A     -0.559342
      25A     -0.543936    26A     -0.525097    27A     -0.506363
      28A     -0.481893    29A     -0.477454    30A     -0.474269
      31A     -0.453081    32A     -0.429836

  @DF-RHF Final Energy:  -383.91577993170762

   => Energetics <=

    Nuclear Repulsion Energy =            386.3670078984337692
    One-Electron Energy =               -1288.3531720512382890
    Two-Electron Energy =                 518.0703842210974699
    DFT Exchange-Correlation Energy =       0.0000000000000000
    Empirical Dispersion Energy =           0.0000000000000000
    PCM Polarization Energy =               0.0000000000000000
    EFP Energy =                            0.0000000000000000
    Total Energy =                       -383.9157799317071067

  Mulliken Charges: (a.u.)
   Center  Symbol    Alpha    Beta     Spin     Total
       1     O     4.26912  4.26912  0.00000 -0.53825
       2     C     2.59264  2.59264  0.00000  0.81472
       3     C     3.24442  3.24442  0.00000 -0.48883
       4     O     4.30101  4.30101  0.00000 -0.60203
       5     C     3.14701  3.14701  0.00000 -0.29403
       6     H     0.40266  0.40266  0.00000  0.19468
       7     H     0.39881  0.39881  0.00000  0.20239
       8     C     3.15419  3.15419  0.00000 -0.30839
       9     H     0.41105  0.41105  0.00000  0.17790
      10     H     0.40972  0.40972  0.00000  0.18055
      11     C     3.23954  3.23954  0.00000 -0.47908
      12     H     0.42458  0.42458  0.00000  0.15084
      13     H     0.42358  0.42358  0.00000  0.15283
      14     H     0.41949  0.41949  0.00000  0.16103
      15     H     0.41855  0.41855  0.00000  0.16290
      16     H     0.41902  0.41902  0.00000  0.16196
      17     C     3.10468  3.10468  0.00000 -0.20936
      18     H     0.41197  0.41197  0.00000  0.17606
      19     H     0.39685  0.39685  0.00000  0.20630
      20     H     0.41110  0.41110  0.00000  0.17780

   Total alpha = 32.00000, Total beta = 32.00000, Total charge =  0.00000
