  ==> Input File <==

--------------------------------------------------------------------------
set {
	reference rhf
	basis 6-31G*
}

set_num_threads( 4 )
memory 2 gb

molecule MOL {
0 1

H	 -2.211954	 0.759705	 -2.183093
C	 -1.775206	 0.394508	 -1.272456
C	 -2.566618	 0.077881	 -0.181420
C	 -0.409363	 0.234979	 -1.177730
H	 -3.633962	 0.195318	 -0.235521
C	 -1.990835	 -0.391216	 0.984407
H	 0.229909	 0.470465	 -2.002748
C	 0.154804	 -0.237046	 -0.000077
H	 -2.622104	 -0.631524	 1.819779
C	 -0.615166	 -0.566145	 1.120578
N	 1.611208	 -0.370857	 -0.000034
C	 -0.093669	 -1.086029	 2.442202
O	 2.274126	 0.622059	 -0.008063
O	 2.068510	 -1.474748	 0.007823
H	 0.587561	 -0.384890	 2.904217
H	 -0.928226	 -1.252020	 3.111783
H	 0.442896	 -2.016707	 2.319480

	symmetry c1
}
set optking {
	frozen_dihedral = ("
		4 8 11 13
	")
}

ee = optimize('scf')
oeprop('DIPOLE', 'QUADRUPOLE', 'MULLIKEN_CHARGES')
f=open( 'psi4out.xyz', 'w' )
f.write( "17  " )
f.write( str(ee) + "\n" )
f.write( MOL.save_string_xyz() )
f.close()
--------------------------------------------------------------------------

    Molecular point group: c1
  Charge       = 0
  Multiplicity = 1
  Basis Set: 6-31G*
  Basis Set:
  @DF-RHF Final Energy:  -473.19985962949983
    Total Energy =                       -473.1998596294993149
    Molecular point group: c1
  Basis Set: 6-31G*
  Basis Set:
  Basis Set: 6-31G*
  Basis Set:
  @DF-RHF Final Energy:  -473.20150429866408
    Total Energy =                       -473.2015042986635081
  Basis Set: 6-31G*
  Basis Set:
  Basis Set: 6-31G*
  Basis Set:
  @DF-RHF Final Energy:  -473.19914685133477
    Total Energy =                       -473.1991468513350583
  Basis Set: 6-31G*
  Basis Set:
  Basis Set: 6-31G*
  Basis Set:
  @DF-RHF Final Energy:  -473.20210576199224
    Total Energy =                       -473.2021057619923567
  Basis Set: 6-31G*
  Basis Set:
  @DF-RHF Final Energy:  -473.20223950644299
    Total Energy =                       -473.2022395064421971
  Basis Set: 6-31G*
  Basis Set:
  @DF-RHF Final Energy:  -473.20228933333880
    Total Energy =                       -473.2022893333386264
  Basis Set: 6-31G*
  Basis Set:
  Basis Set: 6-31G*
  Basis Set:
  @DF-RHF Final Energy:  -473.20230704764629
    Total Energy =                       -473.2023070476466273
  Basis Set: 6-31G*
  Basis Set:
  Basis Set: 6-31G*
  Basis Set:
  @DF-RHF Final Energy:  -473.20230805229556
    Total Energy =                       -473.2023080522958480
  Basis Set: 6-31G*
  Basis Set:
  Charge       = 0
  Multiplicity = 1
  Basis Set: 6-31G*
  Basis Set:

    Orbital Energies (a.u.)
    -----------------------

    Doubly Occupied:

       1A    -20.605498     2A    -20.604794     3A    -15.853131
       4A    -11.301954     5A    -11.276960     6A    -11.267529
       7A    -11.258976     8A    -11.256096     9A    -11.255111
      10A    -11.239308    11A     -1.636164    12A     -1.419838
      13A     -1.202226    14A     -1.092153    15A     -1.072959
      16A     -0.979363    17A     -0.935379    18A     -0.853328
      19A     -0.819895    20A     -0.772146    21A     -0.734110
      22A     -0.729532    23A     -0.695708    24A     -0.653457
      25A     -0.636462    26A     -0.599843    27A     -0.598379
      28A     -0.569885    29A     -0.542027    30A     -0.527638
      31A     -0.520691    32A     -0.492224    33A     -0.479061
      34A     -0.450220    35A     -0.364412    36A     -0.353420

  @DF-RHF Final Energy:  -473.20230831016903

   => Energetics <=

    Nuclear Repulsion Energy =            509.9180109087911319
    One-Electron Energy =               -1654.9408900553107742
    Two-Electron Energy =                 671.8205708363503845
    DFT Exchange-Correlation Energy =       0.0000000000000000
    Empirical Dispersion Energy =           0.0000000000000000
    PCM Polarization Energy =               0.0000000000000000
    EFP Energy =                            0.0000000000000000
    Total Energy =                       -473.2023083101693146
    Molecular point group: c1
  Basis Set: 6-31G*
  Basis Set:

  -Total Gradient:
     Atom            X                  Y                   Z
    ------   -----------------  -----------------  -----------------
       1        0.000007070590    -0.000000085130    -0.000002576591
       2       -0.000097875002    -0.000018609445     0.000033664175
       3        0.000010598297     0.000027104113    -0.000095399988
       4       -0.000212969585    -0.002932778434    -0.000969913092
       5       -0.000000659551     0.000002385393     0.000009184521
       6        0.000081569363    -0.000025506560     0.000048284859
       7       -0.000009956946    -0.000003196332    -0.000002175378
       8        0.000368019237     0.004245856686     0.002746907691
       9       -0.000006503656     0.000002333275    -0.000003197537
      10       -0.000084910018    -0.000012180450     0.000032850642
      11        0.000061563213    -0.001364581124    -0.005428808994
      12        0.000015119322     0.000018005180     0.000002562998
      13       -0.000133223836     0.000072624311     0.003624247946
      14        0.000016389129    -0.000004648866     0.000003943535
      15       -0.000008798823    -0.000006579515     0.000003322306
      16       -0.000005230217    -0.000002983319    -0.000002727285
      17       -0.000000201525     0.000002840216    -0.000000169804

  **** Optimization is complete! (in 9 steps) ****
    Final optimized geometry and variables:
    Molecular point group: c1

    Geometry (in Angstrom), charge = 0, multiplicity = 1:

    H           -2.163923338401     1.037527901177    -2.436040905886
    C           -1.731695805962     0.681958078959    -1.519279294144
    C           -2.534996859762     0.352194334668    -0.441311505369
    C           -0.358807556212     0.555036499960    -1.405773295283
    H           -3.602408562631     0.454264837304    -0.516016337212
    C           -1.973589698935    -0.108485008938     0.738761395222
    H            0.294258453574     0.815483288556    -2.217518043230
    C            0.168497401733     0.090717249096    -0.219766143593
    H           -2.611753984541    -0.355597059926     1.567816504118
    C           -0.600052425537    -0.266574048405     0.877941732308
    N            1.621558835987    -0.073253411378    -0.156500354406
    C            0.006799572613    -0.792278447306     2.157665179837
    O            2.283904489635     0.918487539509    -0.149029243394
    O            2.045086894399    -1.186791438114    -0.098001284733
    H            0.836032787095    -0.175682478500     2.486586765092
    H           -0.734934948371    -0.802583673497     2.945893145982
    H            0.379711955013    -1.800493884708     2.022984920296

  Mulliken Charges: (a.u.)
   Center  Symbol    Alpha    Beta     Spin     Total
       1     H     0.38980  0.38980  0.00000  0.22039
       2     C     3.10920  3.10920  0.00000 -0.21839
       3     C     3.08754  3.08754  0.00000 -0.17507
       4     C     3.08319  3.08319  0.00000 -0.16637
       5     H     0.39100  0.39100  0.00000  0.21800
       6     C     3.11982  3.11982  0.00000 -0.23964
       7     H     0.37616  0.37616  0.00000  0.24768
       8     C     2.91070  2.91070  0.00000  0.17860
       9     H     0.39270  0.39270  0.00000  0.21460
      10     C     2.96708  2.96708  0.00000  0.06584
      11     N     3.26445  3.26445  0.00000  0.47109
      12     C     3.25601  3.25601  0.00000 -0.51202
      13     O     4.22425  4.22425  0.00000 -0.44849
      14     O     4.22560  4.22560  0.00000 -0.45119
      15     H     0.40175  0.40175  0.00000  0.19649
      16     H     0.40879  0.40879  0.00000  0.18241
      17     H     0.39197  0.39197  0.00000  0.21607

   Total alpha = 36.00000, Total beta = 36.00000, Total charge = -0.00000
