  ==> Input File <==

--------------------------------------------------------------------------
set {
	reference rhf
	basis 6-31G*
}

set_num_threads( 1 )
memory 2 gb

molecule MOL {
0 1

H	 -4.236494	 0.538104	 0.039757
O	 -3.517110	 -0.026191	 -0.205115
C	 -2.306886	 0.532354	 0.237577
C	 -1.177863	 -0.397191	 -0.171080
H	 -2.156308	 1.517575	 -0.201710
H	 -2.315015	 0.655684	 1.319734
C	 0.198102	 0.111031	 0.262842
H	 -1.208843	 -0.518759	 -1.250427
H	 -1.368741	 -1.376554	 0.258909
C	 1.331804	 -0.827780	 -0.158768
H	 0.361943	 1.100838	 -0.156218
H	 0.217265	 0.229072	 1.345532
C	 2.723619	 -0.410569	 0.329459
H	 1.342964	 -0.912588	 -1.244120
H	 1.116806	 -1.824343	 0.220779
C	 3.813219	 -0.452816	 -0.743537
H	 3.012821	 -1.068315	 1.145437
H	 2.671210	 0.590835	 0.752082
H	 3.879965	 -1.439984	 -1.193073
H	 3.628383	 0.261203	 -1.539270
H	 4.783663	 -0.219063	 -0.316510

	symmetry c1
}
set optking {
	frozen_dihedral = ("
		2 3 4 8,
		8 4 7 10,
		4 7 10 14,
		1 2 3 5
	")
}

ee = energy('scf')
oeprop('DIPOLE', 'QUADRUPOLE', 'MULLIKEN_CHARGES')
f=open( 'psi4out.xyz', 'w' )
f.write( "21  " )
f.write( str(ee) + "\n" )
f.write( MOL.save_string_xyz() )
f.close()
--------------------------------------------------------------------------

    Molecular point group: c1

    Geometry (in Angstrom), charge = 0, multiplicity = 1:

       Center              X                  Y                   Z               Mass
    ------------   -----------------  -----------------  -----------------  -----------------
           H         -4.320073297119     0.736373180811     0.108592269600     1.007825032070
           O         -3.600689297119     0.172078180811    -0.136279730400    15.994914619560
           C         -2.390465297119     0.730623180811     0.306412269600    12.000000000000
           C         -1.261442297119    -0.198921819189    -0.102244730400    12.000000000000
           H         -2.239887297119     1.715844180811    -0.132874730400     1.007825032070
           H         -2.398594297119     0.853953180811     1.388569269600     1.007825032070
           C          0.114522702881     0.309300180811     0.331677269600    12.000000000000
           H         -1.292422297119    -0.320489819189    -1.181591730400     1.007825032070
           H         -1.452320297119    -1.178284819189     0.327744269600     1.007825032070
           C          1.248224702881    -0.629510819189    -0.089932730400    12.000000000000
           H          0.278363702881     1.299107180811    -0.087382730400     1.007825032070
           H          0.133685702881     0.427341180811     1.414367269600     1.007825032070
           C          2.640039702881    -0.212299819189     0.398294269600    12.000000000000
           H          1.259384702881    -0.714318819189    -1.175284730400     1.007825032070
           H          1.033226702881    -1.626073819189     0.289614269600     1.007825032070
           C          3.729639702881    -0.254546819189    -0.674701730400    12.000000000000
           H          2.929241702881    -0.870045819189     1.214272269600     1.007825032070
           H          2.587630702881     0.789104180811     0.820917269600     1.007825032070
           H          3.796385702881    -1.241714819189    -1.124237730400     1.007825032070
           H          3.544803702881     0.459472180811    -1.470434730400     1.007825032070
           H          4.700083702881    -0.020793819189    -0.247674730400     1.007825032070

  Charge       = 0
  Multiplicity = 1
  Basis Set: 6-31G*
  Basis Set:

    Orbital Energies (a.u.)
    -----------------------

    Doubly Occupied:

       1A    -20.551840     2A    -11.267084     3A    -11.216669
       4A    -11.213673     5A    -11.212198     6A    -11.210430
       7A    -11.208524     8A     -1.358664     9A     -1.085327
      10A     -1.033954    11A     -0.956499    12A     -0.869273
      13A     -0.803114    14A     -0.788656    15A     -0.692227
      16A     -0.661906    17A     -0.626029    18A     -0.601044
      19A     -0.585567    20A     -0.562783    21A     -0.542968
      22A     -0.523481    23A     -0.507292    24A     -0.485737
      25A     -0.478246    26A     -0.461222    27A     -0.454360
      28A     -0.442721    29A     -0.433959

  @DF-RHF Final Energy:  -310.20894448828614

   => Energetics <=

    Nuclear Repulsion Energy =            309.1438787209984298
    One-Electron Energy =               -1033.0349666749841617
    Two-Electron Energy =                 413.6821434657014152
    DFT Exchange-Correlation Energy =       0.0000000000000000
    Empirical Dispersion Energy =           0.0000000000000000
    PCM Polarization Energy =               0.0000000000000000
    EFP Energy =                            0.0000000000000000
    Total Energy =                       -310.2089444882843736

  Mulliken Charges: (a.u.)
   Center  Symbol    Alpha    Beta     Spin     Total
       1     H     0.28118  0.28118  0.00000  0.43764
       2     O     4.37172  4.37172  0.00000 -0.74344
       3     C     2.98981  2.98981  0.00000  0.02039
       4     C     3.15998  3.15998  0.00000 -0.31996
       5     H     0.43296  0.43296  0.00000  0.13408
       6     H     0.43286  0.43286  0.00000  0.13429
       7     C     3.16200  3.16200  0.00000 -0.32401
       8     H     0.41465  0.41465  0.00000  0.17070
       9     H     0.41469  0.41469  0.00000  0.17063
      10     C     3.15344  3.15344  0.00000 -0.30687
      11     H     0.42300  0.42300  0.00000  0.15400
      12     H     0.42323  0.42323  0.00000  0.15354
      13     C     3.15423  3.15423  0.00000 -0.30845
      14     H     0.42032  0.42032  0.00000  0.15937
      15     H     0.42048  0.42048  0.00000  0.15904
      16     C     3.24015  3.24015  0.00000 -0.48030
      17     H     0.42089  0.42089  0.00000  0.15822
      18     H     0.42126  0.42126  0.00000  0.15748
      19     H     0.42128  0.42128  0.00000  0.15744
      20     H     0.42138  0.42138  0.00000  0.15724
      21     H     0.42051  0.42051  0.00000  0.15898

   Total alpha = 29.00000, Total beta = 29.00000, Total charge = -0.00000
