                              Psi4 1.0.54 Driver

  ==> Input File <==

--------------------------------------------------------------------------
set {
	reference rhf
	basis cc-pvtz
}

set_num_threads( 4 )
memory 2 gb

molecule MOL {
0 1

O	 0.623971	 1.347241	 -0.000777
C	 0.485107	 0.171416	 -0.000134
C	 1.606966	 -0.836201	 0.000174
O	 -0.695554	 -0.422406	 0.000602
C	 2.988788	 -0.202529	 -0.000115
H	 1.465110	 -1.474645	 -0.864821
H	 1.465209	 -1.474077	 0.865596
H	 3.131767	 0.419673	 -0.873407
H	 3.750876	 -0.972315	 0.000098
H	 3.131883	 0.420264	 0.872742
C	 -1.852370	 0.402254	 0.000422
C	 -3.063338	 -0.501097	 -0.000671
H	 -1.831640	 1.039258	 -0.872586
H	 -1.832586	 1.038485	 0.874002
H	 -3.071851	 -1.133918	 -0.879215
H	 -3.966302	 0.097975	 -0.000939
H	 -3.072857	 -1.134650	 0.877333

	symmetry c1
}
set optking {
	frozen_dihedral = ("
		11 4 2 3
	")
}

ee,wfn = optimize('scf', return_wfn=True)
oeprop( wfn, 'DIPOLE', 'QUADRUPOLE', 'MULLIKEN_CHARGES')
f=open( 'psi4out.xyz', 'w' )
f.write( "17  " )
f.write( str(ee) + "\n" )
f.write( MOL.save_string_xyz() )
f.close()
--------------------------------------------------------------------------

    Molecular point group: c1
  Charge       = 0
  Multiplicity = 1
  Basis Set: CC-PVTZ
  Basis Set:
  @DF-RHF Final Energy:  -345.04064472637424
    Total Energy =                       -345.0406447263740120
    Molecular point group: c1
  Basis Set: CC-PVTZ
  Basis Set:
  Charge       = 0
  Multiplicity = 1
  Basis Set: CC-PVTZ
  Basis Set:

    Orbital Energies (a.u.)
    -----------------------

    Doubly Occupied:

       1A    -20.593457     2A    -20.532893     3A    -11.363485
       4A    -11.282581     5A    -11.235873     6A    -11.220349
       7A    -11.213819     8A     -1.470491     9A     -1.364880
      10A     -1.070895    11A     -1.032552    12A     -0.911863
      13A     -0.847632    14A     -0.774847    15A     -0.698066
      16A     -0.692588    17A     -0.667828    18A     -0.630432
      19A     -0.584333    20A     -0.573820    21A     -0.558632
      22A     -0.524737    23A     -0.519953    24A     -0.515186
      25A     -0.505746    26A     -0.493955    27A     -0.456046
      28A     -0.439331

  @DF-RHF Final Energy:  -345.04064469355774

   => Energetics <=

    Nuclear Repulsion Energy =            315.2190116564064510
    One-Electron Energy =               -1094.9667701706862317
    Two-Electron Energy =                 434.7071138207219292
    DFT Exchange-Correlation Energy =       0.0000000000000000
    Empirical Dispersion Energy =           0.0000000000000000
    PCM Polarization Energy =               0.0000000000000000
    EFP Energy =                            0.0000000000000000
    Total Energy =                       -345.0406446935578515
    Molecular point group: c1
  Basis Set: CC-PVTZ
  Basis Set:

  -Total Gradient:
     Atom            X                  Y                   Z
    ------   -----------------  -----------------  -----------------
       1        0.000004792853     0.000007295833    -0.000052484028
       2       -0.000008542284    -0.000007351535     0.000146783583
       3        0.000001841382     0.000001413987    -0.000037189616
       4        0.000006386865    -0.000000598432    -0.000039028615
       5       -0.000001055159    -0.000001121802    -0.000002804744
       6        0.000007270425    -0.000007438974    -0.000001874879
       7       -0.000007094448     0.000006830302    -0.000001701663
       8        0.000001387701     0.000000613510    -0.000000202532
       9        0.000000502343     0.000000213904    -0.000000254448
      10       -0.000001220260    -0.000000472779    -0.000000300011
      11       -0.000006673680     0.000003840498    -0.000044272219
      12        0.000000594695    -0.000000872808     0.000012915692
      13       -0.000004526136     0.000001558359     0.000009249172
      14        0.000007703209    -0.000002732034     0.000008551284
      15        0.000002948842     0.000002977977     0.000000129542
      16        0.000000051731    -0.000000263695     0.000001839611
      17       -0.000004368083    -0.000003892308     0.000000643871

  **** Optimization is complete! (in 2 steps) ****
    Final optimized geometry and variables:
    Molecular point group: c1

    Geometry (in Angstrom), charge = 0, multiplicity = 1:

    O            0.624012754375     1.347282823645     0.000357096298
    C            0.485118277156     0.171463773590     0.000199642162
    C            1.606938581468    -0.836192050234    -0.000066723277
    O           -0.695559571540    -0.422363772073    -0.000711083083
    C            2.988798497491    -0.202586524743     0.000634744355
    H            1.465354166494    -1.473873982746    -0.865662482720
    H            1.464883742301    -1.474834880697     0.864735205683
    H            3.132080881053     0.420389842926    -0.872049425768
    H            3.750847890847    -0.972401034120     0.000400830334
    H            3.131633294278     0.419409155211     0.874092713849
    C           -1.852395933496     0.402243548911    -0.000590453724
    C           -3.063342913779    -0.501159154692     0.000197383954
    H           -1.832501424280     1.038633401090    -0.874048855151
    H           -1.831807334003     1.039095206916     0.872529916451
    H           -3.072725144098    -1.134555338184    -0.877917574130
    H           -3.966320134196     0.097878790044     0.000452376670
    H           -3.071960013357    -1.134137778981     0.878625101667

  Mulliken Charges: (a.u.)
   Center  Symbol    Alpha    Beta     Spin     Total
       1     O     4.19684  4.19684  0.00000 -0.39368
       2     C     2.80913  2.80913  0.00000  0.38174
       3     C     3.09349  3.09349  0.00000 -0.18698
       4     O     4.15120  4.15120  0.00000 -0.30240
       5     C     3.13969  3.13969  0.00000 -0.27939
       6     H     0.44165  0.44165  0.00000  0.11671
       7     H     0.44166  0.44166  0.00000  0.11669
       8     H     0.44843  0.44843  0.00000  0.10314
       9     H     0.45057  0.45057  0.00000  0.09886
      10     H     0.44844  0.44844  0.00000  0.10312
      11     C     2.98047  2.98047  0.00000  0.03905
      12     C     3.13308  3.13308  0.00000 -0.26615
      13     H     0.45402  0.45402  0.00000  0.09197
      14     H     0.45402  0.45402  0.00000  0.09196
      15     H     0.45143  0.45143  0.00000  0.09714
      16     H     0.45446  0.45446  0.00000  0.09108
      17     H     0.45143  0.45143  0.00000  0.09714

   Total alpha = 28.00000, Total beta = 28.00000, Total charge =  0.00000

*** Psi4 exiting successfully. Buy a developer a beer!
