  ==> Input File <==

--------------------------------------------------------------------------
set {
	reference rhf
	basis cc-pvtz
}

set_num_threads( 4 )
memory 2 gb

molecule MOL {
0 1

H	 -3.401682	 -1.036167	 0.000000
O	 -3.113760	 -0.140926	 0.000000
C	 -1.775087	 -0.058754	 0.000000
C	 -0.970672	 -1.117645	 -0.402619
C	 -1.206936	 1.132433	 0.420073
H	 -1.418843	 -2.038630	 -0.727206
C	 0.396939	 -0.979973	 -0.383102
H	 -1.845285	 1.936589	 0.726446
C	 0.164207	 1.254114	 0.433701
H	 1.028516	 -1.789454	 -0.691259
C	 0.981501	 0.207366	 0.035207
H	 0.606061	 2.177800	 0.759411
C	 2.448032	 0.361037	 0.058330
O	 3.224586	 -0.475575	 -0.262916
H	 2.800918	 1.338170	 0.405440

	symmetry c1
}
set optking {
	frozen_dihedral = ("
		5 3 2 1
	")
}

ee = optimize('scf')
oeprop('DIPOLE', 'QUADRUPOLE', 'MULLIKEN_CHARGES')
f=open( 'psi4out.xyz', 'w' )
f.write( "15  " )
f.write( str(ee) + "\n" )
f.write( MOL.save_string_xyz() )
f.close()
--------------------------------------------------------------------------

    Molecular point group: c1
  Charge       = 0
  Multiplicity = 1
  Basis Set: CC-PVTZ
  Basis Set:
  @DF-RHF Final Energy:  -418.44189167827608
    Total Energy =                       -418.4418916782760789
    Molecular point group: c1
  Basis Set: CC-PVTZ
  Basis Set:
  Basis Set: CC-PVTZ
  Basis Set:
  @DF-RHF Final Energy:  -418.44190905009691
    Total Energy =                       -418.4419090500969105
  Basis Set: CC-PVTZ
  Basis Set:
  Basis Set: CC-PVTZ
  Basis Set:
  @DF-RHF Final Energy:  -418.44191263427189
    Total Energy =                       -418.4419126342723985
  Basis Set: CC-PVTZ
  Basis Set:
  Charge       = 0
  Multiplicity = 1
  Basis Set: CC-PVTZ
  Basis Set:

    Orbital Energies (a.u.)
    -----------------------

    Doubly Occupied:

       1A    -20.602780     2A    -20.546132     3A    -11.323138
       4A    -11.321463     5A    -11.258261     6A    -11.254431
       7A    -11.242304     8A    -11.237567     9A    -11.236968
      10A     -1.435518    11A     -1.402382    12A     -1.175351
      13A     -1.044931    14A     -1.042353    15A     -0.891715
      16A     -0.870146    17A     -0.797650    18A     -0.761963
      19A     -0.717455    20A     -0.670656    21A     -0.647902
      22A     -0.631665    23A     -0.618849    24A     -0.610510
      25A     -0.580608    26A     -0.561758    27A     -0.555437
      28A     -0.508654    29A     -0.490251    30A     -0.422017
      31A     -0.362294    32A     -0.333062

  @DF-RHF Final Energy:  -418.44191240821419

   => Energetics <=

    Nuclear Repulsion Energy =            402.2414829154188283
    One-Electron Energy =               -1367.0544416910752261
    Two-Electron Energy =                 546.3710463674422044
    DFT Exchange-Correlation Energy =       0.0000000000000000
    Empirical Dispersion Energy =           0.0000000000000000
    PCM Polarization Energy =               0.0000000000000000
    EFP Energy =                            0.0000000000000000
    Total Energy =                       -418.4419124082141934
    Molecular point group: c1
  Basis Set: CC-PVTZ
  Basis Set:

  -Total Gradient:
     Atom            X                  Y                   Z
    ------   -----------------  -----------------  -----------------
       1        0.000008212434    -0.000011778168     0.002454443619
       2       -0.000035398977    -0.000255827559    -0.002282601824
       3        0.000023536339     0.000816990021    -0.001833793555
       4       -0.000075164325     0.000040762548    -0.000002801316
       5        0.000095707799    -0.000577242435     0.001633067635
       6        0.000003351517     0.000002214520    -0.000003568880
       7        0.000087704785     0.000054639256     0.000026910766
       8       -0.000012614522     0.000002032835     0.000011351105
       9       -0.000078994102     0.000041768483     0.000033317646
      10       -0.000006160278    -0.000010759614     0.000007560475
      11       -0.000021130318    -0.000158918059     0.000104795470
      12       -0.000002103468    -0.000003798048    -0.000002294392
      13        0.000015732285     0.000168499718    -0.000485543771
      14       -0.000004498984    -0.000051374206     0.000176550387
      15        0.000001819813    -0.000057209292     0.000162606634

  **** Optimization is complete! (in 4 steps) ****
    Final optimized geometry and variables:
    Molecular point group: c1

    Geometry (in Angstrom), charge = 0, multiplicity = 1:

    H           -3.400673311902    -1.040543880587     0.007725764140
    O           -3.115454385378    -0.144243591762     0.010132519488
    C           -1.774434066144    -0.059846100883     0.015232282011
    C           -0.970548023088    -1.120270110282    -0.385661529814
    C           -1.206363334766     1.128925570214     0.438162176053
    H           -1.421066955127    -2.038026386895    -0.715560071043
    C            0.396774589937    -0.984180229641    -0.365161503361
    H           -1.843894540578     1.931519123772     0.750516406586
    C            0.165751021538     1.252953493799     0.445150124971
    H            1.028183053393    -1.794370564416    -0.671959667432
    C            0.981458824242     0.205440069284     0.048493408382
    H            0.607991681306     2.176351954418     0.771199967473
    C            2.448662628623     0.359671428076     0.070265153301
    O            3.224889694267    -0.479091370168    -0.245072502947
    H            2.800870749656     1.338443137259     0.413812593760

  Mulliken Charges: (a.u.)
   Center  Symbol    Alpha    Beta     Spin     Total
       1     H     0.38446  0.38446  0.00000  0.23108
       2     O     4.16921  4.16921  0.00000 -0.33842
       3     C     2.84811  2.84811  0.00000  0.30379
       4     C     3.13003  3.13003  0.00000 -0.26007
       5     C     3.10840  3.10840  0.00000 -0.21680
       6     H     0.42863  0.42863  0.00000  0.14274
       7     C     3.06702  3.06702  0.00000 -0.13404
       8     H     0.41605  0.41605  0.00000  0.16789
       9     C     3.06686  3.06686  0.00000 -0.13372
      10     H     0.40710  0.40710  0.00000  0.18579
      11     C     3.00298  3.00298  0.00000 -0.00597
      12     H     0.42132  0.42132  0.00000  0.15737
      13     C     2.91075  2.91075  0.00000  0.17849
      14     O     4.17865  4.17865  0.00000 -0.35730
      15     H     0.46042  0.46042  0.00000  0.07917

   Total alpha = 32.00000, Total beta = 32.00000, Total charge = -0.00000
