  ==> Input File <==

--------------------------------------------------------------------------
set {
	reference rhf
	basis 6-31G*
}

set_num_threads( 1 )
memory 2 gb

molecule MOL {
0 1

O	 0.625848	 1.349995	 -0.000749
C	 0.486307	 0.169203	 0.000779
C	 1.608116	 -0.841643	 0.000302
O	 -0.698257	 -0.426125	 0.001050
C	 2.990107	 -0.200498	 -0.000684
H	 1.468623	 -1.481519	 -0.865924
H	 1.469683	 -1.481289	 0.866878
H	 3.129736	 0.423364	 -0.875135
H	 3.757882	 -0.966877	 -0.001197
H	 3.130964	 0.423383	 0.873533
C	 -1.776943	 0.255526	 0.632863
C	 -3.006350	 -0.617947	 0.499015
H	 -1.915060	 1.215958	 0.155287
H	 -1.523359	 0.432886	 1.669121
H	 -3.243849	 -0.790654	 -0.544500
H	 -3.856300	 -0.134037	 0.969191
H	 -2.850130	 -1.578032	 0.977647

	symmetry c1
}
set optking {
	frozen_dihedral = ("
		2 4 11 13,
		4 2 3 6
	")
}

ee = energy('scf')
oeprop('DIPOLE', 'QUADRUPOLE', 'MULLIKEN_CHARGES')
f=open( 'psi4out.xyz', 'w' )
f.write( "17  " )
f.write( str(ee) + "\n" )
f.write( MOL.save_string_xyz() )
f.close()
--------------------------------------------------------------------------

    Molecular point group: c1

    Geometry (in Angstrom), charge = 0, multiplicity = 1:

       Center              X                  Y                   Z               Mass
    ------------   -----------------  -----------------  -----------------  -----------------
           O          0.606042794407     1.389328638558    -0.165758966835    15.994914619560
           C          0.466501794407     0.208536638558    -0.164230966835    12.000000000000
           C          1.588310794407    -0.802309361442    -0.164707966835    12.000000000000
           O         -0.718062205593    -0.386791361442    -0.163959966835    15.994914619560
           C          2.970301794407    -0.161164361442    -0.165693966835    12.000000000000
           H          1.448817794407    -1.442185361442    -1.030933966835     1.007825032070
           H          1.449877794407    -1.441955361442     0.701868033165     1.007825032070
           H          3.109930794407     0.462697638558    -1.040144966835     1.007825032070
           H          3.738076794407    -0.927543361442    -0.166206966835     1.007825032070
           H          3.111158794407     0.462716638558     0.708523033165     1.007825032070
           C         -1.796748205593     0.294859638558     0.467853033165    12.000000000000
           C         -3.026155205593    -0.578613361442     0.334005033165    12.000000000000
           H         -1.934865205593     1.255291638558    -0.009722966835     1.007825032070
           H         -1.543164205593     0.472219638558     1.504111033165     1.007825032070
           H         -3.263654205593    -0.751320361442    -0.709509966835     1.007825032070
           H         -3.876105205593    -0.094703361442     0.804181033165     1.007825032070
           H         -2.869935205593    -1.538698361442     0.812637033165     1.007825032070

  Charge       = 0
  Multiplicity = 1
  Basis Set: 6-31G*
  Basis Set:

    Orbital Energies (a.u.)
    -----------------------

    Doubly Occupied:

       1A    -20.596209     2A    -20.546089     3A    -11.371630
       4A    -11.287112     5A    -11.237641     6A    -11.223124
       7A    -11.215653     8A     -1.466111     9A     -1.362323
      10A     -1.069330    11A     -1.032738    12A     -0.909830
      13A     -0.850274    14A     -0.772766    15A     -0.698361
      16A     -0.685620    17A     -0.663240    18A     -0.630472
      19A     -0.590048    20A     -0.566485    21A     -0.558572
      22A     -0.524226    23A     -0.519113    24A     -0.517476
      25A     -0.504133    26A     -0.492880    27A     -0.451604
      28A     -0.434080

  @DF-RHF Final Energy:  -344.90690157049124

   => Energetics <=

    Nuclear Repulsion Energy =            314.6825191087318103
    One-Electron Energy =               -1093.6246793152356531
    Two-Electron Energy =                 434.0352586360120313
    DFT Exchange-Correlation Energy =       0.0000000000000000
    Empirical Dispersion Energy =           0.0000000000000000
    PCM Polarization Energy =               0.0000000000000000
    EFP Energy =                            0.0000000000000000
    Total Energy =                       -344.9069015704917547

  Mulliken Charges: (a.u.)
   Center  Symbol    Alpha    Beta     Spin     Total
       1     O     4.28151  4.28151  0.00000 -0.56302
       2     C     2.60506  2.60506  0.00000  0.78988
       3     C     3.20601  3.20601  0.00000 -0.41201
       4     O     4.31460  4.31460  0.00000 -0.62920
       5     C     3.23919  3.23919  0.00000 -0.47838
       6     H     0.39975  0.39975  0.00000  0.20050
       7     H     0.40283  0.40283  0.00000  0.19433
       8     H     0.40946  0.40946  0.00000  0.18107
       9     H     0.41836  0.41836  0.00000  0.16327
      10     H     0.41061  0.41061  0.00000  0.17878
      11     C     3.00414  3.00414  0.00000 -0.00829
      12     C     3.24841  3.24841  0.00000 -0.49682
      13     H     0.40443  0.40443  0.00000  0.19115
      14     H     0.41674  0.41674  0.00000  0.16652
      15     H     0.40988  0.40988  0.00000  0.18025
      16     H     0.41648  0.41648  0.00000  0.16703
      17     H     0.41253  0.41253  0.00000  0.17495

   Total alpha = 28.00000, Total beta = 28.00000, Total charge = -0.00000
