  ==> Input File <==

--------------------------------------------------------------------------
set {
	reference rhf
	basis 6-31G*
}

set_num_threads( 4 )
memory 2 gb

molecule MOL {
0 1

H	 0.520913	 -3.355335	 -0.750069
O	 0.895837	 -2.618051	 -0.278264
C	 0.102382	 -1.563045	 -0.462125
C	 0.624473	 -0.343591	 0.253101
O	 -0.886133	 -1.623171	 -1.118051
C	 -0.265902	 0.883932	 0.072916
H	 0.740303	 -0.614115	 1.297502
H	 1.628992	 -0.158063	 -0.118751
C	 -1.728698	 0.646073	 0.462102
H	 -0.209144	 1.219470	 -0.958188
H	 0.135059	 1.692851	 0.673903
C	 -2.482460	 -0.343073	 -0.431425
H	 -2.245265	 1.602650	 0.432430
H	 -1.779332	 0.308348	 1.496285
C	 -3.960546	 -0.461025	 -0.060175
H	 -2.395034	 -0.026811	 -1.468912
H	 -2.024850	 -1.327147	 -0.371646
H	 -4.472726	 -1.168004	 -0.705284
H	 -4.465146	 0.496508	 -0.151489
H	 -4.081218	 -0.800940	 0.964585

	symmetry c1
}
set optking {
	frozen_dihedral = ("
		7 4 6 10
	")
}

ee = optimize('scf')
oeprop('DIPOLE', 'QUADRUPOLE', 'MULLIKEN_CHARGES')
f=open( 'psi4out.xyz', 'w' )
f.write( "20  " )
f.write( str(ee) + "\n" )
f.write( MOL.save_string_xyz() )
f.close()
--------------------------------------------------------------------------

    Molecular point group: c1
  Charge       = 0
  Multiplicity = 1
  Basis Set: 6-31G*
  Basis Set:
  @DF-RHF Final Energy:  -383.85835091876459
    Total Energy =                       -383.8583509187645859
    Molecular point group: c1
  Basis Set: 6-31G*
  Basis Set:
  Basis Set: 6-31G*
  Basis Set:
  @DF-RHF Final Energy:  -383.89991574903735
    Total Energy =                       -383.8999157490375183
  Basis Set: 6-31G*
  Basis Set:
  Basis Set: 6-31G*
  Basis Set:
  @DF-RHF Final Energy:  -383.91824223258720
    Total Energy =                       -383.9182422325874313
  Basis Set: 6-31G*
  Basis Set:
  Basis Set: 6-31G*
  Basis Set:
  @DF-RHF Final Energy:  -383.92951735850289
    Total Energy =                       -383.9295173585024941
  Basis Set: 6-31G*
  Basis Set:
  @DF-RHF Final Energy:  -383.93584189036983
    Total Energy =                       -383.9358418903696020
  @DF-RHF Final Energy:  -383.93835920420167
    Total Energy =                       -383.9383592042020155
  @DF-RHF Final Energy:  -383.94180426967876
    Total Energy =                       -383.9418042696785278
  @DF-RHF Final Energy:  -383.94270796576643
    Total Energy =                       -383.9427079657666582
  @DF-RHF Final Energy:  -383.94331733373110
    Total Energy =                       -383.9433173337309881
  @DF-RHF Final Energy:  -383.94357451221651
    Total Energy =                       -383.9435745122165144
  @DF-RHF Final Energy:  -383.94370187105500
    Total Energy =                       -383.9437018710548273
  @DF-RHF Final Energy:  -383.94377856357522
    Total Energy =                       -383.9437785635752789
  @DF-RHF Final Energy:  -383.94385564881787
    Total Energy =                       -383.9438556488178165
  @DF-RHF Final Energy:  -383.94404826944822
    Total Energy =                       -383.9440482694485581
  @DF-RHF Final Energy:  -383.94378895112385
    Total Energy =                       -383.9437889511239064
  @DF-RHF Final Energy:  -383.94413517079499
    Total Energy =                       -383.9441351707952208
  @DF-RHF Final Energy:  -383.94419478063958
    Total Energy =                       -383.9441947806391227
  @DF-RHF Final Energy:  -383.94416200011239
    Total Energy =                       -383.9441620001123283
  Basis Set: 6-31G*
  Basis Set:
  @DF-RHF Final Energy:  -383.94423556182232
    Total Energy =                       -383.9442355618222109
  Basis Set: 6-31G*
  Basis Set:
  Basis Set: 6-31G*
  Basis Set:
  @DF-RHF Final Energy:  -383.94424533894943
    Total Energy =                       -383.9442453389493721
  Basis Set: 6-31G*
  Basis Set:
  Basis Set: 6-31G*
  Basis Set:
  @DF-RHF Final Energy:  -383.94424697608196
    Total Energy =                       -383.9442469760817858
  Basis Set: 6-31G*
  Basis Set:
  Charge       = 0
  Multiplicity = 1
  Basis Set: 6-31G*
  Basis Set:

    Orbital Energies (a.u.)
    -----------------------

    Doubly Occupied:

       1A    -20.615519     2A    -20.547797     3A    -11.381181
       4A    -11.239760     5A    -11.229823     6A    -11.220347
       7A    -11.214754     8A    -11.208838     9A     -1.475373
      10A     -1.364736    11A     -1.093885    12A     -1.038878
      13A     -0.958922    14A     -0.873699    15A     -0.815199
      16A     -0.777351    17A     -0.701680    18A     -0.688981
      19A     -0.660121    20A     -0.624549    21A     -0.603422
      22A     -0.595466    23A     -0.574069    24A     -0.552144
      25A     -0.545204    26A     -0.514489    27A     -0.496105
      28A     -0.483609    29A     -0.465812    30A     -0.461129
      31A     -0.455626    32A     -0.438122

  @DF-RHF Final Energy:  -383.94424705189982

   => Energetics <=

    Nuclear Repulsion Energy =            392.0842210403185959
    One-Electron Energy =               -1300.2237487751167464
    Two-Electron Energy =                 524.1952806828983285
    DFT Exchange-Correlation Energy =       0.0000000000000000
    Empirical Dispersion Energy =           0.0000000000000000
    PCM Polarization Energy =               0.0000000000000000
    EFP Energy =                            0.0000000000000000
    Total Energy =                       -383.9442470518997652
    Molecular point group: c1
  Basis Set: 6-31G*
  Basis Set:

  -Total Gradient:
     Atom            X                  Y                   Z
    ------   -----------------  -----------------  -----------------
       1       -0.000002251150    -0.000005247956     0.000001233981
       2       -0.000001911625     0.000029052517    -0.000027996653
       3       -0.000037106871    -0.000029468162     0.000020404237
       4       -0.004285274538    -0.003559777551    -0.000325687708
       5        0.000006450566     0.000008826492     0.000070244659
       6       -0.003694750774    -0.003401067420    -0.001738722804
       7        0.004099615604     0.003525630317     0.000549549038
       8        0.000003694952    -0.000013246591    -0.000035741247
       9       -0.000003136032     0.000020897471    -0.000048974059
      10        0.003855873008     0.003508068530     0.001482335837
      11        0.000026798179    -0.000037743177     0.000016819784
      12       -0.000013182322    -0.000020295341     0.000060486711
      13       -0.000004218379     0.000009687914     0.000017978034
      14        0.000007512930    -0.000022323790    -0.000010942905
      15        0.000045058907    -0.000012071300    -0.000018660045
      16        0.000006554422     0.000009056081    -0.000005550578
      17       -0.000005586329    -0.000014179911    -0.000005476256
      18       -0.000002618008    -0.000000920312     0.000002808667
      19       -0.000000715617     0.000002983208    -0.000003842317
      20       -0.000000806927     0.000002138990    -0.000000266373

  **** Optimization is complete! (in 22 steps) ****
    Final optimized geometry and variables:
    Molecular point group: c1

    Geometry (in Angstrom), charge = 0, multiplicity = 1:

    H            1.139890044764    -2.658860809960    -0.359688132053
    O            1.280190587955    -1.955195393715     0.267042528743
    C            1.276669119173    -0.803959631314    -0.400096605335
    C            1.543070543416     0.392104149605     0.476225160284
    O            1.111359144858    -0.754873534484    -1.576416373979
    C            0.551950729505     1.553709642041     0.313290061035
    H            1.648625052409     0.106210101976     1.515171304211
    H            2.521430797458     0.750463473343     0.164501966332
    C           -0.896165549755     1.306613075020     0.752448240845
    H            0.605793195474     1.925930197993    -0.704640407375
    H            0.940857393215     2.360284803542     0.930253798044
    C           -1.711907889977     0.309053267968    -0.075836914625
    H           -1.405719824741     2.267503940503     0.729652360458
    H           -0.900017000947     0.991389574557     1.794901774099
    C           -3.188224801594     0.307562118579     0.321487101216
    H           -1.616958841980     0.545231553078    -1.131721226950
    H           -1.318512796373    -0.694791153198     0.050389362173
    H           -3.749481219267    -0.416709562907    -0.260455662147
    H           -3.639340533271     1.282573041162     0.160181152587
    H           -3.312805745414     0.056121698670     1.371239092001

  Mulliken Charges: (a.u.)
   Center  Symbol    Alpha    Beta     Spin     Total
       1     H     0.26840  0.26840  0.00000  0.46320
       2     O     4.34990  4.34990  0.00000 -0.69980
       3     C     2.61991  2.61991  0.00000  0.76017
       4     C     3.21042  3.21042  0.00000 -0.42084
       5     O     4.28279  4.28279  0.00000 -0.56559
       6     C     3.15922  3.15922  0.00000 -0.31843
       7     H     0.39925  0.39925  0.00000  0.20151
       8     H     0.39732  0.39732  0.00000  0.20536
       9     C     3.15334  3.15334  0.00000 -0.30668
      10     H     0.40639  0.40639  0.00000  0.18721
      11     H     0.41613  0.41613  0.00000  0.16775
      12     C     3.15841  3.15841  0.00000 -0.31682
      13     H     0.41948  0.41948  0.00000  0.16103
      14     H     0.42254  0.42254  0.00000  0.15493
      15     C     3.23999  3.23999  0.00000 -0.47998
      16     H     0.41237  0.41237  0.00000  0.17527
      17     H     0.42218  0.42218  0.00000  0.15565
      18     H     0.41798  0.41798  0.00000  0.16404
      19     H     0.42167  0.42167  0.00000  0.15665
      20     H     0.42232  0.42232  0.00000  0.15536

   Total alpha = 32.00000, Total beta = 32.00000, Total charge =  0.00000
