                              Psi4 1.0.54 Driver

  ==> Input File <==

--------------------------------------------------------------------------
set {
	reference rhf
	basis cc-pvtz
}

set_num_threads( 4 )
memory 2 gb

molecule MOL {
0 1

H	 -2.661094	 0.833041	 3.604568
O	 -1.957879	 0.277469	 3.323453
C	 -1.505366	 0.675048	 2.056338
C	 -0.374127	 -0.242475	 1.638518
H	 -2.313312	 0.621801	 1.329591
H	 -1.156150	 1.705184	 2.082769
C	 0.196029	 0.106276	 0.266738
H	 -0.741519	 -1.263867	 1.640404
H	 0.406185	 -0.190819	 2.391088
C	 1.330220	 -0.826136	 -0.155230
H	 -0.601689	 0.074365	 -0.469021
H	 0.563110	 1.130356	 0.276439
C	 2.719700	 -0.407669	 0.328325
H	 1.339388	 -0.911200	 -1.239363
H	 1.119001	 -1.821953	 0.224128
C	 3.241564	 0.893452	 -0.276737
H	 3.418299	 -1.204729	 0.093035
H	 2.711776	 -0.323368	 1.411960
H	 3.254204	 0.841071	 -1.360784
H	 2.634460	 1.745075	 0.005842
H	 4.254264	 1.092401	 0.054971

	symmetry c1
}
set optking {
	frozen_dihedral = ("
		4 7 10 14
	")
}

ee,wfn = optimize('scf', return_wfn=True)
oeprop( wfn, 'DIPOLE', 'QUADRUPOLE', 'MULLIKEN_CHARGES')
f=open( 'psi4out.xyz', 'w' )
f.write( "21  " )
f.write( str(ee) + "\n" )
f.write( MOL.save_string_xyz() )
f.close()
--------------------------------------------------------------------------

    Molecular point group: c1
  Charge       = 0
  Multiplicity = 1
  Basis Set: CC-PVTZ
  Basis Set:
  @DF-RHF Final Energy:  -310.32961417538570
    Total Energy =                       -310.3296141753859274
    Molecular point group: c1
  Basis Set: CC-PVTZ
  Basis Set:
  Basis Set: CC-PVTZ
  Basis Set:
  @DF-RHF Final Energy:  -310.32965001331797
    Total Energy =                       -310.3296500133184850
  Basis Set: CC-PVTZ
  Basis Set:
  Basis Set: CC-PVTZ
  Basis Set:
  @DF-RHF Final Energy:  -310.33008286668445
    Total Energy =                       -310.3300828666846769
  Basis Set: CC-PVTZ
  Basis Set:
  Basis Set: CC-PVTZ
  Basis Set:
  @DF-RHF Final Energy:  -310.33011020688275
    Total Energy =                       -310.3301102068825799
  Basis Set: CC-PVTZ
  Basis Set:
  Basis Set: CC-PVTZ
  Basis Set:
  @DF-RHF Final Energy:  -310.33008156648503
    Total Energy =                       -310.3300815664851484
  Basis Set: CC-PVTZ
  Basis Set:
  Basis Set: CC-PVTZ
  Basis Set:
  @DF-RHF Final Energy:  -310.33011555632959
    Total Energy =                       -310.3301155563297016
  Basis Set: CC-PVTZ
  Basis Set:
  Basis Set: CC-PVTZ
  Basis Set:
  @DF-RHF Final Energy:  -310.33011696272968
    Total Energy =                       -310.3301169627295053
  Basis Set: CC-PVTZ
  Basis Set:
  Charge       = 0
  Multiplicity = 1
  Basis Set: CC-PVTZ
  Basis Set:

    Orbital Energies (a.u.)
    -----------------------

    Doubly Occupied:

       1A    -20.545465     2A    -11.264971     3A    -11.213244
       4A    -11.212702     5A    -11.211225     6A    -11.208897
       7A    -11.205814     8A     -1.363306     9A     -1.086601
      10A     -1.032804    11A     -0.955721    12A     -0.875255
      13A     -0.815712    14A     -0.772701    15A     -0.694795
      16A     -0.660721    17A     -0.625525    18A     -0.613973
      19A     -0.575387    20A     -0.569960    21A     -0.550154
      22A     -0.524874    23A     -0.498269    24A     -0.494254
      25A     -0.482547    26A     -0.456437    27A     -0.450983
      28A     -0.447060    29A     -0.437301

  @DF-RHF Final Energy:  -310.33011709724201

   => Energetics <=

    Nuclear Repulsion Energy =            315.8214476770818919
    One-Electron Energy =               -1046.6098161882082422
    Two-Electron Energy =                 420.4582514138843976
    DFT Exchange-Correlation Energy =       0.0000000000000000
    Empirical Dispersion Energy =           0.0000000000000000
    PCM Polarization Energy =               0.0000000000000000
    EFP Energy =                            0.0000000000000000
    Total Energy =                       -310.3301170972419527
    Molecular point group: c1
  Basis Set: CC-PVTZ
  Basis Set:

  -Total Gradient:
     Atom            X                  Y                   Z
    ------   -----------------  -----------------  -----------------
       1       -0.000001947583     0.000002883557    -0.000004117113
       2        0.000016883149    -0.000002675351    -0.000000386517
       3       -0.000013008760    -0.000001556971    -0.000006949988
       4       -0.001309819384    -0.001229768117    -0.000887382378
       5        0.000000678586     0.000001857789    -0.000002797468
       6        0.000002101436     0.000003180721     0.000005345756
       7        0.001410401927     0.001184987527     0.001262184126
       8       -0.000001574904    -0.000004473187     0.000004326972
       9        0.000004786866     0.000003727140    -0.000000549280
      10        0.001539052679     0.002203438739    -0.000474542876
      11       -0.000004731269     0.000003157579     0.000002893007
      12        0.000002630936     0.000005318924     0.000000305807
      13       -0.000008825673     0.000003691585     0.000002423551
      14       -0.001654080733    -0.002167278987     0.000103265428
      15        0.000003281942    -0.000003490962    -0.000001281624
      16        0.000007934981    -0.000003901237     0.000004779683
      17        0.000005818173    -0.000007757241    -0.000003172470
      18        0.000002308733     0.000000606337    -0.000001358382
      19       -0.000001664099    -0.000003313866    -0.000004287414
      20       -0.000007072233     0.000011909690     0.000000778162
      21        0.000006845225    -0.000000543673     0.000000523017

  **** Optimization is complete! (in 8 steps) ****
    Final optimized geometry and variables:
    Molecular point group: c1

    Geometry (in Angstrom), charge = 0, multiplicity = 1:

    H           -3.147990640669     0.705544938276     2.555695743040
    O           -2.456478382296     0.143832673354     2.258358709402
    C           -1.979086179005     0.582552382502     1.014151307301
    C           -0.868909240470    -0.347260335705     0.568218012347
    H           -2.779960182127     0.583005244072     0.277561699771
    H           -1.602336679854     1.600540283550     1.088514745812
    C           -0.292257962572     0.031481134626    -0.794328060838
    H           -1.260602231880    -1.358430599267     0.531406460160
    H           -0.093614193195    -0.341107151368     1.327460291862
    C            0.866124560836    -0.873835000510    -1.237234229629
    H           -1.087512301650    -0.029227782999    -1.531739125534
    H            0.025644797459     1.069330551896    -0.784501428949
    C            2.250168373537    -0.460922692041    -0.730213797257
    H            0.883467418252    -0.937834046622    -2.321245451387
    H            0.658043795359    -1.883580286020    -0.894893210157
    C            2.822176532144     0.782396783957    -1.407064727997
    H            2.936394155564    -1.286841376844    -0.889550187206
    H            2.214121255622    -0.304366498615     0.344021308775
    H            2.909810426427     0.634099926942    -2.478434078627
    H            2.202413164717     1.656522658682    -1.245743166251
    H            3.810336227700     1.010059376970    -1.023672171052

  Mulliken Charges: (a.u.)
   Center  Symbol    Alpha    Beta     Spin     Total
       1     H     0.39742  0.39742  0.00000  0.20515
       2     O     4.19493  4.19493  0.00000 -0.38986
       3     C     2.96389  2.96389  0.00000  0.07221
       4     C     3.08427  3.08427  0.00000 -0.16854
       5     H     0.47433  0.47433  0.00000  0.05133
       6     H     0.47441  0.47441  0.00000  0.05117
       7     C     3.10906  3.10906  0.00000 -0.21811
       8     H     0.45029  0.45029  0.00000  0.09942
       9     H     0.45080  0.45080  0.00000  0.09840
      10     C     3.10372  3.10372  0.00000 -0.20744
      11     H     0.44844  0.44844  0.00000  0.10312
      12     H     0.45408  0.45408  0.00000  0.09184
      13     C     3.08943  3.08943  0.00000 -0.17885
      14     H     0.44682  0.44682  0.00000  0.10635
      15     H     0.44938  0.44938  0.00000  0.10124
      16     C     3.14924  3.14924  0.00000 -0.29848
      17     H     0.44824  0.44824  0.00000  0.10353
      18     H     0.45334  0.45334  0.00000  0.09332
      19     H     0.45502  0.45502  0.00000  0.08996
      20     H     0.45531  0.45531  0.00000  0.08938
      21     H     0.44757  0.44757  0.00000  0.10485

   Total alpha = 29.00000, Total beta = 29.00000, Total charge = -0.00000

*** Psi4 exiting successfully. Buy a developer a beer!
