                              Psi4 1.0.54 Driver

  ==> Input File <==

--------------------------------------------------------------------------
set {
	reference rhf
	basis cc-pvtz
}

set_num_threads( 4 )
memory 2 gb

molecule MOL {
0 1

H	 -2.498963	 -0.741158	 -0.729149
O	 -2.346257	 -0.289210	 0.080372
C	 -1.183935	 0.486039	 -0.009831
C	 0.062853	 -0.375310	 0.027457
H	 -1.178881	 1.094526	 -0.908634
H	 -1.184406	 1.155156	 0.838676
O	 1.137395	 0.392545	 -0.405220
H	 -0.067806	 -1.247226	 -0.615650
H	 0.223776	 -0.738204	 1.040366
C	 2.361466	 -0.265281	 -0.393564
H	 2.351573	 -1.134846	 -1.047041
H	 3.112404	 0.426393	 -0.746219
H	 2.627752	 -0.591270	 0.609104

	symmetry c1
}
set optking {
	frozen_dihedral = ("
		8 4 3 5
	")
}

ee,wfn = optimize('scf', return_wfn=True)
oeprop( wfn, 'DIPOLE', 'QUADRUPOLE', 'MULLIKEN_CHARGES')
f=open( 'psi4out.xyz', 'w' )
f.write( "13  " )
f.write( str(ee) + "\n" )
f.write( MOL.save_string_xyz() )
f.close()
--------------------------------------------------------------------------

    Molecular point group: c1
  Charge       = 0
  Multiplicity = 1
  Basis Set: CC-PVTZ
  Basis Set:
  @DF-RHF Final Energy:  -268.06128517312976
    Total Energy =                       -268.0612851731298747
    Molecular point group: c1
  Basis Set: CC-PVTZ
  Basis Set:
  Basis Set: CC-PVTZ
  Basis Set:
  @DF-RHF Final Energy:  -268.06142048760728
    Total Energy =                       -268.0614204876072790
  Basis Set: CC-PVTZ
  Basis Set:
  Basis Set: CC-PVTZ
  Basis Set:
  @DF-RHF Final Energy:  -268.06146713599969
    Total Energy =                       -268.0614671359996919
  Basis Set: CC-PVTZ
  Basis Set:
  Basis Set: CC-PVTZ
  Basis Set:
  @DF-RHF Final Energy:  -268.06146858135361
    Total Energy =                       -268.0614685813536653
  Basis Set: CC-PVTZ
  Basis Set:
  Charge       = 0
  Multiplicity = 1
  Basis Set: CC-PVTZ
  Basis Set:

    Orbital Energies (a.u.)
    -----------------------

    Doubly Occupied:

       1A    -20.556948     2A    -20.553106     3A    -11.269746
       4A    -11.268277     5A    -11.267410     6A     -1.392913
       7A     -1.369828     8A     -1.019436     9A     -0.914787
      10A     -0.843546    11A     -0.711309    12A     -0.678367
      13A     -0.662996    14A     -0.636329    15A     -0.604009
      16A     -0.569978    17A     -0.544737    18A     -0.492387
      19A     -0.483759    20A     -0.441476    21A     -0.424530

  @DF-RHF Final Energy:  -268.06146872713623

   => Energetics <=

    Nuclear Repulsion Energy =            190.4704265974471582
    One-Electron Energy =                -743.6520409361853581
    Two-Electron Energy =                 285.1201456116018562
    DFT Exchange-Correlation Energy =       0.0000000000000000
    Empirical Dispersion Energy =           0.0000000000000000
    PCM Polarization Energy =               0.0000000000000000
    EFP Energy =                            0.0000000000000000
    Total Energy =                       -268.0614687271363437
    Molecular point group: c1
  Basis Set: CC-PVTZ
  Basis Set:

  -Total Gradient:
     Atom            X                  Y                   Z
    ------   -----------------  -----------------  -----------------
       1       -0.000005464102     0.000004330352     0.000003816154
       2        0.000019442637     0.000001975064    -0.000011271941
       3       -0.002094833821    -0.003104796684    -0.001272992445
       4        0.001705416508     0.002518804149    -0.002557667489
       5        0.001489434317     0.002177958210     0.001498851807
       6       -0.000001636113     0.000004895630     0.000002790954
       7        0.000001942575    -0.000003439831     0.000008394746
       8       -0.001114730754    -0.001609028607     0.002318654790
       9        0.000007152558     0.000013920286     0.000001932248
      10       -0.000006548435    -0.000009084940     0.000014352153
      11        0.000002252676     0.000000377299    -0.000004589671
      12       -0.000007905845     0.000003034669    -0.000002360360
      13        0.000005477793     0.000001054401     0.000000089053

  **** Optimization is complete! (in 5 steps) ****
    Final optimized geometry and variables:
    Molecular point group: c1

    Geometry (in Angstrom), charge = 0, multiplicity = 1:

    H           -2.497234661791    -0.737691540004    -0.542341520212
    O           -2.336985771981    -0.265953395769     0.254507021311
    C           -1.175056302736     0.502219785433     0.133655233885
    C            0.077071760512    -0.356791196622     0.139778917076
    H           -1.176874773524     1.121379961759    -0.757863046860
    H           -1.159153289111     1.173617696128     0.980941794545
    O            1.151759343328     0.421941462616    -0.268555127268
    H           -0.063566865259    -1.217452433864    -0.516063562371
    H            0.245420895922    -0.754321387261     1.139095811049
    C            2.382996530402    -0.221441674327    -0.225290492821
    H            2.396903399921    -1.096197714174    -0.871671255350
    H            3.132936344441     0.476350916786    -0.567756679331
    H            2.631554870007    -0.536254531022     0.785373804852

  Mulliken Charges: (a.u.)
   Center  Symbol    Alpha    Beta     Spin     Total
       1     H     0.39365  0.39365  0.00000  0.21271
       2     O     4.20249  4.20249  0.00000 -0.40497
       3     C     2.97186  2.97186  0.00000  0.05628
       4     C     2.96309  2.96309  0.00000  0.07381
       5     H     0.46729  0.46729  0.00000  0.06542
       6     H     0.45466  0.45466  0.00000  0.09068
       7     O     4.17504  4.17504  0.00000 -0.35008
       8     H     0.48235  0.48235  0.00000  0.03530
       9     H     0.47174  0.47174  0.00000  0.05652
      10     C     3.03111  3.03111  0.00000 -0.06222
      11     H     0.47112  0.47112  0.00000  0.05775
      12     H     0.44595  0.44595  0.00000  0.10811
      13     H     0.46966  0.46966  0.00000  0.06069

   Total alpha = 21.00000, Total beta = 21.00000, Total charge = -0.00000

*** Psi4 exiting successfully. Buy a developer a beer!
