                              Psi4 1.0.54 Driver

  ==> Input File <==

--------------------------------------------------------------------------
set {
	reference rhf
	basis cc-pvtz
}

set_num_threads( 4 )
memory 2 gb

molecule MOL {
0 1

H	 1.123783	 -1.344829	 -0.670539
O	 1.675515	 -0.612943	 -0.465627
C	 1.135873	 0.113391	 0.608264
C	 0.027642	 1.012027	 0.090274
H	 1.902972	 0.727968	 1.072615
H	 0.756163	 -0.561896	 1.370018
C	 -1.138737	 0.285728	 -0.581921
H	 0.464661	 1.708096	 -0.618252
H	 -0.340737	 1.603071	 0.925246
C	 -1.933983	 -0.631436	 0.343653
H	 -0.763151	 -0.285569	 -1.422081
H	 -1.808359	 1.035291	 -0.992333
H	 -2.789188	 -1.049673	 -0.174718
H	 -1.335629	 -1.461368	 0.700418
H	 -2.305435	 -0.092167	 1.209725

	symmetry c1
}
set optking {
	frozen_dihedral = ("
		1 2 3 4
	")
}

ee,wfn = optimize('scf', return_wfn=True)
oeprop( wfn, 'DIPOLE', 'QUADRUPOLE', 'MULLIKEN_CHARGES')
f=open( 'psi4out.xyz', 'w' )
f.write( "15  " )
f.write( str(ee) + "\n" )
f.write( MOL.save_string_xyz() )
f.close()
--------------------------------------------------------------------------

    Molecular point group: c1
  Charge       = 0
  Multiplicity = 1
  Basis Set: CC-PVTZ
  Basis Set:
  @DF-RHF Final Energy:  -232.23491999923567
    Total Energy =                       -232.2349199992355580
    Molecular point group: c1
  Basis Set: CC-PVTZ
  Basis Set:
  Basis Set: CC-PVTZ
  Basis Set:
  @DF-RHF Final Energy:  -232.16941493270292
    Total Energy =                       -232.1694149327029209
  Basis Set: CC-PVTZ
  Basis Set:
  Basis Set: CC-PVTZ
  Basis Set:
  @DF-RHF Final Energy:  -232.23154511145822
    Total Energy =                       -232.2315451114582743
  Basis Set: CC-PVTZ
  Basis Set:
  Basis Set: CC-PVTZ
  Basis Set:
  @DF-RHF Final Energy:  -232.23647921990380
    Total Energy =                       -232.2364792199036856
  Basis Set: CC-PVTZ
  Basis Set:
  Basis Set: CC-PVTZ
  Basis Set:
  @DF-RHF Final Energy:  -232.23659239650698
    Total Energy =                       -232.2365923965069783
  Basis Set: CC-PVTZ
  Basis Set:
  Basis Set: CC-PVTZ
  Basis Set:
  @DF-RHF Final Energy:  -232.23659713894065
    Total Energy =                       -232.2365971389407378
  Basis Set: CC-PVTZ
  Basis Set:
  Basis Set: CC-PVTZ
  Basis Set:
  @DF-RHF Final Energy:  -232.23661051820940
    Total Energy =                       -232.2366105182094316
  Basis Set: CC-PVTZ
  Basis Set:
  Charge       = 0
  Multiplicity = 1
  Basis Set: CC-PVTZ
  Basis Set:

    Orbital Energies (a.u.)
    -----------------------

    Doubly Occupied:

       1A    -20.546023     2A    -11.265041     3A    -11.218821
       4A    -11.213538     5A    -11.213260     6A     -1.363598
       7A     -1.071107     8A     -0.976561     9A     -0.879401
      10A     -0.785874    11A     -0.699969    12A     -0.645298
      13A     -0.615924    14A     -0.586627    15A     -0.571505
      16A     -0.545878    17A     -0.504027    18A     -0.494021
      19A     -0.476531    20A     -0.459105    21A     -0.429326

  @DF-RHF Final Energy:  -232.23661065453692

   => Energetics <=

    Nuclear Repulsion Energy =            191.5413660191698852
    One-Electron Energy =                -694.4330816572273761
    Two-Electron Energy =                 270.6551049835205163
    DFT Exchange-Correlation Energy =       0.0000000000000000
    Empirical Dispersion Energy =           0.0000000000000000
    PCM Polarization Energy =               0.0000000000000000
    EFP Energy =                            0.0000000000000000
    Total Energy =                       -232.2366106545369462
    Molecular point group: c1
  Basis Set: CC-PVTZ
  Basis Set:

  -Total Gradient:
     Atom            X                  Y                   Z
    ------   -----------------  -----------------  -----------------
       1        0.000183084324    -0.000117533549     0.000430207806
       2       -0.000111863006     0.000205871384    -0.000553647061
       3       -0.000189090797    -0.000366251468     0.000120024638
       4        0.000141452924     0.000260308129    -0.000008545102
       5       -0.000025117255    -0.000003258025     0.000000588449
       6       -0.000007468837     0.000017605614    -0.000001093723
       7        0.000014444077     0.000015876693    -0.000006300529
       8        0.000014730600    -0.000005243333     0.000020628185
       9       -0.000015006351     0.000003448579    -0.000025998320
      10       -0.000013291401    -0.000018526057     0.000015786072
      11       -0.000019329756     0.000009808891     0.000006177448
      12        0.000020011235    -0.000004959171     0.000020243969
      13        0.000005416438    -0.000001447716     0.000008035110
      14       -0.000007748375     0.000010488882    -0.000012513375
      15        0.000009776179    -0.000006188852    -0.000013593566

  **** Optimization is complete! (in 8 steps) ****
    Final optimized geometry and variables:
    Molecular point group: c1

    Geometry (in Angstrom), charge = 0, multiplicity = 1:

    H            1.545781095858    -1.224362327787     0.056157434158
    O            1.885150263928    -0.355999577047     0.166254204420
    C            0.924329459803     0.472082103404     0.768502824612
    C           -0.121806628786     0.983562348233    -0.212651471855
    H            1.467976815259     1.314351803919     1.175264182393
    H            0.456135632473    -0.036158751351     1.606331823629
    C           -0.986741145957    -0.091425163802    -0.873650117846
    H            0.392547899362     1.544763787485    -0.985735662824
    H           -0.761976375133     1.687381067269     0.314647176172
    C           -1.888871517445    -0.864274056228     0.086180009285
    H           -0.350828033245    -0.784594293432    -1.416141365426
    H           -1.606414463001     0.387084218803    -1.624783486144
    H           -2.516505385166    -1.562958440502    -0.454631921692
    H           -1.321369678003    -1.435599421349     0.812319565973
    H           -2.540124736660    -0.192698236776     0.635842227200

  Mulliken Charges: (a.u.)
   Center  Symbol    Alpha    Beta     Spin     Total
       1     H     0.39229  0.39229  0.00000  0.21542
       2     O     4.20635  4.20635  0.00000 -0.41271
       3     C     2.98483  2.98483  0.00000  0.03035
       4     C     3.09005  3.09005  0.00000 -0.18010
       5     H     0.44685  0.44685  0.00000  0.10630
       6     H     0.46687  0.46687  0.00000  0.06627
       7     C     3.10488  3.10488  0.00000 -0.20975
       8     H     0.44769  0.44769  0.00000  0.10463
       9     H     0.45617  0.45617  0.00000  0.08766
      10     C     3.15147  3.15147  0.00000 -0.30294
      11     H     0.45164  0.45164  0.00000  0.09672
      12     H     0.44520  0.44520  0.00000  0.10960
      13     H     0.44508  0.44508  0.00000  0.10985
      14     H     0.45757  0.45757  0.00000  0.08487
      15     H     0.45308  0.45308  0.00000  0.09384

   Total alpha = 21.00000, Total beta = 21.00000, Total charge =  0.00000

*** Psi4 exiting successfully. Buy a developer a beer!
