  ==> Input File <==

--------------------------------------------------------------------------
set {
	reference rhf
	basis 6-31G*
}

set_num_threads( 4 )
memory 2 gb

molecule MOL {
0 1

H	 -1.404149	 2.255929	 3.830756
O	 -0.711547	 1.678846	 3.542340
C	 -0.864585	 1.404715	 2.173391
C	 0.260881	 0.479194	 1.746208
H	 -1.827776	 0.933449	 1.982397
H	 -0.831092	 2.325290	 1.592220
C	 0.198102	 0.111031	 0.262842
H	 0.215848	 -0.418371	 2.357008
H	 1.206594	 0.963741	 1.972740
C	 1.331804	 -0.827780	 -0.158768
H	 -0.763122	 -0.350156	 0.049472
H	 0.243876	 1.017744	 -0.339068
C	 2.723619	 -0.410569	 0.329459
H	 1.342964	 -0.912588	 -1.244120
H	 1.116806	 -1.824343	 0.220779
C	 3.243875	 0.895854	 -0.272975
H	 3.424222	 -1.207124	 0.091250
H	 2.714788	 -0.329854	 1.414619
H	 3.251977	 0.848779	 -1.358681
H	 2.637085	 1.747371	 0.016682
H	 4.259473	 1.094070	 0.055697

	symmetry c1
}
set optking {
	frozen_dihedral = ("
		4 7 10 14
	")
}

ee = optimize('scf')
oeprop('DIPOLE', 'QUADRUPOLE', 'MULLIKEN_CHARGES')
f=open( 'psi4out.xyz', 'w' )
f.write( "21  " )
f.write( str(ee) + "\n" )
f.write( MOL.save_string_xyz() )
f.close()
--------------------------------------------------------------------------

    Molecular point group: c1
  Charge       = 0
  Multiplicity = 1
  Basis Set: 6-31G*
  Basis Set:
  @DF-RHF Final Energy:  -310.20904923170218
    Total Energy =                       -310.2090492317022381
    Molecular point group: c1
  Basis Set: 6-31G*
  Basis Set:
  Basis Set: 6-31G*
  Basis Set:
  @DF-RHF Final Energy:  -310.20985731576320
    Total Energy =                       -310.2098573157632586
  Basis Set: 6-31G*
  Basis Set:
  Basis Set: 6-31G*
  Basis Set:
  @DF-RHF Final Energy:  -310.21044102954727
    Total Energy =                       -310.2104410295474963
  Basis Set: 6-31G*
  Basis Set:
  Basis Set: 6-31G*
  Basis Set:
  @DF-RHF Final Energy:  -310.21052302517973
    Total Energy =                       -310.2105230251801231
  Basis Set: 6-31G*
  Basis Set:
  Basis Set: 6-31G*
  Basis Set:
  @DF-RHF Final Energy:  -310.21052886078706
    Total Energy =                       -310.2105288607867237
  Basis Set: 6-31G*
  Basis Set:
  Basis Set: 6-31G*
  Basis Set:
  @DF-RHF Final Energy:  -310.21053036408762
    Total Energy =                       -310.2105303640876173
  Basis Set: 6-31G*
  Basis Set:
  Charge       = 0
  Multiplicity = 1
  Basis Set: 6-31G*
  Basis Set:

    Orbital Energies (a.u.)
    -----------------------

    Doubly Occupied:

       1A    -20.552007     2A    -11.267272     3A    -11.216110
       4A    -11.214116     5A    -11.212878     6A    -11.210527
       7A    -11.207117     8A     -1.358841     9A     -1.086050
      10A     -1.029315    11A     -0.955645    12A     -0.875117
      13A     -0.819782    14A     -0.763607    15A     -0.689552
      16A     -0.660371    17A     -0.627636    18A     -0.616711
      19A     -0.571686    20A     -0.561007    21A     -0.550726
      22A     -0.526377    23A     -0.501535    24A     -0.492451
      25A     -0.478515    26A     -0.455234    27A     -0.448562
      28A     -0.446881    29A     -0.434293

  @DF-RHF Final Energy:  -310.21053094186470

   => Energetics <=

    Nuclear Repulsion Energy =            319.7004353777609822
    One-Electron Energy =               -1054.1620901247879374
    Two-Electron Energy =                 424.2511238051628197
    DFT Exchange-Correlation Energy =       0.0000000000000000
    Empirical Dispersion Energy =           0.0000000000000000
    PCM Polarization Energy =               0.0000000000000000
    EFP Energy =                            0.0000000000000000
    Total Energy =                       -310.2105309418641355
    Molecular point group: c1
  Basis Set: 6-31G*
  Basis Set:

  -Total Gradient:
     Atom            X                  Y                   Z
    ------   -----------------  -----------------  -----------------
       1        0.000000064714     0.000001340380     0.000001290933
       2        0.000000293139    -0.000000638020    -0.000000393271
       3       -0.000003848426    -0.000004021843    -0.000000912526
       4        0.001714655790     0.002184482616    -0.000600455061
       5       -0.000003578481     0.000000623944    -0.000001407560
       6        0.000001456450    -0.000001124042     0.000002112405
       7       -0.001863368926    -0.002466069371     0.000815387008
       8       -0.000001335484     0.000000978216    -0.000001276033
       9        0.000002512015     0.000001531310     0.000007036767
      10       -0.002309789940    -0.002581924826    -0.000044779100
      11        0.000003195756    -0.000006654884    -0.000007407046
      12        0.000000618326    -0.000002109649    -0.000002313611
      13       -0.000004006688     0.000014386511     0.000008972700
      14        0.002475647770     0.002866789924    -0.000172323351
      15        0.000000309574    -0.000001479374    -0.000001925613
      16       -0.000004373612    -0.000007269625    -0.000002968990
      17       -0.000006446106    -0.000001194904    -0.000001060238
      18       -0.000003734157     0.000000255253     0.000004115522
      19       -0.000001717816     0.000002283918    -0.000000497398
      20        0.000001850847     0.000001580240     0.000000906062
      21        0.000001595255    -0.000001765773    -0.000002101603

  **** Optimization is complete! (in 7 steps) ****
    Final optimized geometry and variables:
    Molecular point group: c1

    Geometry (in Angstrom), charge = 0, multiplicity = 1:

    H           -2.383658099492     1.717915969514     2.672939067942
    O           -1.646491723620     1.190631218923     2.399994134735
    C           -1.776885831846     0.864217248422     1.040202989645
    C           -0.580874230359     0.018561096031     0.638735019875
    H           -2.699699786174     0.313045352806     0.865214041777
    H           -1.815877601842     1.766884900212     0.431652156354
    C           -0.609965612739    -0.364620802238    -0.842857140640
    H           -0.568522129132    -0.872594655428     1.261446563517
    H            0.318034404901     0.577054337252     0.875585756964
    C            0.490000465701    -1.343744010982    -1.282425237682
    H           -1.573066257396    -0.810483304591    -1.082906106049
    H           -0.545434284231     0.542332518031    -1.440481989445
    C            1.921279656236    -0.987243066202    -0.857820573936
    H            0.478686896446    -1.399517425367    -2.369070367477
    H            0.253307816572    -2.336937084009    -0.908722074611
    C            2.435737263988     0.330812122120    -1.439186052837
    H            2.576694572586    -1.791118975859    -1.184248413440
    H            1.997333234366    -0.962182112237     0.225318611826
    H            2.382811142138     0.325162978169    -2.524710170107
    H            1.862418805005     1.182112138047    -1.086352701393
    H            3.471585320362     0.498271340403    -1.160702603404

  Mulliken Charges: (a.u.)
   Center  Symbol    Alpha    Beta     Spin     Total
       1     H     0.28115  0.28115  0.00000  0.43770
       2     O     4.37197  4.37197  0.00000 -0.74393
       3     C     2.98923  2.98923  0.00000  0.02155
       4     C     3.16269  3.16269  0.00000 -0.32537
       5     H     0.43265  0.43265  0.00000  0.13469
       6     H     0.43304  0.43304  0.00000  0.13392
       7     C     3.16333  3.16333  0.00000 -0.32666
       8     H     0.41549  0.41549  0.00000  0.16902
       9     H     0.41189  0.41189  0.00000  0.17622
      10     C     3.15143  3.15143  0.00000 -0.30285
      11     H     0.42164  0.42164  0.00000  0.15672
      12     H     0.42216  0.42216  0.00000  0.15567
      13     C     3.15668  3.15668  0.00000 -0.31337
      14     H     0.42281  0.42281  0.00000  0.15439
      15     H     0.42115  0.42115  0.00000  0.15770
      16     C     3.24135  3.24135  0.00000 -0.48270
      17     H     0.42090  0.42090  0.00000  0.15819
      18     H     0.41859  0.41859  0.00000  0.16282
      19     H     0.42275  0.42275  0.00000  0.15450
      20     H     0.42032  0.42032  0.00000  0.15936
      21     H     0.41877  0.41877  0.00000  0.16245

   Total alpha = 29.00000, Total beta = 29.00000, Total charge = -0.00000
