  ==> Input File <==

--------------------------------------------------------------------------
set {
	reference rhf
	basis cc-pvtz
}

set_num_threads( 4 )
memory 2 gb

molecule MOL {
0 1

H	 2.342730	 0.877684	 -1.045694
C	 2.360424	 0.000000	 -0.411793
C	 1.173749	 0.000000	 0.526870
H	 3.286567	 0.000000	 0.151574
H	 2.342730	 -0.877684	 -1.045694
O	 -0.000000	 0.000000	 -0.223739
H	 1.203779	 0.876757	 1.172538
H	 1.203779	 -0.876757	 1.172538
C	 -1.173749	 0.000000	 0.526870
C	 -1.216955	 1.251366	 1.376283
H	 -1.212452	 -0.886248	 1.158976
H	 -2.039084	 -0.037367	 -0.133653
H	 -0.366131	 1.285425	 2.045171
H	 -2.123631	 1.272669	 1.970090
H	 -1.193637	 2.135204	 0.751175

	symmetry c1
}
set optking {
	frozen_dihedral = ("
		11 9 6 3
	")
}

ee = optimize('scf')
oeprop('DIPOLE', 'QUADRUPOLE', 'MULLIKEN_CHARGES')
f=open( 'psi4out.xyz', 'w' )
f.write( "15  " )
f.write( str(ee) + "\n" )
f.write( MOL.save_string_xyz() )
f.close()
--------------------------------------------------------------------------

    Molecular point group: c1
  Charge       = 0
  Multiplicity = 1
  Basis Set: CC-PVTZ
  Basis Set:
  @DF-RHF Final Energy:  -232.22482573283557
    Total Energy =                       -232.2248257328356544
    Molecular point group: c1
  Basis Set: CC-PVTZ
  Basis Set:
  Basis Set: CC-PVTZ
  Basis Set:
  @DF-RHF Final Energy:  -232.22623600979250
    Total Energy =                       -232.2262360097922738
  Basis Set: CC-PVTZ
  Basis Set:
  Basis Set: CC-PVTZ
  Basis Set:
  @DF-RHF Final Energy:  -232.22968991651877
    Total Energy =                       -232.2296899165183959
  Basis Set: CC-PVTZ
  Basis Set:
  Basis Set: CC-PVTZ
  Basis Set:
  @DF-RHF Final Energy:  -232.23027944019736
    Total Energy =                       -232.2302794401971369
  Basis Set: CC-PVTZ
  Basis Set:
  Basis Set: CC-PVTZ
  Basis Set:
  @DF-RHF Final Energy:  -232.23035451207861
    Total Energy =                       -232.2303545120788613
  Basis Set: CC-PVTZ
  Basis Set:
  Basis Set: CC-PVTZ
  Basis Set:
  @DF-RHF Final Energy:  -232.23036050152845
    Total Energy =                       -232.2303605015285370
  Basis Set: CC-PVTZ
  Basis Set:
  Charge       = 0
  Multiplicity = 1
  Basis Set: CC-PVTZ
  Basis Set:

    Orbital Energies (a.u.)
    -----------------------

    Doubly Occupied:

       1A    -20.543892     2A    -11.266321     3A    -11.265236
       4A    -11.210629     5A    -11.206386     6A     -1.378053
       7A     -1.041180     8A     -0.988393     9A     -0.866999
      10A     -0.807750    11A     -0.675679    12A     -0.654607
      13A     -0.636651    14A     -0.584087    15A     -0.547495
      16A     -0.542858    17A     -0.524833    18A     -0.504331
      19A     -0.487996    20A     -0.455679    21A     -0.411428

  @DF-RHF Final Energy:  -232.23036072903531

   => Energetics <=

    Nuclear Repulsion Energy =            193.1370076834985241
    One-Electron Energy =                -697.5337752995084202
    Two-Electron Energy =                 272.1664068869747553
    DFT Exchange-Correlation Energy =       0.0000000000000000
    Empirical Dispersion Energy =           0.0000000000000000
    PCM Polarization Energy =               0.0000000000000000
    EFP Energy =                            0.0000000000000000
    Total Energy =                       -232.2303607290351692
    Molecular point group: c1
  Basis Set: CC-PVTZ
  Basis Set:

  -Total Gradient:
     Atom            X                  Y                   Z
    ------   -----------------  -----------------  -----------------
       1       -0.000000695522    -0.000000900033     0.000001327174
       2       -0.000021641620    -0.000004567698    -0.000009909896
       3       -0.000028771960     0.001365832667     0.000119275338
       4       -0.000008647155     0.000000037163     0.000006926344
       5        0.000003024958    -0.000002511733    -0.000004955625
       6       -0.000240408514    -0.002181834515    -0.000479833066
       7        0.000000112217     0.000002788281     0.000006423723
       8        0.000003318941    -0.000003572984    -0.000004200169
       9        0.000976940649     0.001559091608     0.001633734702
      10        0.000001085653     0.000011639643     0.000016229946
      11       -0.000733640575    -0.000744822179    -0.001270822558
      12        0.000042951508    -0.000013783703    -0.000027674230
      13        0.000005642437     0.000006541608     0.000010163060
      14       -0.000000104354     0.000003187798     0.000000778109
      15        0.000000833338     0.000002874077     0.000002537148

  **** Optimization is complete! (in 7 steps) ****
    Final optimized geometry and variables:
    Molecular point group: c1

    Geometry (in Angstrom), charge = 0, multiplicity = 1:

    H            2.169617113159     0.447067873760    -1.541079874601
    C            2.147801842719    -0.377291133983    -0.839119952141
    C            1.005712940220    -0.207122808728     0.139545588591
    H            3.095033935719    -0.405806108581    -0.312269924827
    H            2.035524944907    -1.297205281453    -1.399136447317
    O           -0.190942051908    -0.161951025388    -0.575549230772
    H            1.146360369053     0.703497388232     0.715196203596
    H            0.987973193178    -1.037948370928     0.844511235991
    C           -1.369819293648    -0.224960397078     0.168847209617
    C           -1.600708155957     0.961197107628     1.092079180959
    H           -1.402174444160    -1.156905279809     0.732213707202
    H           -2.167624996715    -0.269890292953    -0.560678772475
    H           -0.886585892945     0.996096604978     1.905326799648
    H           -2.591336837545     0.892953163938     1.527749991267
    H           -1.535197286930     1.890692913734     0.538628622602

  Mulliken Charges: (a.u.)
   Center  Symbol    Alpha    Beta     Spin     Total
       1     H     0.45117  0.45117  0.00000  0.09765
       2     C     3.13514  3.13514  0.00000 -0.27028
       3     C     2.96704  2.96704  0.00000  0.06592
       4     H     0.45952  0.45952  0.00000  0.08095
       5     H     0.45160  0.45160  0.00000  0.09681
       6     O     4.18056  4.18056  0.00000 -0.36112
       7     H     0.47067  0.47067  0.00000  0.05865
       8     H     0.47430  0.47430  0.00000  0.05139
       9     C     2.98347  2.98347  0.00000  0.03307
      10     C     3.15170  3.15170  0.00000 -0.30339
      11     H     0.46973  0.46973  0.00000  0.06053
      12     H     0.45069  0.45069  0.00000  0.09861
      13     H     0.45492  0.45492  0.00000  0.09016
      14     H     0.44987  0.44987  0.00000  0.10027
      15     H     0.44961  0.44961  0.00000  0.10077

   Total alpha = 21.00000, Total beta = 21.00000, Total charge =  0.00000
