  ==> Input File <==

--------------------------------------------------------------------------
set {
	reference rhf
	basis 6-31G*
}

set_num_threads( 4 )
memory 2 gb

molecule MOL {
0 1

H	 -0.132548	 -3.745022	 -0.124539
O	 0.224454	 -2.863659	 -0.074191
C	 -0.793718	 -2.004039	 -0.077379
C	 -0.318135	 -0.576402	 0.000164
O	 -1.924434	 -2.363328	 -0.135594
C	 -1.454360	 0.441875	 -0.000474
H	 0.291831	 -0.486059	 0.895029
H	 0.357324	 -0.413955	 -0.835521
C	 -2.826123	 -0.230780	 0.000056
H	 -1.357605	 1.085198	 -0.868380
H	 -1.357504	 1.086451	 0.866496
H	 -2.959731	 -0.858053	 -0.876869
H	 -3.619374	 0.509403	 -0.000080
H	 -2.959371	 -0.857318	 0.877556

	symmetry c1
}
set optking {
	frozen_dihedral = ("
		7 4 6 10
	")
}

ee = optimize('scf')
oeprop('DIPOLE', 'QUADRUPOLE', 'MULLIKEN_CHARGES')
f=open( 'psi4out.xyz', 'w' )
f.write( "14  " )
f.write( str(ee) + "\n" )
f.write( MOL.save_string_xyz() )
f.close()
--------------------------------------------------------------------------

    Molecular point group: c1
  Charge       = 0
  Multiplicity = 1
  Basis Set: 6-31G*
  Basis Set:
  @DF-RHF Final Energy:  -305.84348965081699
    Total Energy =                       -305.8434896508171619
    Molecular point group: c1
  Basis Set: 6-31G*
  Basis Set:
  Basis Set: 6-31G*
  Basis Set:
  @DF-RHF Final Energy:  -305.86303457419962
    Total Energy =                       -305.8630345741996734
  Basis Set: 6-31G*
  Basis Set:
  Basis Set: 6-31G*
  Basis Set:
  @DF-RHF Final Energy:  -305.86682772856346
    Total Energy =                       -305.8668277285632371
  Basis Set: 6-31G*
  Basis Set:
  Basis Set: 6-31G*
  Basis Set:
  @DF-RHF Final Energy:  -305.86525148737178
    Total Energy =                       -305.8652514873718928
  Basis Set: 6-31G*
  Basis Set:
  @DF-RHF Final Energy:  -305.86824131053959
    Total Energy =                       -305.8682413105397018
  @DF-RHF Final Energy:  -305.86862072348367
    Total Energy =                       -305.8686207234835592
  @DF-RHF Final Energy:  -305.86869303794765
    Total Energy =                       -305.8686930379476507
  @DF-RHF Final Energy:  -305.86885357575221
    Total Energy =                       -305.8688535757522118
  @DF-RHF Final Energy:  -305.86910088027327
    Total Energy =                       -305.8691008802733222
  @DF-RHF Final Energy:  -305.86929707435598
    Total Energy =                       -305.8692970743559272
  @DF-RHF Final Energy:  -305.86926122058844
    Total Energy =                       -305.8692612205884416
  @DF-RHF Final Energy:  -305.86950743000307
    Total Energy =                       -305.8695074300030683
  @DF-RHF Final Energy:  -305.86959383241123
    Total Energy =                       -305.8695938324111694
  @DF-RHF Final Energy:  -305.86966462387960
    Total Energy =                       -305.8696646238794870
  @DF-RHF Final Energy:  -305.86984570826786
    Total Energy =                       -305.8698457082676896
  @DF-RHF Final Energy:  -305.87001718325303
    Total Energy =                       -305.8700171832532533
  @DF-RHF Final Energy:  -305.87017786072818
    Total Energy =                       -305.8701778607280630
  @DF-RHF Final Energy:  -305.87035679087865
    Total Energy =                       -305.8703567908787591
  @DF-RHF Final Energy:  -305.87088960378787
    Total Energy =                       -305.8708896037877025
  @DF-RHF Final Energy:  -305.87081391164213
    Total Energy =                       -305.8708139116419034
  @DF-RHF Final Energy:  -305.87078018083594
    Total Energy =                       -305.8707801808359363
  @DF-RHF Final Energy:  -305.87119910971444
    Total Energy =                       -305.8711991097143255
  Basis Set: 6-31G*
  Basis Set:
  @DF-RHF Final Energy:  -305.87131103853466
    Total Energy =                       -305.8713110385348273
  Basis Set: 6-31G*
  Basis Set:
  Basis Set: 6-31G*
  Basis Set:
  @DF-RHF Final Energy:  -305.87132630852750
    Total Energy =                       -305.8713263085273866
  Basis Set: 6-31G*
  Basis Set:
  Basis Set: 6-31G*
  Basis Set:
  @DF-RHF Final Energy:  -305.87133243588391
    Total Energy =                       -305.8713324358838008
  Basis Set: 6-31G*
  Basis Set:
  Charge       = 0
  Multiplicity = 1
  Basis Set: 6-31G*
  Basis Set:

    Orbital Energies (a.u.)
    -----------------------

    Doubly Occupied:

       1A    -20.613826     2A    -20.549512     3A    -11.380501
       4A    -11.239314     5A    -11.236860     6A    -11.216801
       7A     -1.474432     8A     -1.364485     9A     -1.079857
      10A     -0.977128    11A     -0.864137    12A     -0.796699
      13A     -0.701680    14A     -0.676398    15A     -0.649636
      16A     -0.633966    17A     -0.586082    18A     -0.571990
      19A     -0.557860    20A     -0.509423    21A     -0.496951
      22A     -0.481990    23A     -0.471116    24A     -0.438456

  @DF-RHF Final Energy:  -305.87133341413175

   => Energetics <=

    Nuclear Repulsion Energy =            246.8151944250311374
    One-Electron Energy =                -906.2348511697985032
    Two-Electron Energy =                 353.5483233306358670
    DFT Exchange-Correlation Energy =       0.0000000000000000
    Empirical Dispersion Energy =           0.0000000000000000
    PCM Polarization Energy =               0.0000000000000000
    EFP Energy =                            0.0000000000000000
    Total Energy =                       -305.8713334141315272
    Molecular point group: c1
  Basis Set: 6-31G*
  Basis Set:

  -Total Gradient:
     Atom            X                  Y                   Z
    ------   -----------------  -----------------  -----------------
       1        0.000001900852     0.000017017520    -0.000009781363
       2       -0.000009371152    -0.000013133821     0.000104461989
       3        0.000011710622    -0.000032056948    -0.000150018735
       4       -0.000254595879    -0.000456389263     0.000447629265
       5       -0.000011503442     0.000025801504     0.000044688063
       6       -0.000363820211    -0.000341565300    -0.000424924594
       7        0.000252542200     0.000439327901    -0.000291746007
       8       -0.000015324920     0.000026907481    -0.000003305744
       9       -0.000006429192     0.000004894508    -0.000020267723
      10        0.000367303407     0.000378865357     0.000284763526
      11        0.000022139004    -0.000019365707     0.000000655101
      12        0.000008883629    -0.000016421683    -0.000003910291
      13        0.000000911730    -0.000001220534     0.000000353513
      14       -0.000004346647    -0.000012661013     0.000021403001

  **** Optimization is complete! (in 26 steps) ****
    Final optimized geometry and variables:
    Molecular point group: c1

    Geometry (in Angstrom), charge = 0, multiplicity = 1:

    H            0.262210396688    -2.234833283335     0.748780388416
    O            0.502663360290    -1.329631184340     0.922164593043
    C            0.512913949220    -0.675968379497    -0.239208037819
    C            0.856227186754     0.783062989267    -0.079971889120
    O            0.266029585061    -1.216893547782    -1.268227721137
    C           -0.370639817240     1.703445177206     0.202412477502
    H            1.580563067026     0.874332915073     0.719044629790
    H            1.336235124327     1.083340746707    -1.001330805399
    C           -1.718311854291     1.002245033851     0.388769009632
    H           -0.456243305370     2.412230505513    -0.613212266680
    H           -0.157409982876     2.289221387892     1.089477364043
    H           -1.995464625321     0.432030224454    -0.491440087147
    H           -2.495132010963     1.739213974340     0.563869316571
    H           -1.703812801366     0.328312009915     1.238408456148

  Mulliken Charges: (a.u.)
   Center  Symbol    Alpha    Beta     Spin     Total
       1     H     0.26819  0.26819  0.00000  0.46361
       2     O     4.34642  4.34642  0.00000 -0.69284
       3     C     2.63645  2.63645  0.00000  0.72710
       4     C     3.20217  3.20217  0.00000 -0.40433
       5     O     4.27766  4.27766  0.00000 -0.55533
       6     C     3.15488  3.15488  0.00000 -0.30976
       7     H     0.40005  0.40005  0.00000  0.19989
       8     H     0.39608  0.39608  0.00000  0.20784
       9     C     3.25851  3.25851  0.00000 -0.51702
      10     H     0.41139  0.41139  0.00000  0.17722
      11     H     0.41312  0.41312  0.00000  0.17375
      12     H     0.40882  0.40882  0.00000  0.18236
      13     H     0.41434  0.41434  0.00000  0.17133
      14     H     0.41191  0.41191  0.00000  0.17618

   Total alpha = 24.00000, Total beta = 24.00000, Total charge =  0.00000
