                              Psi4 1.0.54 Driver

  ==> Input File <==

--------------------------------------------------------------------------
set {
	reference rhf
	basis cc-pvtz
}

set_num_threads( 4 )
memory 2 gb

molecule MOL {
0 1

H	 3.721907	 -0.933076	 -0.066039
O	 2.824271	 -1.154299	 0.131461
C	 2.076458	 -0.067370	 -0.038225
C	 0.626018	 -0.337582	 0.258241
O	 2.538288	 0.965419	 -0.381593
C	 -0.267326	 0.883135	 0.076490
H	 0.325620	 -1.161483	 -0.378003
H	 0.574537	 -0.713685	 1.275261
C	 -1.726822	 0.642622	 0.463839
H	 -0.210803	 1.217591	 -0.953497
H	 0.129920	 1.693110	 0.675679
C	 -2.480891	 -0.340606	 -0.429852
H	 -2.243098	 1.597649	 0.438609
H	 -1.776542	 0.301208	 1.495542
C	 -3.974404	 -0.388325	 -0.123882
H	 -2.335258	 -0.060734	 -1.469802
H	 -2.068109	 -1.338466	 -0.321032
H	 -4.485648	 -1.090599	 -0.772052
H	 -4.433243	 0.584796	 -0.262444
H	 -4.153855	 -0.693971	 0.901560

	symmetry c1
}
set optking {
	frozen_dihedral = ("
		16 12 9 6
	")
}

ee,wfn = optimize('scf', return_wfn=True)
oeprop( wfn, 'DIPOLE', 'QUADRUPOLE', 'MULLIKEN_CHARGES')
f=open( 'psi4out.xyz', 'w' )
f.write( "20  " )
f.write( str(ee) + "\n" )
f.write( MOL.save_string_xyz() )
f.close()
--------------------------------------------------------------------------

    Molecular point group: c1
  Charge       = 0
  Multiplicity = 1
  Basis Set: CC-PVTZ
  Basis Set:
  @DF-RHF Final Energy:  -384.09495616159381
    Total Energy =                       -384.0949561615938705
    Molecular point group: c1
  Basis Set: CC-PVTZ
  Basis Set:
  Basis Set: CC-PVTZ
  Basis Set:
  @DF-RHF Final Energy:  -384.09494391265378
    Total Energy =                       -384.0949439126538891
  Basis Set: CC-PVTZ
  Basis Set:
  Basis Set: CC-PVTZ
  Basis Set:
  @DF-RHF Final Energy:  -384.09496479133492
    Total Energy =                       -384.0949647913348599
  Basis Set: CC-PVTZ
  Basis Set:
  Basis Set: CC-PVTZ
  Basis Set:
  @DF-RHF Final Energy:  -384.09495008754868
    Total Energy =                       -384.0949500875484546
  Basis Set: CC-PVTZ
  Basis Set:
  Basis Set: CC-PVTZ
  Basis Set:
  @DF-RHF Final Energy:  -384.09497024503281
    Total Energy =                       -384.0949702450326413
  Basis Set: CC-PVTZ
  Basis Set:
  Charge       = 0
  Multiplicity = 1
  Basis Set: CC-PVTZ
  Basis Set:

    Orbital Energies (a.u.)
    -----------------------

    Doubly Occupied:

       1A    -20.603827     2A    -20.540453     3A    -11.373375
       4A    -11.238613     5A    -11.221014     6A    -11.218791
       7A    -11.218172     8A    -11.210617     9A     -1.477403
      10A     -1.368920    11A     -1.097586    12A     -1.042160
      13A     -0.962579    14A     -0.870383    15A     -0.818060
      16A     -0.777777    17A     -0.703647    18A     -0.692812
      19A     -0.666870    20A     -0.637277    21A     -0.604415
      22A     -0.596854    23A     -0.576648    24A     -0.557814
      25A     -0.540652    26A     -0.513978    27A     -0.495870
      28A     -0.484473    29A     -0.471919    30A     -0.467959
      31A     -0.458302    32A     -0.446379

  @DF-RHF Final Energy:  -384.09497050641920

   => Energetics <=

    Nuclear Repulsion Energy =            376.6081743606810619
    One-Electron Energy =               -1269.4950865939563300
    Two-Electron Energy =                 508.7919417268558959
    DFT Exchange-Correlation Energy =       0.0000000000000000
    Empirical Dispersion Energy =           0.0000000000000000
    PCM Polarization Energy =               0.0000000000000000
    EFP Energy =                            0.0000000000000000
    Total Energy =                       -384.0949705064194291
    Molecular point group: c1
  Basis Set: CC-PVTZ
  Basis Set:

  -Total Gradient:
     Atom            X                  Y                   Z
    ------   -----------------  -----------------  -----------------
       1       -0.000001517713     0.000002382174     0.000000326616
       2        0.000001147115    -0.000018585849    -0.000001774131
       3       -0.000001928898     0.000013256321     0.000008115267
       4        0.000002434138    -0.000010212482    -0.000010076714
       5       -0.000004299150     0.000004475635    -0.000000748377
       6       -0.000164474802     0.000435816653    -0.000342153275
       7        0.000000472239    -0.000000374826     0.000003462141
       8        0.000004586043     0.000001596824     0.000004198405
       9        0.000378499968    -0.000723263585     0.000487064736
      10       -0.000001751497     0.000002687671    -0.000003428546
      11       -0.000002110996     0.000000041106    -0.000000610349
      12       -0.000842160761     0.000742873401    -0.000115310684
      13       -0.000000787703    -0.000000930031    -0.000001120971
      14        0.000002719263     0.000001217209     0.000002325848
      15       -0.000000650429     0.000003419731     0.000000854572
      16        0.000625811806    -0.000454298473    -0.000028401220
      17       -0.000000578801    -0.000000133784     0.000000570863
      18        0.000000952105    -0.000002993677    -0.000001941684
      19       -0.000000602474     0.000003264554    -0.000001622317
      20        0.000004240562    -0.000000238567     0.000000269822

  **** Optimization is complete! (in 6 steps) ****
    Final optimized geometry and variables:
    Molecular point group: c1

    Geometry (in Angstrom), charge = 0, multiplicity = 1:

    H            3.717469777022    -0.955216552212    -0.061386902819
    O            2.818359796000    -1.173133880104     0.133116820279
    C            2.076462132942    -0.081038856022    -0.029653130047
    C            0.624116952287    -0.346164319204     0.262032697328
    O            2.543872151019     0.951991800984    -0.364831445564
    C           -0.262675791090     0.880706292096     0.089858233788
    H            0.319790327208    -1.162268184064    -0.382554625514
    H            0.568541802084    -0.731727140262     1.275313389953
    C           -1.724019283476     0.643229194868     0.471486628119
    H           -0.203252542513     1.223482385604    -0.937148552275
    H            0.136984481039     1.683770137773     0.696755172330
    C           -2.473728348016    -0.344891310011    -0.421260013676
    H           -2.237375886247     1.599592025928     0.435326745276
    H           -1.782023198892     0.310028378146     1.505319752118
    C           -3.967282489107    -0.399640710537    -0.117869969438
    H           -2.323483479463    -0.071903435518    -1.462465171834
    H           -2.055874671203    -1.340314182970    -0.306840423781
    H           -4.471574049117    -1.116175231440    -0.755795928973
    H           -4.433471458061     0.567513087881    -0.272400367275
    H           -4.146325404444    -0.690684543913     0.911943713989

  Mulliken Charges: (a.u.)
   Center  Symbol    Alpha    Beta     Spin     Total
       1     H     0.38236  0.38236  0.00000  0.23528
       2     O     4.16026  4.16026  0.00000 -0.32052
       3     C     2.80360  2.80360  0.00000  0.39280
       4     C     3.11182  3.11182  0.00000 -0.22364
       5     O     4.19126  4.19126  0.00000 -0.38251
       6     C     3.09304  3.09304  0.00000 -0.18607
       7     H     0.43690  0.43690  0.00000  0.12620
       8     H     0.43778  0.43778  0.00000  0.12443
       9     C     3.09904  3.09904  0.00000 -0.19808
      10     H     0.44548  0.44548  0.00000  0.10905
      11     H     0.43931  0.43931  0.00000  0.12137
      12     C     3.08791  3.08791  0.00000 -0.17582
      13     H     0.44600  0.44600  0.00000  0.10801
      14     H     0.45344  0.45344  0.00000  0.09312
      15     C     3.14933  3.14933  0.00000 -0.29867
      16     H     0.45236  0.45236  0.00000  0.09528
      17     H     0.45404  0.45404  0.00000  0.09193
      18     H     0.44777  0.44777  0.00000  0.10446
      19     H     0.45355  0.45355  0.00000  0.09290
      20     H     0.45476  0.45476  0.00000  0.09047

   Total alpha = 32.00000, Total beta = 32.00000, Total charge =  0.00000

*** Psi4 exiting successfully. Buy a developer a beer!
