  ==> Input File <==

--------------------------------------------------------------------------
set {
	reference rhf
	basis cc-pvtz
}

set_num_threads( 4 )
memory 2 gb

molecule MOL {
0 1

H	 1.390908	 -1.485473	 0.449524
O	 1.583947	 -0.677544	 -0.001533
C	 0.489979	 0.078084	 0.002623
C	 -0.763662	 -0.754014	 0.000816
O	 0.539051	 1.259395	 -0.000088
C	 -2.038001	 0.074705	 -0.000833
H	 -0.712945	 -1.405886	 -0.864342
H	 -0.715137	 -1.405770	 0.866182
H	 -2.087267	 0.710831	 -0.874232
H	 -2.903419	 -0.576199	 -0.001922
H	 -2.089467	 0.710909	 0.872389

	symmetry c1
}
set optking {
	frozen_dihedral = ("
		1 2 3 5
	")
}

ee = optimize('scf')
oeprop('DIPOLE', 'QUADRUPOLE', 'MULLIKEN_CHARGES')
f=open( 'psi4out.xyz', 'w' )
f.write( "11  " )
f.write( str(ee) + "\n" )
f.write( MOL.save_string_xyz() )
f.close()
--------------------------------------------------------------------------

    Molecular point group: c1
  Charge       = 0
  Multiplicity = 1
  Basis Set: CC-PVTZ
  Basis Set:
  @DF-RHF Final Energy:  -266.93964896405771
    Total Energy =                       -266.9396489640575396
    Molecular point group: c1
  Basis Set: CC-PVTZ
  Basis Set:
  Basis Set: CC-PVTZ
  Basis Set:
  @DF-RHF Final Energy:  -266.94084280881759
    Total Energy =                       -266.9408428088178198
  Basis Set: CC-PVTZ
  Basis Set:
  Basis Set: CC-PVTZ
  Basis Set:
  @DF-RHF Final Energy:  -266.94097454676080
    Total Energy =                       -266.9409745467607991
  Basis Set: CC-PVTZ
  Basis Set:
  Basis Set: CC-PVTZ
  Basis Set:
  @DF-RHF Final Energy:  -266.94107572948849
    Total Energy =                       -266.9410757294882615
  Basis Set: CC-PVTZ
  Basis Set:
  Basis Set: CC-PVTZ
  Basis Set:
  @DF-RHF Final Energy:  -266.94108198930940
    Total Energy =                       -266.9410819893093958
  Basis Set: CC-PVTZ
  Basis Set:
  Basis Set: CC-PVTZ
  Basis Set:
  @DF-RHF Final Energy:  -266.94108354206560
    Total Energy =                       -266.9410835420656554
  Basis Set: CC-PVTZ
  Basis Set:
  Charge       = 0
  Multiplicity = 1
  Basis Set: CC-PVTZ
  Basis Set:

    Orbital Energies (a.u.)
    -----------------------

    Doubly Occupied:

       1A    -20.601274     2A    -20.540827     3A    -11.373947
       4A    -11.252790     5A    -11.223921     6A     -1.470337
       7A     -1.374631     8A     -1.069222     9A     -0.909419
      10A     -0.828829    11A     -0.719556    12A     -0.670935
      13A     -0.661868    14A     -0.616262    15A     -0.590147
      16A     -0.534678    17A     -0.527580    18A     -0.512740
      19A     -0.485281    20A     -0.446553

  @DF-RHF Final Energy:  -266.94108364813354

   => Energetics <=

    Nuclear Repulsion Energy =            179.9332002609912138
    One-Electron Energy =                -720.9269701202430269
    Two-Electron Energy =                 274.0526862111179867
    DFT Exchange-Correlation Energy =       0.0000000000000000
    Empirical Dispersion Energy =           0.0000000000000000
    PCM Polarization Energy =               0.0000000000000000
    EFP Energy =                            0.0000000000000000
    Total Energy =                       -266.9410836481338833
    Molecular point group: c1
  Basis Set: CC-PVTZ
  Basis Set:

  -Total Gradient:
     Atom            X                  Y                   Z
    ------   -----------------  -----------------  -----------------
       1        0.001582164698     0.002617487087     0.005255991307
       2       -0.002027818663    -0.003275519653    -0.004302643135
       3        0.000487248334     0.000623299721    -0.006222783414
       4       -0.000005612448    -0.000002590589    -0.000018166970
       5       -0.000046379121     0.000033767988     0.005266128366
       6        0.000003620610     0.000003775864     0.000008805901
       7       -0.000005262365    -0.000004832502     0.000006337728
       8        0.000006366826     0.000004095899     0.000016727205
       9       -0.000003397120     0.000003927341    -0.000005724220
      10        0.000006864259    -0.000001780523    -0.000002449421
      11        0.000002204997    -0.000001630632    -0.000002223347

  **** Optimization is complete! (in 7 steps) ****
    Final optimized geometry and variables:
    Molecular point group: c1

    Geometry (in Angstrom), charge = 0, multiplicity = 1:

    H            1.521491553168    -1.458718400900     0.452848681676
    O            1.632359954400    -0.635471453440     0.009865374538
    C            0.499801930342     0.081807763043    -0.007156786897
    C           -0.770516087064    -0.737985207601    -0.010285650498
    O            0.539874376437     1.256172542452    -0.017471159587
    C           -2.035344445563     0.105154292415    -0.006797479902
    H           -0.733778481023    -1.385876751207    -0.880257110753
    H           -0.745708225557    -1.394909086210     0.856005796378
    H           -2.073334789374     0.745146196247    -0.877408900774
    H           -2.909510772621    -0.534102655710    -0.010718117455
    H           -2.076249754609     0.738422256795     0.868859521589

  Mulliken Charges: (a.u.)
   Center  Symbol    Alpha    Beta     Spin     Total
       1     H     0.38796  0.38796  0.00000  0.22407
       2     O     4.15114  4.15114  0.00000 -0.30228
       3     C     2.80619  2.80619  0.00000  0.38762
       4     C     3.11242  3.11242  0.00000 -0.22485
       5     O     4.17101  4.17101  0.00000 -0.34201
       6     C     3.14021  3.14021  0.00000 -0.28042
       7     H     0.43762  0.43762  0.00000  0.12476
       8     H     0.45230  0.45230  0.00000  0.09540
       9     H     0.44443  0.44443  0.00000  0.11115
      10     H     0.45038  0.45038  0.00000  0.09924
      11     H     0.44634  0.44634  0.00000  0.10732

   Total alpha = 20.00000, Total beta = 20.00000, Total charge =  0.00000
