                              Psi4 1.0.54 Driver

  ==> Input File <==

--------------------------------------------------------------------------
set {
	reference rhf
	basis cc-pvtz
}

set_num_threads( 4 )
memory 2 gb

molecule MOL {
0 1

O	 -2.440701	 -0.934798	 -0.415053
C	 -1.922978	 0.063265	 -0.045005
C	 -2.632749	 1.372204	 0.158357
O	 -0.637375	 0.157174	 0.243149
H	 -2.187724	 2.129143	 -0.474664
H	 -3.677681	 1.257276	 -0.079438
H	 -2.516788	 1.693160	 1.185542
C	 0.162530	 -1.009518	 0.097799
C	 1.587210	 -0.664190	 0.477086
H	 0.096803	 -1.356267	 -0.924704
H	 -0.233803	 -1.785900	 0.736810
C	 2.256770	 0.342732	 -0.454344
H	 2.154716	 -1.590834	 0.479041
H	 1.598751	 -0.289614	 1.496104
C	 3.673843	 0.697163	 -0.016284
H	 2.281528	 -0.065213	 -1.461353
H	 1.655999	 1.243672	 -0.501518
H	 4.126578	 1.409382	 -0.696108
H	 4.308646	 -0.182395	 0.011913
H	 3.677850	 1.138213	 0.974916

	symmetry c1
}
set optking {
	frozen_dihedral = ("
		16 12 9 8
	")
}

ee,wfn = optimize('scf', return_wfn=True)
oeprop( wfn, 'DIPOLE', 'QUADRUPOLE', 'MULLIKEN_CHARGES')
f=open( 'psi4out.xyz', 'w' )
f.write( "20  " )
f.write( str(ee) + "\n" )
f.write( MOL.save_string_xyz() )
f.close()
--------------------------------------------------------------------------

    Molecular point group: c1
  Charge       = 0
  Multiplicity = 1
  Basis Set: CC-PVTZ
  Basis Set:
  @DF-RHF Final Energy:  -384.08755076326747
    Total Energy =                       -384.0875507632674726
    Molecular point group: c1
  Basis Set: CC-PVTZ
  Basis Set:
  Basis Set: CC-PVTZ
  Basis Set:
  @DF-RHF Final Energy:  -384.08754605286657
    Total Energy =                       -384.0875460528665144
  Basis Set: CC-PVTZ
  Basis Set:
  Basis Set: CC-PVTZ
  Basis Set:
  @DF-RHF Final Energy:  -384.08753743289185
    Total Energy =                       -384.0875374328921907
  Basis Set: CC-PVTZ
  Basis Set:
  Basis Set: CC-PVTZ
  Basis Set:
  @DF-RHF Final Energy:  -384.08755484017365
    Total Energy =                       -384.0875548401734250
  Basis Set: CC-PVTZ
  Basis Set:
  Charge       = 0
  Multiplicity = 1
  Basis Set: CC-PVTZ
  Basis Set:

    Orbital Energies (a.u.)
    -----------------------

    Doubly Occupied:

       1A    -20.594414     2A    -20.532668     3A    -11.366700
       4A    -11.280196     5A    -11.231721     6A    -11.223552
       7A    -11.218831     8A    -11.211567     9A     -1.471109
      10A     -1.365234    11A     -1.087220    12A     -1.029321
      13A     -0.982289    14A     -0.881263    15A     -0.812130
      16A     -0.777106    17A     -0.692623    18A     -0.686534
      19A     -0.670289    20A     -0.632653    21A     -0.602318
      22A     -0.594045    23A     -0.573154    24A     -0.551826
      25A     -0.545310    26A     -0.533223    27A     -0.513303
      28A     -0.484002    29A     -0.475561    30A     -0.474268
      31A     -0.451698    32A     -0.442132

  @DF-RHF Final Energy:  -384.08755504127947

   => Energetics <=

    Nuclear Repulsion Energy =            385.7339774666051539
    One-Electron Energy =               -1287.6665445023395478
    Two-Electron Energy =                 517.8450119944546941
    DFT Exchange-Correlation Energy =       0.0000000000000000
    Empirical Dispersion Energy =           0.0000000000000000
    PCM Polarization Energy =               0.0000000000000000
    EFP Energy =                            0.0000000000000000
    Total Energy =                       -384.0875550412796429
    Molecular point group: c1
  Basis Set: CC-PVTZ
  Basis Set:

  -Total Gradient:
     Atom            X                  Y                   Z
    ------   -----------------  -----------------  -----------------
       1        0.000015248989     0.000009931055     0.000010223799
       2       -0.000002500496     0.000012645605    -0.000012805960
       3       -0.000008380155     0.000002746369    -0.000007967052
       4        0.000012174342    -0.000002600317    -0.000024047949
       5        0.000000965952    -0.000008683967     0.000009099882
       6        0.000000107057     0.000002765577     0.000003477109
       7       -0.000001975942    -0.000005839945    -0.000003072181
       8       -0.000132248964     0.000242807847     0.000258665657
       9        0.000258311570    -0.000406171828    -0.000277682138
      10       -0.000004722486     0.000008676496    -0.000008890457
      11        0.000008823262    -0.000004347284    -0.000008326653
      12       -0.000555965129     0.000335970022    -0.000031753778
      13       -0.000001668731     0.000000433762    -0.000003507380
      14       -0.000000988658    -0.000002686141     0.000000811978
      15       -0.000001539519     0.000006577382     0.000005409513
      16        0.000413774285    -0.000194739958     0.000089448374
      17       -0.000006369197     0.000000126887    -0.000002072761
      18        0.000000922408    -0.000001583613     0.000004808828
      19       -0.000000303431     0.000003867847    -0.000000954969
      20        0.000006334836     0.000000104203    -0.000000863861

  **** Optimization is complete! (in 5 steps) ****
    Final optimized geometry and variables:
    Molecular point group: c1

    Geometry (in Angstrom), charge = 0, multiplicity = 1:

    O           -2.434056094934    -0.938388166506    -0.433690621609
    C           -1.919751601044     0.057206537745    -0.052562172903
    C           -2.631857825648     1.363814175508     0.155566436018
    O           -0.635887867307     0.149858468404     0.243517108950
    H           -2.184365737815     2.124892285583    -0.470647785125
    H           -3.675506692831     1.249425260063    -0.088069095239
    H           -2.521051030639     1.678259219228     1.185258158171
    C            0.165107734207    -1.015674864442     0.095196490210
    C            1.589458275916    -0.669442002685     0.475301196199
    H            0.099363291759    -1.359971129104    -0.928161630201
    H           -0.230190026788    -1.794072668995     0.732305652008
    C            2.259918046028     0.335056865587    -0.458050546225
    H            2.158330654559    -1.595027511075     0.482947234979
    H            1.597164162164    -0.290312376535     1.492683117462
    C            3.678446290607     0.685870713725    -0.021584543120
    H            2.285561635373    -0.075810576328    -1.463800456267
    H            1.661892728373     1.237557962863    -0.505942954320
    H            4.134323820289     1.392430607253    -0.705191788046
    H            4.309352531437    -0.196314795987     0.011211507271
    H            3.684193112585     1.132020128700     0.967260199128

  Mulliken Charges: (a.u.)
   Center  Symbol    Alpha    Beta     Spin     Total
       1     O     4.19726  4.19726  0.00000 -0.39453
       2     C     2.80884  2.80884  0.00000  0.38232
       3     C     3.13844  3.13844  0.00000 -0.27688
       4     O     4.15354  4.15354  0.00000 -0.30709
       5     H     0.44612  0.44612  0.00000  0.10777
       6     H     0.43777  0.43777  0.00000  0.12445
       7     H     0.44570  0.44570  0.00000  0.10859
       8     C     2.99315  2.99315  0.00000  0.01371
       9     C     3.08424  3.08424  0.00000 -0.16848
      10     H     0.45101  0.45101  0.00000  0.09798
      11     H     0.44455  0.44455  0.00000  0.11089
      12     C     3.08647  3.08647  0.00000 -0.17294
      13     H     0.45126  0.45126  0.00000  0.09747
      14     H     0.45224  0.45224  0.00000  0.09551
      15     C     3.15019  3.15019  0.00000 -0.30037
      16     H     0.45480  0.45480  0.00000  0.09039
      17     H     0.44729  0.44729  0.00000  0.10543
      18     H     0.44739  0.44739  0.00000  0.10522
      19     H     0.45545  0.45545  0.00000  0.08910
      20     H     0.45427  0.45427  0.00000  0.09146

   Total alpha = 32.00000, Total beta = 32.00000, Total charge = -0.00000

*** Psi4 exiting successfully. Buy a developer a beer!
