                              Psi4 1.0.54 Driver

  ==> Input File <==

--------------------------------------------------------------------------
set {
	reference rhf
	basis cc-pvtz
}

set_num_threads( 4 )
memory 2 gb

molecule MOL {
0 1

H	 -4.340537	 -0.784487	 0.000000
O	 -3.958786	 0.074640	 0.000000
C	 -2.613554	 0.009900	 0.000000
C	 -2.028896	 -1.173320	 -0.419930
C	 -1.817370	 1.066551	 0.398075
H	 -2.656203	 -1.986542	 -0.726551
C	 -0.657150	 -1.294198	 -0.439875
H	 -2.263626	 1.987666	 0.725138
C	 -0.439999	 0.943497	 0.377437
H	 -0.206766	 -2.210273	 -0.765033
C	 0.134701	 -0.234357	 -0.040716
H	 0.173404	 1.765456	 0.686992
Br	 2.025081	 -0.406049	 -0.070060

	symmetry c1
}
set optking {
	frozen_dihedral = ("
		4 3 2 1
	")
}

ee,wfn = optimize('scf', return_wfn=True)
oeprop( wfn, 'DIPOLE', 'QUADRUPOLE', 'MULLIKEN_CHARGES')
f=open( 'psi4out.xyz', 'w' )
f.write( "13  " )
f.write( str(ee) + "\n" )
f.write( MOL.save_string_xyz() )
f.close()
--------------------------------------------------------------------------

    Molecular point group: c1
  Charge       = 0
  Multiplicity = 1
  Basis Set: CC-PVTZ
  Basis Set:
  @DF-RHF Final Energy: -2877.54448749602261
    Total Energy =                      -2877.5444874960248853
    Molecular point group: c1
  Basis Set: CC-PVTZ
  Basis Set:
  Basis Set: CC-PVTZ
  Basis Set:
  @DF-RHF Final Energy: -2877.54634600917461
    Total Energy =                      -2877.5463460091732486
  Basis Set: CC-PVTZ
  Basis Set:
  Basis Set: CC-PVTZ
  Basis Set:
  @DF-RHF Final Energy: -2877.54650129312267
    Total Energy =                      -2877.5465012931263118
  Basis Set: CC-PVTZ
  Basis Set:
  Basis Set: CC-PVTZ
  Basis Set:
  @DF-RHF Final Energy: -2877.54652295980213
    Total Energy =                      -2877.5465229598039514
  Basis Set: CC-PVTZ
  Basis Set:
  Basis Set: CC-PVTZ
  Basis Set:
  @DF-RHF Final Energy: -2877.54652761644047
    Total Energy =                      -2877.5465276164368333
  Basis Set: CC-PVTZ
  Basis Set:
  Charge       = 0
  Multiplicity = 1
  Basis Set: CC-PVTZ
  Basis Set:

    Orbital Energies (a.u.)
    -----------------------

    Doubly Occupied:

       1A   -490.018631     2A    -65.158954     3A    -58.514179
       4A    -58.512811     5A    -58.512807     6A    -20.595444
       7A    -11.311157     8A    -11.288242     9A    -11.253893
      10A    -11.252199    11A    -11.242826    12A    -11.237664
      13A     -9.832749    14A     -7.444368    15A     -7.437617
      16A     -7.437549    17A     -3.188058    18A     -3.184502
      19A     -3.184404    20A     -3.175752    21A     -3.175748
      22A     -1.426639    23A     -1.179947    24A     -1.066817
      25A     -1.042153    26A     -0.970526    27A     -0.869090
      28A     -0.828043    29A     -0.757956    30A     -0.689112
      31A     -0.654158    32A     -0.631218    33A     -0.610227
      34A     -0.607338    35A     -0.576753    36A     -0.523855
      37A     -0.511468    38A     -0.501474    39A     -0.428245
      40A     -0.413774    41A     -0.360254    42A     -0.318326

  @DF-RHF Final Energy: -2877.54652813207667

   => Energetics <=

    Nuclear Repulsion Energy =            525.4820427949332498
    One-Electron Energy =               -5042.2032941214783932
    Two-Electron Energy =                1639.1747231944664236
    DFT Exchange-Correlation Energy =       0.0000000000000000
    Empirical Dispersion Energy =           0.0000000000000000
    PCM Polarization Energy =               0.0000000000000000
    EFP Energy =                            0.0000000000000000
    Total Energy =                      -2877.5465281320784925
    Molecular point group: c1
  Basis Set: CC-PVTZ
  Basis Set:

  -Total Gradient:
     Atom            X                  Y                   Z
    ------   -----------------  -----------------  -----------------
       1        0.000015945910    -0.000027882250     0.001699003445
       2       -0.000005548586     0.000273723769    -0.002819305834
       3       -0.000116304735    -0.000714576894     0.002373621572
       4        0.000044273362     0.000431462237    -0.001224717779
       5        0.000096122452     0.000015219127    -0.000027111067
       6       -0.000002550119    -0.000001413919    -0.000001634383
       7       -0.000014137669    -0.000019306035    -0.000023511736
       8       -0.000009399763    -0.000004285162     0.000000885459
       9       -0.000013124973    -0.000001032788    -0.000017078294
      10        0.000002405040     0.000005815909     0.000006427499
      11        0.000001735497     0.000043757683     0.000026306009
      12        0.000003674833     0.000002697245     0.000008582740
      13       -0.000003091463    -0.000004178859    -0.000001467642

  **** Optimization is complete! (in 6 steps) ****
    Final optimized geometry and variables:
    Molecular point group: c1

    Geometry (in Angstrom), charge = 0, multiplicity = 1:

    H           -4.386898874745    -0.469278835768     0.073981770157
    O           -3.943538413863     0.359842493310     0.080637342729
    C           -2.604986456367     0.196573126517     0.058401254228
    C           -2.008309638641    -0.974751459966    -0.368008332870
    C           -1.819294575082     1.268325463156     0.445537280467
    H           -2.612603776368    -1.804870415807    -0.684140734733
    C           -0.630154115136    -1.081961519873    -0.392740931622
    H           -2.292755128366     2.173875290152     0.769185009841
    C           -0.445705680279     1.163448915246     0.412630849170
    H           -0.171525869535    -1.993156896403    -0.719943391325
    C            0.145307107314    -0.013445296984    -0.003757267525
    H            0.160557427188     1.993822894310     0.713787399622
    BR           2.037679843850    -0.156535651296    -0.041417597247

  Mulliken Charges: (a.u.)
   Center  Symbol    Alpha    Beta     Spin     Total
       1     H     0.38586  0.38586  0.00000  0.22828
       2     O     4.17286  4.17286  0.00000 -0.34572
       3     C     2.86209  2.86209  0.00000  0.27582
       4     C     3.11637  3.11637  0.00000 -0.23274
       5     C     3.09334  3.09334  0.00000 -0.18668
       6     H     0.42882  0.42882  0.00000  0.14236
       7     C     3.08465  3.08465  0.00000 -0.16930
       8     H     0.41553  0.41553  0.00000  0.16893
       9     C     3.07752  3.07752  0.00000 -0.15504
      10     H     0.41057  0.41057  0.00000  0.17885
      11     C     2.97505  2.97505  0.00000  0.04990
      12     H     0.41063  0.41063  0.00000  0.17874
      13    BR    17.56671 17.56671  0.00000 -0.13341

   Total alpha = 42.00000, Total beta = 42.00000, Total charge = -0.00000

*** Psi4 exiting successfully. Buy a developer a beer!
