  ==> Input File <==

--------------------------------------------------------------------------
set {
	reference rhf
	basis cc-pvtz
}

set_num_threads( 4 )
memory 2 gb

molecule MOL {
0 1

H	 -0.557874	 -1.549592	 0.435240
N	 -0.625934	 -0.663929	 -0.000707
C	 -1.885802	 -0.287886	 -0.597717
C	 0.468494	 0.129045	 -0.002160
H	 -2.166173	 -0.981495	 -1.381481
H	 -1.779141	 0.694854	 -1.024261
H	 -2.675458	 -0.264024	 0.143843
C	 1.785715	 -0.615093	 0.000603
O	 0.413285	 1.323206	 0.000532
H	 1.866994	 -1.243310	 -0.878792
H	 2.591506	 0.100263	 0.006422
H	 1.860358	 -1.250360	 0.875522

	symmetry c1
}
set optking {
	frozen_dihedral = ("
		3 2 4 9
	")
}

ee = optimize('scf')
oeprop('DIPOLE', 'QUADRUPOLE', 'MULLIKEN_CHARGES')
f=open( 'psi4out.xyz', 'w' )
f.write( "12  " )
f.write( str(ee) + "\n" )
f.write( MOL.save_string_xyz() )
f.close()
--------------------------------------------------------------------------

    Molecular point group: c1
  Charge       = 0
  Multiplicity = 1
  Basis Set: CC-PVTZ
  Basis Set:
  @DF-RHF Final Energy:  -247.09166431747062
    Total Energy =                       -247.0916643174705314
    Molecular point group: c1
  Basis Set: CC-PVTZ
  Basis Set:
  Basis Set: CC-PVTZ
  Basis Set:
  @DF-RHF Final Energy:  -247.09439371289082
    Total Energy =                       -247.0943937128906782
  Basis Set: CC-PVTZ
  Basis Set:
  Basis Set: CC-PVTZ
  Basis Set:
  @DF-RHF Final Energy:  -247.09735551250498
    Total Energy =                       -247.0973555125052599
  Basis Set: CC-PVTZ
  Basis Set:
  Basis Set: CC-PVTZ
  Basis Set:
  @DF-RHF Final Energy:  -247.09780094620544
    Total Energy =                       -247.0978009462055525
  Basis Set: CC-PVTZ
  Basis Set:
  @DF-RHF Final Energy:  -247.09795775651159
    Total Energy =                       -247.0979577565116188
  @DF-RHF Final Energy:  -247.09812098170116
    Total Energy =                       -247.0981209817012996
  @DF-RHF Final Energy:  -247.09841304904725
    Total Energy =                       -247.0984130490472808
  @DF-RHF Final Energy:  -247.09851026707273
    Total Energy =                       -247.0985102670726405
  @DF-RHF Final Energy:  -247.09853064306827
    Total Energy =                       -247.0985306430683295
  @DF-RHF Final Energy:  -247.09853181238515
    Total Energy =                       -247.0985318123849765
  @DF-RHF Final Energy:  -247.09289050962477
    Total Energy =                       -247.0928905096247945
  @DF-RHF Final Energy:  -247.05149925244106
    Total Energy =                       -247.0514992524412037
  @DF-RHF Final Energy:  -247.07584848194870
    Total Energy =                       -247.0758484819489240
  @DF-RHF Final Energy:  -247.09594663855461
    Total Energy =                       -247.0959466385546079
  @DF-RHF Final Energy:  -247.09502427147081
    Total Energy =                       -247.0950242714707201
  @DF-RHF Final Energy:  -247.09814547594783
    Total Energy =                       -247.0981454759478879
  @DF-RHF Final Energy:  -247.09848632537481
    Total Energy =                       -247.0984863253747790
  @DF-RHF Final Energy:  -247.09851799284181
    Total Energy =                       -247.0985179928416642
  @DF-RHF Final Energy:  -247.09852536592356
    Total Energy =                       -247.0985253659235923
  @DF-RHF Final Energy:  -247.09852322804545
    Total Energy =                       -247.0985232280454511
  @DF-RHF Final Energy:  -247.09852315404055
    Total Energy =                       -247.0985231540404925
  @DF-RHF Final Energy:  -247.09851785454023
    Total Energy =                       -247.0985178545402050
  @DF-RHF Final Energy:  -247.09852284096982
    Total Energy =                       -247.0985228409699062
  @DF-RHF Final Energy:  -247.09852367237465
    Total Energy =                       -247.0985236723747676
  @DF-RHF Final Energy:  -247.09852366482011
    Total Energy =                       -247.0985236648202203
  @DF-RHF Final Energy:  -247.09852353281113
    Total Energy =                       -247.0985235328109866
  @DF-RHF Final Energy:  -247.09852066552401
    Total Energy =                       -247.0985206655238926
  @DF-RHF Final Energy:  -247.09852353058892
    Total Energy =                       -247.0985235305889773
  @DF-RHF Final Energy:  -247.09852323837006
    Total Energy =                       -247.0985232383700350
  @DF-RHF Final Energy:  -247.09852355286398
    Total Energy =                       -247.0985235528639805
  @DF-RHF Final Energy:  -247.09852267956285
    Total Energy =                       -247.0985226795627909
  @DF-RHF Final Energy:  -247.09851832046641
    Total Energy =                       -247.0985183204662690
  @DF-RHF Final Energy:  -247.09847210199698
    Total Energy =                       -247.0984721019967765
  @DF-RHF Final Energy:  -247.09845981460634
    Total Energy =                       -247.0984598146061444
  @DF-RHF Final Energy:  -247.09851914787424
    Total Energy =                       -247.0985191478742422
  @DF-RHF Final Energy:  -247.09852220810677
    Total Energy =                       -247.0985222081067150
  Basis Set: CC-PVTZ
  Basis Set:
  @DF-RHF Final Energy:  -247.09852262578360
    Total Energy =                       -247.0985226257836302
  Basis Set: CC-PVTZ
  Basis Set:
  Basis Set: CC-PVTZ
  Basis Set:
  @DF-RHF Final Energy:  -247.09852277450622
    Total Energy =                       -247.0985227745062502
  Basis Set: CC-PVTZ
  Basis Set:
  Basis Set: CC-PVTZ
  Basis Set:
  @DF-RHF Final Energy:  -247.09852260504647
    Total Energy =                       -247.0985226050463552
  Basis Set: CC-PVTZ
  Basis Set:
  Charge       = 0
  Multiplicity = 1
  Basis Set: CC-PVTZ
  Basis Set:

    Orbital Energies (a.u.)
    -----------------------

    Doubly Occupied:

       1A    -20.513148     2A    -15.574201     3A    -11.338135
       4A    -11.254057     5A    -11.230303     6A     -1.393655
       7A     -1.230748     8A     -1.016784     9A     -0.932066
      10A     -0.781736    11A     -0.691612    12A     -0.652463
      13A     -0.635455    14A     -0.589675    15A     -0.584528
      16A     -0.555261    17A     -0.547322    18A     -0.509585
      19A     -0.422684    20A     -0.394641

  @DF-RHF Final Energy:  -247.09852260420948

   => Energetics <=

    Nuclear Repulsion Energy =            181.6554293175539954
    One-Electron Energy =                -695.8117838224513889
    Two-Electron Energy =                 267.0578319006880292
    DFT Exchange-Correlation Energy =       0.0000000000000000
    Empirical Dispersion Energy =           0.0000000000000000
    PCM Polarization Energy =               0.0000000000000000
    EFP Energy =                            0.0000000000000000
    Total Energy =                       -247.0985226042093927
    Molecular point group: c1
  Basis Set: CC-PVTZ
  Basis Set:

  -Total Gradient:
     Atom            X                  Y                   Z
    ------   -----------------  -----------------  -----------------
       1        0.000077197859     0.000084914075     0.000399890321
       2       -0.001656519829     0.007440154309     0.008255362200
       3        0.001074547213    -0.004148043527    -0.003795908605
       4       -0.000544160976    -0.005855847123    -0.010971839703
       5        0.000036151375    -0.000009576679    -0.000054409773
       6       -0.000016022245     0.000031446061     0.000026220929
       7        0.000007862119     0.000002513773    -0.000009347867
       8        0.000155628912     0.000079635094    -0.000429545546
       9        0.000875560670     0.002330492810     0.006602159608
      10       -0.000006332130     0.000007647728    -0.000012204019
      11        0.000017811844     0.000000026800     0.000008066872
      12       -0.000021724814     0.000036636682    -0.000018444418

    Molecular point group: c1

    Geometry (in Angstrom), charge = 0, multiplicity = 1:

    H           -0.549734154723    -1.475988653678     0.626058636671
    N           -0.677664278977    -0.519578668577     0.393750921265
    C           -1.930194463071    -0.222119611389    -0.274213642189
    C            0.462383323981     0.138553744036     0.034317226636
    H           -1.929369536553    -0.548677538014    -1.309132663369
    H           -2.106100168860     0.841058454966    -0.251601314300
    H           -2.734569372379    -0.718684750768     0.250075481872
    C            1.748486852121    -0.617659226804     0.275964948178
    O            0.453851455912     1.253041759965    -0.389401441929
    H            1.911066603568    -1.310936859139    -0.542383052827
    H            2.568910235678     0.080929682035     0.309536144994
    H            1.710591661762    -1.185807298045     1.197155174666

  Mulliken Charges: (a.u.)
   Center  Symbol    Alpha    Beta     Spin     Total
       1     H     0.42221  0.42221  0.00000  0.15558
       2     N     3.61366  3.61366  0.00000 -0.22732
       3     C     3.08340  3.08340  0.00000 -0.16680
       4     C     2.83734  2.83734  0.00000  0.32531
       5     H     0.46079  0.46079  0.00000  0.07843
       6     H     0.43572  0.43572  0.00000  0.12857
       7     H     0.45276  0.45276  0.00000  0.09448
       8     C     3.15248  3.15248  0.00000 -0.30495
       9     O     4.20728  4.20728  0.00000 -0.41456
      10     H     0.44773  0.44773  0.00000  0.10454
      11     H     0.43423  0.43423  0.00000  0.13155
      12     H     0.45240  0.45240  0.00000  0.09519

   Total alpha = 20.00000, Total beta = 20.00000, Total charge = -0.00000
