  ==> Input File <==

--------------------------------------------------------------------------
set {
	reference rhf
	basis 6-31G*
}

set_num_threads( 4 )
memory 2 gb

molecule MOL {
0 1

O	 1.426736	 -0.609907	 -1.977596
C	 1.659390	 -0.854792	 -0.837876
C	 1.245376	 -0.013843	 0.345420
O	 2.332888	 -1.930543	 -0.449561
C	 0.455112	 1.231400	 -0.050772
H	 0.681953	 -0.658158	 1.012207
H	 2.150715	 0.252630	 0.884909
C	 -0.998893	 1.219485	 0.433193
H	 0.482531	 1.345121	 -1.130325
H	 0.957290	 2.103070	 0.354729
C	 -1.883438	 0.145884	 -0.207175
H	 -1.431207	 2.195402	 0.224832
H	 -1.019646	 1.105716	 1.516076
C	 -3.347647	 0.245583	 0.225435
H	 -1.822183	 0.231698	 -1.291012
H	 -1.510341	 -0.844814	 0.042401
C	 -4.239992	 -0.825570	 -0.404234
H	 -3.732888	 1.230466	 -0.033079
H	 -3.408585	 0.170602	 1.310038
C	 -5.701275	 -0.716658	 0.029921
H	 -4.179496	 -0.752714	 -1.488058
H	 -3.859041	 -1.810759	 -0.143352
H	 -6.308102	 -1.488908	 -0.432678
H	 -6.122175	 0.245478	 -0.248167
H	 -5.799072	 -0.820114	 1.106957
C	 2.783447	 -2.807922	 -1.465479
H	 1.947834	 -3.200029	 -2.027180
H	 3.300404	 -3.607068	 -0.957417
H	 3.455414	 -2.296116	 -2.139313

	symmetry c1
}
set optking {
	frozen_dihedral = ("
		6 3 5 9
	")
}

ee = optimize('scf')
oeprop('DIPOLE', 'QUADRUPOLE', 'MULLIKEN_CHARGES')
f=open( 'psi4out.xyz', 'w' )
f.write( "29  " )
f.write( str(ee) + "\n" )
f.write( MOL.save_string_xyz() )
f.close()
--------------------------------------------------------------------------

    Molecular point group: c1
  Charge       = 0
  Multiplicity = 1
  Basis Set: 6-31G*
  Basis Set:
  @DF-RHF Final Energy:  -501.03981788454587
    Total Energy =                       -501.0398178845450730
    Molecular point group: c1
  Basis Set: 6-31G*
  Basis Set:
  Basis Set: 6-31G*
  Basis Set:
  @DF-RHF Final Energy:  -501.04019164342878
    Total Energy =                       -501.0401916434286704
  Basis Set: 6-31G*
  Basis Set:
  Basis Set: 6-31G*
  Basis Set:
  @DF-RHF Final Energy:  -501.04020441790533
    Total Energy =                       -501.0402044179056702
  Basis Set: 6-31G*
  Basis Set:
  Basis Set: 6-31G*
  Basis Set:
  @DF-RHF Final Energy:  -501.04023545395989
    Total Energy =                       -501.0402354539594398
  Basis Set: 6-31G*
  Basis Set:
  @DF-RHF Final Energy:  -501.04030526349186
    Total Energy =                       -501.0403052634922005
  Basis Set: 6-31G*
  Basis Set:
  @DF-RHF Final Energy:  -501.04028818397080
    Total Energy =                       -501.0402881839698921
  Basis Set: 6-31G*
  Basis Set:
  Basis Set: 6-31G*
  Basis Set:
  @DF-RHF Final Energy:  -501.04031090688773
    Total Energy =                       -501.0403109068872709
  Basis Set: 6-31G*
  Basis Set:
  Basis Set: 6-31G*
  Basis Set:
  @DF-RHF Final Energy:  -501.04031205894853
    Total Energy =                       -501.0403120589489845
  Basis Set: 6-31G*
  Basis Set:
  Charge       = 0
  Multiplicity = 1
  Basis Set: 6-31G*
  Basis Set:

    Orbital Energies (a.u.)
    -----------------------

    Doubly Occupied:

       1A    -20.603880     2A    -20.546136     3A    -11.372748
       4A    -11.281029     5A    -11.234958     6A    -11.217379
       7A    -11.215147     8A    -11.212513     9A    -11.211275
      10A    -11.210576    11A    -11.206572    12A     -1.469813
      13A     -1.363057    14A     -1.094980    15A     -1.063664
      16A     -1.017541    17A     -0.975722    18A     -0.926894
      19A     -0.860342    20A     -0.798038    21A     -0.786761
      22A     -0.763276    23A     -0.701500    24A     -0.682025
      25A     -0.672904    26A     -0.647687    27A     -0.622919
      28A     -0.607518    29A     -0.591530    30A     -0.578535
      31A     -0.566043    32A     -0.545390    33A     -0.535636
      34A     -0.528858    35A     -0.516155    36A     -0.500400
      37A     -0.496087    38A     -0.476939    39A     -0.467174
      40A     -0.458993    41A     -0.457608    42A     -0.456216
      43A     -0.438884    44A     -0.433878

  @DF-RHF Final Energy:  -501.04031285732185

   => Energetics <=

    Nuclear Repulsion Energy =            626.9125297413754652
    One-Electron Energy =               -1925.0753215191239178
    Two-Electron Energy =                 797.1224789204264880
    DFT Exchange-Correlation Energy =       0.0000000000000000
    Empirical Dispersion Energy =           0.0000000000000000
    PCM Polarization Energy =               0.0000000000000000
    EFP Energy =                            0.0000000000000000
    Total Energy =                       -501.0403128573219647
    Molecular point group: c1
  Basis Set: 6-31G*
  Basis Set:

  -Total Gradient:
     Atom            X                  Y                   Z
    ------   -----------------  -----------------  -----------------
       1        0.000087448570    -0.000076948568     0.000100191575
       2       -0.000109314328     0.000048867979    -0.000044726682
       3        0.000582216168     0.001028036909     0.001990127395
       4       -0.000024804188     0.000026783907    -0.000085502936
       5        0.001856159862     0.001062929826    -0.000246977947
       6       -0.000770982914    -0.000933517002    -0.001593690438
       7       -0.000041278016     0.000012128149    -0.000016548165
       8        0.000018123393     0.000000388064     0.000036477585
       9       -0.001653234453    -0.001090736928    -0.000077026052
      10       -0.000026549344    -0.000025887518    -0.000011235919
      11        0.000042286049    -0.000006863718    -0.000023418285
      12        0.000045011907    -0.000041880787     0.000004503538
      13       -0.000013583666     0.000006730330    -0.000055420472
      14       -0.000004377038     0.000017533604    -0.000008386836
      15       -0.000017328108     0.000008794332     0.000012417520
      16        0.000003792494     0.000005171934     0.000005896945
      17        0.000006969375    -0.000019073581     0.000014308252
      18        0.000005023535     0.000004105903     0.000001054411
      19       -0.000007004077    -0.000002783331    -0.000007508349
      20       -0.000000835071     0.000003512266    -0.000000101695
      21       -0.000002301313     0.000004970865     0.000005271898
      22        0.000001866590    -0.000004152224    -0.000004113540
      23        0.000003136371     0.000004387055    -0.000000055654
      24        0.000002507333    -0.000003205132     0.000003708865
      25       -0.000000814215    -0.000003219244    -0.000001823770
      26        0.000013248306    -0.000022841246     0.000001683468
      27        0.000019541080     0.000012774408     0.000010479111
      28        0.000000539591    -0.000006187389    -0.000025658865
      29       -0.000015463907    -0.000009818862     0.000016075045

  **** Optimization is complete! (in 9 steps) ****
    Final optimized geometry and variables:
    Molecular point group: c1

    Geometry (in Angstrom), charge = 0, multiplicity = 1:

    O            1.874080277957    -0.223240740437    -1.558232476874
    C            2.176943404360    -0.398020339684    -0.422038481735
    C            1.802550276651     0.483514911789     0.748500987282
    O            2.901860525776    -1.433974065910    -0.018715783089
    C            1.011688215881     1.746454775804     0.366999017515
    H            1.240920995304    -0.150953373623     1.427707872892
    H            2.724143605103     0.725726825651     1.266493387343
    C           -0.444049422802     1.740480212870     0.849540854259
    H            1.019199183009     1.856556553863    -0.710271729312
    H            1.512827650704     2.615548467036     0.780537804309
    C           -1.323386964847     0.688650669142     0.168270231327
    H           -0.869916904002     2.724348125752     0.666188964541
    H           -0.470286750207     1.595379734848     1.928627806282
    C           -2.775888488311     0.723904548421     0.647395521504
    H           -1.291280846191     0.841335968289    -0.908042862753
    H           -0.918278077603    -0.306314510400     0.342199231995
    C           -3.662952878964    -0.320989613626    -0.031936652354
    H           -3.189757499209     1.715164820950     0.469291375431
    H           -2.804947135293     0.572216040903     1.725451134630
    C           -5.112680274297    -0.278578984735     0.449990129752
    H           -3.635964794426    -0.170025003655    -1.108825118215
    H           -3.252568048121    -1.312685497440     0.146625919163
    H           -5.716128711357    -1.029966640000    -0.049991136388
    H           -5.562714026227     0.690663361094     0.254200329886
    H           -5.176258564552    -0.461210069005     1.519127938323
    C            3.315434732642    -2.355366972023    -1.011244689571
    H            2.459105097355    -2.798767038001    -1.498615902082
    H            3.884006264515    -3.111820415245    -0.493119570839
    H            3.931342541381    -1.865443901768    -1.751503403829

  Mulliken Charges: (a.u.)
   Center  Symbol    Alpha    Beta     Spin     Total
       1     O     4.28546  4.28546  0.00000 -0.57091
       2     C     2.61264  2.61264  0.00000  0.77472
       3     C     3.20947  3.20947  0.00000 -0.41893
       4     O     4.30539  4.30539  0.00000 -0.61077
       5     C     3.16336  3.16336  0.00000 -0.32672
       6     H     0.39813  0.39813  0.00000  0.20374
       7     H     0.39687  0.39687  0.00000  0.20625
       8     C     3.15684  3.15684  0.00000 -0.31367
       9     H     0.39567  0.39567  0.00000  0.20867
      10     H     0.41714  0.41714  0.00000  0.16572
      11     C     3.15351  3.15351  0.00000 -0.30703
      12     H     0.42030  0.42030  0.00000  0.15941
      13     H     0.42516  0.42516  0.00000  0.14967
      14     C     3.15055  3.15055  0.00000 -0.30109
      15     H     0.41563  0.41563  0.00000  0.16873
      16     H     0.42613  0.42613  0.00000  0.14775
      17     C     3.15123  3.15123  0.00000 -0.30247
      18     H     0.42403  0.42403  0.00000  0.15194
      19     H     0.42539  0.42539  0.00000  0.14921
      20     C     3.23927  3.23927  0.00000 -0.47854
      21     H     0.42167  0.42167  0.00000  0.15666
      22     H     0.42362  0.42362  0.00000  0.15276
      23     H     0.41954  0.41954  0.00000  0.16091
      24     H     0.42191  0.42191  0.00000  0.15618
      25     H     0.42245  0.42245  0.00000  0.15510
      26     C     3.09201  3.09201  0.00000 -0.18403
      27     H     0.40916  0.40916  0.00000  0.18168
      28     H     0.40851  0.40851  0.00000  0.18297
      29     H     0.40896  0.40896  0.00000  0.18208

   Total alpha = 44.00000, Total beta = 44.00000, Total charge = -0.00000
