  ==> Input File <==

--------------------------------------------------------------------------
set {
	reference rhf
	basis 6-31G*
}

set_num_threads( 4 )
memory 2 gb

molecule MOL {
0 1

O	 3.225979	 0.970355	 -0.599647
C	 2.701189	 0.057885	 -0.047330
C	 1.245376	 -0.013843	 0.345420
O	 3.347903	 -1.046386	 0.304773
C	 0.455112	 1.231400	 -0.050772
H	 0.838542	 -0.913825	 -0.103701
H	 1.208210	 -0.175333	 1.419774
C	 -0.998893	 1.219485	 0.433193
H	 0.482531	 1.345121	 -1.130325
H	 0.957290	 2.103070	 0.354729
C	 -2.048174	 1.123147	 -0.678041
H	 -1.173488	 2.132569	 0.997567
H	 -1.140500	 0.399373	 1.135598
C	 -3.481712	 1.225732	 -0.153211
H	 -1.873715	 1.915496	 -1.404378
H	 -1.937996	 0.184918	 -1.217076
C	 -4.538923	 1.125473	 -1.254294
H	 -3.604216	 2.168879	 0.376602
H	 -3.653422	 0.440236	 0.581098
C	 -5.967628	 1.232667	 -0.722307
H	 -4.368200	 1.909071	 -1.989461
H	 -4.420853	 0.181457	 -1.782190
H	 -6.693694	 1.158055	 -1.525966
H	 -6.128227	 2.181752	 -0.218679
H	 -6.180977	 0.441163	 -0.009371
C	 4.728119	 -1.109107	 -0.004993
H	 4.882018	 -1.033965	 -1.071845
H	 5.068212	 -2.067527	 0.355250
H	 5.265056	 -0.311663	 0.488280

	symmetry c1
}
set optking {
	frozen_dihedral = ("
		11 8 5 9
	")
}

ee = optimize('scf')
oeprop('DIPOLE', 'QUADRUPOLE', 'MULLIKEN_CHARGES')
f=open( 'psi4out.xyz', 'w' )
f.write( "29  " )
f.write( str(ee) + "\n" )
f.write( MOL.save_string_xyz() )
f.close()
--------------------------------------------------------------------------

    Molecular point group: c1
  Charge       = 0
  Multiplicity = 1
  Basis Set: 6-31G*
  Basis Set:
  @DF-RHF Final Energy:  -501.03971184714101
    Total Energy =                       -501.0397118471411204
    Molecular point group: c1
  Basis Set: 6-31G*
  Basis Set:
  Basis Set: 6-31G*
  Basis Set:
  @DF-RHF Final Energy:  -501.04035098905308
    Total Energy =                       -501.0403509890531950
  Basis Set: 6-31G*
  Basis Set:
  Basis Set: 6-31G*
  Basis Set:
  @DF-RHF Final Energy:  -501.04037362692532
    Total Energy =                       -501.0403736269254296
  Basis Set: 6-31G*
  Basis Set:
  Basis Set: 6-31G*
  Basis Set:
  @DF-RHF Final Energy:  -501.04017274753937
    Total Energy =                       -501.0401727475389180
  Basis Set: 6-31G*
  Basis Set:
  Basis Set: 6-31G*
  Basis Set:
  @DF-RHF Final Energy:  -501.04042817000743
    Total Energy =                       -501.0404281700068623
  Basis Set: 6-31G*
  Basis Set:
  Basis Set: 6-31G*
  Basis Set:
  @DF-RHF Final Energy:  -501.04042647098936
    Total Energy =                       -501.0404264709899280
  Basis Set: 6-31G*
  Basis Set:
  Basis Set: 6-31G*
  Basis Set:
  @DF-RHF Final Energy:  -501.04043201853597
    Total Energy =                       -501.0404320185359666
  Basis Set: 6-31G*
  Basis Set:
  Charge       = 0
  Multiplicity = 1
  Basis Set: 6-31G*
  Basis Set:

    Orbital Energies (a.u.)
    -----------------------

    Doubly Occupied:

       1A    -20.603418     2A    -20.545320     3A    -11.371817
       4A    -11.280704     5A    -11.235491     6A    -11.218684
       7A    -11.217146     8A    -11.215273     9A    -11.215098
      10A    -11.213506    11A    -11.208514    12A     -1.469083
      13A     -1.362535    14A     -1.096210    15A     -1.066683
      16A     -1.019586    17A     -0.977123    18A     -0.926619
      19A     -0.857252    20A     -0.801380    21A     -0.790475
      22A     -0.766773    23A     -0.699856    24A     -0.682243
      25A     -0.672212    26A     -0.650115    27A     -0.628389
      28A     -0.601585    29A     -0.595944    30A     -0.582046
      31A     -0.565424    32A     -0.546974    33A     -0.532295
      34A     -0.529550    35A     -0.514737    36A     -0.505077
      37A     -0.500329    38A     -0.478296    39A     -0.468940
      40A     -0.462562    41A     -0.459695    42A     -0.456043
      43A     -0.442138    44A     -0.431775

  @DF-RHF Final Energy:  -501.04043257254068

   => Energetics <=

    Nuclear Repulsion Energy =            605.5809266875806998
    One-Electron Energy =               -1882.3128915851475540
    Two-Electron Energy =                 775.6915323250266283
    DFT Exchange-Correlation Energy =       0.0000000000000000
    Empirical Dispersion Energy =           0.0000000000000000
    PCM Polarization Energy =               0.0000000000000000
    EFP Energy =                            0.0000000000000000
    Total Energy =                       -501.0404325725401122
    Molecular point group: c1
  Basis Set: 6-31G*
  Basis Set:

  -Total Gradient:
     Atom            X                  Y                   Z
    ------   -----------------  -----------------  -----------------
       1        0.000021572169     0.000004315744     0.000031882242
       2       -0.000035692736    -0.000034270876    -0.000052309564
       3        0.000032891437     0.000000609609    -0.000045921540
       4        0.000015466250     0.000009409264    -0.000004693996
       5        0.000060042275     0.002612611228     0.000209628957
       6        0.000023402747     0.000017913423     0.000014586362
       7       -0.000010984304     0.000029321774     0.000012585045
       8        0.000022701250    -0.002145328808     0.000045116650
       9       -0.000040059439    -0.001736757443    -0.000129108719
      10        0.000011649089    -0.000018525578    -0.000005699424
      11       -0.000071801613     0.001236819200    -0.000069300970
      12       -0.000008738763     0.000007205645    -0.000005609011
      13       -0.000011376456     0.000005832762    -0.000021459464
      14       -0.000007277778    -0.000009066963    -0.000013637249
      15        0.000011757412     0.000011374154     0.000013629168
      16       -0.000011560158     0.000005686251     0.000013900980
      17       -0.000003961895     0.000004748318     0.000007009844
      18        0.000006940204     0.000000310514    -0.000004469579
      19       -0.000008378570     0.000002818393     0.000004503777
      20       -0.000000875735    -0.000007059045    -0.000002323665
      21       -0.000003183705     0.000005088293    -0.000000646352
      22        0.000002074388     0.000001976641    -0.000001626344
      23       -0.000001371857    -0.000002067524     0.000000251657
      24        0.000002331908    -0.000001042897    -0.000002412157
      25       -0.000000688542     0.000000149066     0.000001694753
      26        0.000000338264    -0.000002350054     0.000004983408
      27       -0.000000939212     0.000000476197     0.000000328402
      28        0.000004106747    -0.000000295217    -0.000000595496
      29        0.000001616628     0.000000097930    -0.000000287714

  **** Optimization is complete! (in 8 steps) ****
    Final optimized geometry and variables:
    Molecular point group: c1

    Geometry (in Angstrom), charge = 0, multiplicity = 1:

    O            3.268688623253     0.355426778284    -0.498102081682
    C            2.738583939935    -0.483878018496     0.156042594079
    C            1.316585097794    -0.437093890048     0.659673986924
    O            3.347801879748    -1.599437370830     0.537791141751
    C            0.568247486671     0.830595913371     0.251935291313
    H            0.811830976491    -1.326386305680     0.291367033728
    H            1.350839611239    -0.543146653235     1.740394502428
    C           -0.898541232055     0.833059921918     0.736188768883
    H            0.603043505031     0.911814328497    -0.829037807849
    H            1.101754308909     1.691796109981     0.636422055764
    C           -1.914994672977     0.701956578649    -0.401151224378
    H           -1.102313593758     1.753083903626     1.277519388881
    H           -1.058082034998     0.028894399706     1.451282460160
    C           -3.365232088188     0.679777783630     0.082939454322
    H           -1.777984076600     1.528383351130    -1.095772962681
    H           -1.709900846196    -0.206481728749    -0.966310023690
    C           -4.381883339245     0.560027426648    -1.053946411447
    H           -3.568581881082     1.585909425222     0.651536083440
    H           -3.502046317535    -0.149853012961     0.774926160998
    C           -5.828655495395     0.537063031242    -0.562018307575
    H           -4.248933379280     1.390172729131    -1.744380745549
    H           -4.180289780673    -0.344909624925    -1.623280454679
    H           -6.524989577614     0.451480697019    -1.390526388238
    H           -6.072174584587     1.445303813334    -0.017922876353
    H           -6.002955928852    -0.302983363752     0.104512852352
    C            4.693319301449    -1.768572248399     0.130458930322
    H            4.766082255039    -1.775638568463    -0.947587855304
    H            5.006132275197    -2.719597321749     0.532557259711
    H            5.311954591989    -0.974357294280     0.522941610393

  Mulliken Charges: (a.u.)
   Center  Symbol    Alpha    Beta     Spin     Total
       1     O     4.28604  4.28604  0.00000 -0.57208
       2     C     2.60583  2.60583  0.00000  0.78835
       3     C     3.20975  3.20975  0.00000 -0.41950
       4     O     4.30730  4.30730  0.00000 -0.61459
       5     C     3.15583  3.15583  0.00000 -0.31167
       6     H     0.40090  0.40090  0.00000  0.19821
       7     H     0.40033  0.40033  0.00000  0.19934
       8     C     3.15842  3.15842  0.00000 -0.31684
       9     H     0.40861  0.40861  0.00000  0.18277
      10     H     0.40926  0.40926  0.00000  0.18147
      11     C     3.15362  3.15362  0.00000 -0.30724
      12     H     0.41841  0.41841  0.00000  0.16317
      13     H     0.42206  0.42206  0.00000  0.15588
      14     C     3.15149  3.15149  0.00000 -0.30298
      15     H     0.42077  0.42077  0.00000  0.15846
      16     H     0.42473  0.42473  0.00000  0.15054
      17     C     3.15140  3.15140  0.00000 -0.30281
      18     H     0.42369  0.42369  0.00000  0.15262
      19     H     0.42437  0.42437  0.00000  0.15125
      20     C     3.23928  3.23928  0.00000 -0.47857
      21     H     0.42256  0.42256  0.00000  0.15488
      22     H     0.42321  0.42321  0.00000  0.15358
      23     H     0.41924  0.41924  0.00000  0.16152
      24     H     0.42172  0.42172  0.00000  0.15656
      25     H     0.42202  0.42202  0.00000  0.15595
      26     C     3.09243  3.09243  0.00000 -0.18486
      27     H     0.40912  0.40912  0.00000  0.18177
      28     H     0.40850  0.40850  0.00000  0.18301
      29     H     0.40909  0.40909  0.00000  0.18182

   Total alpha = 44.00000, Total beta = 44.00000, Total charge =  0.00000
