  ==> Input File <==

--------------------------------------------------------------------------
set {
	reference rhf
	basis 6-31G*
}

set_num_threads( 1 )
memory 2 gb

molecule MOL {
0 1

H	 -2.172150	 0.880146	 0.502514
C	 -2.018062	 -0.000025	 -0.114509
O	 -0.774054	 0.001095	 -0.743181
H	 -2.760490	 0.003458	 -0.901350
H	 -2.173624	 -0.884374	 0.496163
C	 0.406719	 -0.036072	 0.038437
C	 1.527058	 -0.027424	 -0.999242
C	 0.515263	 1.201695	 0.934728
C	 0.477232	 -1.319004	 0.872841
H	 1.463992	 0.866685	 -1.609180
H	 1.437118	 -0.887706	 -1.652847
H	 2.501618	 -0.054248	 -0.522614
H	 0.392423	 2.104085	 0.345124
H	 1.489142	 1.235925	 1.412210
H	 -0.231404	 1.203966	 1.721519
H	 0.328112	 -2.187369	 0.239788
H	 1.449174	 -1.405706	 1.347545
H	 -0.269957	 -1.337470	 1.658970

	symmetry c1
}
set optking {
	frozen_dihedral = ("
		2 3 6 7
	")
}

ee = energy('scf')
oeprop('DIPOLE', 'QUADRUPOLE', 'MULLIKEN_CHARGES')
f=open( 'psi4out.xyz', 'w' )
f.write( "18  " )
f.write( str(ee) + "\n" )
f.write( MOL.save_string_xyz() )
f.close()
--------------------------------------------------------------------------

    Molecular point group: c1

    Geometry (in Angstrom), charge = 0, multiplicity = 1:

       Center              X                  Y                   Z               Mass
    ------------   -----------------  -----------------  -----------------  -----------------
           H         -2.171956145601     0.909873650336     0.502950416710     1.007825032070
           C         -2.017868145601     0.029702650336    -0.114072583290    12.000000000000
           O         -0.773860145601     0.030822650336    -0.742744583290    15.994914619560
           H         -2.760296145601     0.033185650336    -0.900913583290     1.007825032070
           H         -2.173430145601    -0.854646349664     0.496599416710     1.007825032070
           C          0.406912854399    -0.006344349664     0.038873416710    12.000000000000
           C          1.527251854399     0.002303650336    -0.998805583290    12.000000000000
           C          0.515456854399     1.231422650336     0.935164416710    12.000000000000
           C          0.477425854399    -1.289276349664     0.873277416710    12.000000000000
           H          1.464185854399     0.896412650336    -1.608743583290     1.007825032070
           H          1.437311854399    -0.857978349664    -1.652410583290     1.007825032070
           H          2.501811854399    -0.024520349664    -0.522177583290     1.007825032070
           H          0.392616854399     2.133812650336     0.345560416710     1.007825032070
           H          1.489335854399     1.265652650336     1.412646416710     1.007825032070
           H         -0.231210145601     1.233693650336     1.721955416710     1.007825032070
           H          0.328305854399    -2.157641349664     0.240224416710     1.007825032070
           H          1.449367854399    -1.375978349664     1.347981416710     1.007825032070
           H         -0.269763145601    -1.307742349664     1.659406416710     1.007825032070

  Charge       = 0
  Multiplicity = 1
  Basis Set: 6-31G*
  Basis Set:

    Orbital Energies (a.u.)
    -----------------------

    Doubly Occupied:

       1A    -20.546936     2A    -11.281284     3A    -11.260488
       4A    -11.208686     5A    -11.208618     6A    -11.203200
       7A     -1.370130     8A     -1.073035     9A     -0.945750
      10A     -0.939778    11A     -0.912426    12A     -0.752329
      13A     -0.655205    14A     -0.644266    15A     -0.637303
      16A     -0.593109    17A     -0.574904    18A     -0.552649
      19A     -0.534032    20A     -0.523722    21A     -0.514576
      22A     -0.486991    23A     -0.486609    24A     -0.438828
      25A     -0.404693

  @DF-RHF Final Energy:  -271.17548925896938

   => Energetics <=

    Nuclear Repulsion Energy =            272.2853731746803305
    One-Electron Energy =                -907.4223351773059676
    Two-Electron Energy =                 363.9614727436562589
    DFT Exchange-Correlation Energy =       0.0000000000000000
    Empirical Dispersion Energy =           0.0000000000000000
    PCM Polarization Energy =               0.0000000000000000
    EFP Energy =                            0.0000000000000000
    Total Energy =                       -271.1754892589693782

  Mulliken Charges: (a.u.)
   Center  Symbol    Alpha    Beta     Spin     Total
       1     H     0.42936  0.42936  0.00000  0.14129
       2     C     3.07972  3.07972  0.00000 -0.15944
       3     O     4.31842  4.31842  0.00000 -0.63683
       4     H     0.41284  0.41284  0.00000  0.17432
       5     H     0.42949  0.42949  0.00000  0.14101
       6     C     2.84226  2.84226  0.00000  0.31548
       7     C     3.23301  3.23301  0.00000 -0.46602
       8     C     3.24745  3.24745  0.00000 -0.49491
       9     C     3.24770  3.24770  0.00000 -0.49540
      10     H     0.41411  0.41411  0.00000  0.17178
      11     H     0.41412  0.41412  0.00000  0.17176
      12     H     0.42513  0.42513  0.00000  0.14974
      13     H     0.41331  0.41331  0.00000  0.17338
      14     H     0.41970  0.41970  0.00000  0.16060
      15     H     0.42026  0.42026  0.00000  0.15947
      16     H     0.41331  0.41331  0.00000  0.17338
      17     H     0.41959  0.41959  0.00000  0.16082
      18     H     0.42021  0.42021  0.00000  0.15959

   Total alpha = 25.00000, Total beta = 25.00000, Total charge = -0.00000
