  ==> Input File <==

--------------------------------------------------------------------------
set {
	reference rhf
	basis 6-31G*
}

set_num_threads( 4 )
memory 2 gb

molecule MOL {
0 1

H	 -1.070890	 -1.366565	 0.180696
O	 -1.422729	 -0.573567	 -0.196946
C	 -0.731407	 0.539437	 0.309156
C	 0.680193	 0.672443	 -0.251532
H	 -1.319765	 1.404033	 0.030086
H	 -0.700012	 0.506517	 1.397677
C	 1.160810	 -0.569195	 -1.003228
H	 0.710271	 1.534111	 -0.912039
H	 1.356674	 0.880727	 0.574622
H	 0.548953	 -0.764303	 -1.878876
H	 2.182082	 -0.445276	 -1.347629
H	 1.132720	 -1.451256	 -0.368057

	symmetry c1
}
set optking {
	frozen_dihedral = ("
		8 4 3 2
	")
}

ee = optimize('scf')
oeprop('DIPOLE', 'QUADRUPOLE', 'MULLIKEN_CHARGES')
f=open( 'psi4out.xyz', 'w' )
f.write( "12  " )
f.write( str(ee) + "\n" )
f.write( MOL.save_string_xyz() )
f.close()
--------------------------------------------------------------------------

    Molecular point group: c1
  Charge       = 0
  Multiplicity = 1
  Basis Set: 6-31G*
  Basis Set:
  @DF-RHF Final Energy:  -193.10159743744845
    Total Energy =                       -193.1015974374485040
    Molecular point group: c1
  Basis Set: 6-31G*
  Basis Set:
  Basis Set: 6-31G*
  Basis Set:
  @DF-RHF Final Energy:  -193.10217660123618
    Total Energy =                       -193.1021766012361809
  Basis Set: 6-31G*
  Basis Set:
  Basis Set: 6-31G*
  Basis Set:
  @DF-RHF Final Energy:  -193.10275590504642
    Total Energy =                       -193.1027559050464504
  Basis Set: 6-31G*
  Basis Set:
  Basis Set: 6-31G*
  Basis Set:
  @DF-RHF Final Energy:  -193.10276184418211
    Total Energy =                       -193.1027618441821687
  Basis Set: 6-31G*
  Basis Set:
  Basis Set: 6-31G*
  Basis Set:
  @DF-RHF Final Energy:  -193.10277964843331
    Total Energy =                       -193.1027796484331702
  Basis Set: 6-31G*
  Basis Set:
  Charge       = 0
  Multiplicity = 1
  Basis Set: 6-31G*
  Basis Set:

    Orbital Energies (a.u.)
    -----------------------

    Doubly Occupied:

       1A    -20.553028     2A    -11.268579     3A    -11.219208
       4A    -11.213839     5A     -1.359862     6A     -1.044561
       7A     -0.927348     8A     -0.807244     9A     -0.691041
      10A     -0.630013    11A     -0.618792    12A     -0.579520
      13A     -0.526754    14A     -0.511021    15A     -0.499382
      16A     -0.457213    17A     -0.428759

  @DF-RHF Final Energy:  -193.10278006959592

   => Energetics <=

    Nuclear Repulsion Energy =            133.3170153949359644
    One-Electron Energy =                -526.1672652759966695
    Two-Electron Energy =                 199.7474698114648390
    DFT Exchange-Correlation Energy =       0.0000000000000000
    Empirical Dispersion Energy =           0.0000000000000000
    PCM Polarization Energy =               0.0000000000000000
    EFP Energy =                            0.0000000000000000
    Total Energy =                       -193.1027800695958376
    Molecular point group: c1
  Basis Set: 6-31G*
  Basis Set:

  -Total Gradient:
     Atom            X                  Y                   Z
    ------   -----------------  -----------------  -----------------
       1       -0.000022410992    -0.000049867986    -0.000019666457
       2        0.000987923703    -0.001651400452     0.002076992981
       3       -0.001136770976     0.002729116845    -0.002262474075
       4       -0.000764765405    -0.003023921880    -0.002472722369
       5        0.000026823907     0.000049343195     0.000022957758
       6        0.000011864340    -0.000014873000    -0.000013673537
       7       -0.000001488001     0.000007477887    -0.000004273149
       8        0.000885322256     0.001949676975     0.002665013456
       9        0.000022995795     0.000006277262     0.000005482539
      10        0.000004057301     0.000005456198    -0.000004196937
      11       -0.000006536340    -0.000007281780    -0.000000144956
      12       -0.000007015586    -0.000000003264     0.000006704745

  **** Optimization is complete! (in 6 steps) ****
    Final optimized geometry and variables:
    Molecular point group: c1

    Geometry (in Angstrom), charge = 0, multiplicity = 1:

    H           -1.003956235724    -1.340028263955     0.429858886540
    O           -1.366272494120    -0.531497976568     0.098159841907
    C           -0.625346255991     0.555414729495     0.591046489437
    C            0.806982779399     0.677175543582     0.015274987651
    H           -1.202399389518     1.435492362904     0.343870414549
    H           -0.580957162616     0.500755256594     1.676512657193
    C            1.311168036810    -0.559007540050    -0.728409428928
    H            0.862701131352     1.542681104573    -0.638405956015
    H            1.489264484719     0.896219430889     0.833191892065
    H            0.675917130654    -0.800316369009    -1.571503815781
    H            2.316963960731    -0.389146477381    -1.098182068785
    H            1.351633884843    -1.430632664350    -0.079529606762

  Mulliken Charges: (a.u.)
   Center  Symbol    Alpha    Beta     Spin     Total
       1     H     0.28073  0.28073  0.00000  0.43854
       2     O     4.36887  4.36887  0.00000 -0.73773
       3     C     2.99656  2.99656  0.00000  0.00687
       4     C     3.17535  3.17535  0.00000 -0.35069
       5     H     0.41344  0.41344  0.00000  0.17313
       6     H     0.42962  0.42962  0.00000  0.14076
       7     C     3.24211  3.24211  0.00000 -0.48422
       8     H     0.41642  0.41642  0.00000  0.16715
       9     H     0.42108  0.42108  0.00000  0.15785
      10     H     0.40771  0.40771  0.00000  0.18457
      11     H     0.41806  0.41806  0.00000  0.16388
      12     H     0.43006  0.43006  0.00000  0.13988

   Total alpha = 17.00000, Total beta = 17.00000, Total charge =  0.00000
