  ==> Input File <==

--------------------------------------------------------------------------
set {
	reference rhf
	basis 6-31G*
}

set_num_threads( 1 )
memory 2 gb

molecule MOL {
0 1

H	 2.591676	 2.013956	 0.335017
O	 3.341076	 1.666752	 -0.126416
C	 3.569581	 0.339145	 0.272707
C	 3.367378	 0.117592	 1.767617
H	 2.862476	 -0.261615	 -0.284755
H	 4.568365	 0.019187	 -0.021975
C	 4.352514	 0.888324	 2.649857
H	 2.349662	 0.400592	 2.023609
H	 3.460155	 -0.948533	 1.967959
C	 4.158581	 0.602829	 4.141735
H	 4.238579	 1.953091	 2.466400
H	 5.372477	 0.628476	 2.366140
C	 5.175365	 1.283843	 5.065159
H	 3.152528	 0.897492	 4.434785
H	 4.216930	 -0.472170	 4.298813
C	 5.085992	 2.811838	 5.106630
H	 5.031597	 0.900724	 6.073309
H	 6.181630	 0.989179	 4.771149
C	 6.047399	 3.437940	 6.119116
H	 4.066289	 3.105283	 5.352002
H	 5.293781	 3.225750	 4.122859
C	 5.964781	 4.963499	 6.157945
H	 5.836350	 3.040143	 7.109421
H	 7.065886	 3.137927	 5.881288
H	 4.965471	 5.295324	 6.425330
H	 6.656071	 5.376868	 6.885873
H	 6.206994	 5.394427	 5.190475

	symmetry c1
}
set optking {
	frozen_dihedral = ("
		14 10 7 4,
		14 10 13 16,
		10 7 4 8,
		8 4 3 2,
		10 13 16 20,
		20 16 19 22
	")
}

ee = energy('scf')
oeprop('DIPOLE', 'QUADRUPOLE', 'MULLIKEN_CHARGES')
f=open( 'psi4out.xyz', 'w' )
f.write( "27  " )
f.write( str(ee) + "\n" )
f.write( MOL.save_string_xyz() )
f.close()
--------------------------------------------------------------------------

    Molecular point group: c1

    Geometry (in Angstrom), charge = 0, multiplicity = 1:

       Center              X                  Y                   Z               Mass
    ------------   -----------------  -----------------  -----------------  -----------------
           H         -1.948770287283     0.208401049909    -3.071332641263     1.007825032070
           O         -1.199370287283    -0.138802950091    -3.532765641263    15.994914619560
           C         -0.970865287283    -1.466409950091    -3.133642641263    12.000000000000
           C         -1.173068287283    -1.687962950091    -1.638732641263    12.000000000000
           H         -1.677970287283    -2.067169950091    -3.691104641263     1.007825032070
           H          0.027918712717    -1.786367950091    -3.428324641263     1.007825032070
           C         -0.187932287283    -0.917230950091    -0.756492641263    12.000000000000
           H         -2.190784287283    -1.404962950091    -1.382740641263     1.007825032070
           H         -1.080291287283    -2.754087950091    -1.438390641263     1.007825032070
           C         -0.381865287283    -1.202725950091     0.735385358737    12.000000000000
           H         -0.301867287283     0.147536049909    -0.939949641263     1.007825032070
           H          0.832030712717    -1.177078950091    -1.040209641263     1.007825032070
           C          0.634918712717    -0.521711950091     1.658809358737    12.000000000000
           H         -1.387918287283    -0.908062950091     1.028435358737     1.007825032070
           H         -0.323516287283    -2.277724950091     0.892463358737     1.007825032070
           C          0.545545712717     1.006283049909     1.700280358737    12.000000000000
           H          0.491150712717    -0.904830950091     2.666959358737     1.007825032070
           H          1.641183712717    -0.816375950091     1.364799358737     1.007825032070
           C          1.506952712717     1.632385049909     2.712766358737    12.000000000000
           H         -0.474157287283     1.299728049909     1.945652358737     1.007825032070
           H          0.753334712717     1.420195049909     0.716509358737     1.007825032070
           C          1.424334712717     3.157944049909     2.751595358737    12.000000000000
           H          1.295903712717     1.234588049909     3.703071358737     1.007825032070
           H          2.525439712717     1.332372049909     2.474938358737     1.007825032070
           H          0.425024712717     3.489769049909     3.018980358737     1.007825032070
           H          2.115624712717     3.571313049909     3.479523358737     1.007825032070
           H          1.666547712717     3.588872049909     1.784125358737     1.007825032070

  Charge       = 0
  Multiplicity = 1
  Basis Set: 6-31G*
  Basis Set:

    Orbital Energies (a.u.)
    -----------------------

    Doubly Occupied:

       1A    -20.550470     2A    -11.267282     3A    -11.221418
       4A    -11.215996     5A    -11.215416     6A    -11.214345
       7A    -11.214061     8A    -11.212314     9A    -11.207757
      10A     -1.358647    11A     -1.093813    12A     -1.060887
      13A     -1.011187    14A     -0.946717    15A     -0.885977
      16A     -0.823547    17A     -0.802779    18A     -0.776911
      19A     -0.667924    20A     -0.654528    21A     -0.643631
      22A     -0.623902    23A     -0.606622    24A     -0.585205
      25A     -0.572561    26A     -0.560915    27A     -0.537999
      28A     -0.521307    29A     -0.512330    30A     -0.488755
      31A     -0.480714    32A     -0.477291    33A     -0.465220
      34A     -0.458333    35A     -0.451367    36A     -0.442960
      37A     -0.419843

  @DF-RHF Final Energy:  -388.27973593446319

   => Energetics <=

    Nuclear Repulsion Energy =            459.5121579723178797
    One-Electron Energy =               -1437.0819138880651735
    Two-Electron Energy =                 589.2900199812853543
    DFT Exchange-Correlation Energy =       0.0000000000000000
    Empirical Dispersion Energy =           0.0000000000000000
    PCM Polarization Energy =               0.0000000000000000
    EFP Energy =                            0.0000000000000000
    Total Energy =                       -388.2797359344618826

  Mulliken Charges: (a.u.)
   Center  Symbol    Alpha    Beta     Spin     Total
       1     H     0.28210  0.28210  0.00000  0.43579
       2     O     4.37227  4.37227  0.00000 -0.74454
       3     C     2.98650  2.98650  0.00000  0.02700
       4     C     3.17852  3.17852  0.00000 -0.35703
       5     H     0.42731  0.42731  0.00000  0.14537
       6     H     0.41802  0.41802  0.00000  0.16397
       7     C     3.15292  3.15292  0.00000 -0.30583
       8     H     0.42683  0.42683  0.00000  0.14633
       9     H     0.41974  0.41974  0.00000  0.16052
      10     C     3.15297  3.15297  0.00000 -0.30595
      11     H     0.41528  0.41528  0.00000  0.16945
      12     H     0.42229  0.42229  0.00000  0.15541
      13     C     3.15292  3.15292  0.00000 -0.30584
      14     H     0.42505  0.42505  0.00000  0.14990
      15     H     0.42279  0.42279  0.00000  0.15442
      16     C     3.15334  3.15334  0.00000 -0.30667
      17     H     0.42196  0.42196  0.00000  0.15607
      18     H     0.42343  0.42343  0.00000  0.15315
      19     C     3.15114  3.15114  0.00000 -0.30228
      20     H     0.42544  0.42544  0.00000  0.14911
      21     H     0.42058  0.42058  0.00000  0.15883
      22     C     3.23927  3.23927  0.00000 -0.47854
      23     H     0.42348  0.42348  0.00000  0.15304
      24     H     0.42282  0.42282  0.00000  0.15435
      25     H     0.42222  0.42222  0.00000  0.15557
      26     H     0.41947  0.41947  0.00000  0.16105
      27     H     0.42133  0.42133  0.00000  0.15734

   Total alpha = 37.00000, Total beta = 37.00000, Total charge =  0.00000
