                              Psi4 1.0.54 Driver

  ==> Input File <==

--------------------------------------------------------------------------
set {
	reference rhf
	basis cc-pvtz
}

set_num_threads( 4 )
memory 2 gb

molecule MOL {
0 1

O	 0.378399	 -4.252083	 -3.116795
C	 0.576404	 -3.117388	 -3.407816
C	 0.446409	 -2.012082	 -2.378522
C	 0.984695	 -2.718131	 -4.805908
C	 1.734721	 -1.869236	 -1.558345
H	 -0.375146	 -2.270293	 -1.722409
H	 0.212305	 -1.070902	 -2.864569
C	 1.630207	 -0.772146	 -0.501001
H	 1.949686	 -2.823731	 -1.094709
H	 2.568202	 -1.647895	 -2.220626
C	 2.907848	 -0.545876	 0.309149
H	 0.812733	 -1.006443	 0.176362
H	 1.361797	 0.159986	 -0.990582
C	 3.373802	 0.906639	 0.372125
H	 3.699140	 -1.146831	 -0.127906
H	 2.764321	 -0.923458	 1.318191
H	 3.519798	 1.311927	 -0.623875
H	 4.316899	 0.983758	 0.900700
H	 2.661122	 1.540651	 0.885346
H	 0.181230	 -2.149839	 -5.263605
H	 1.188021	 -3.596337	 -5.399188
H	 1.857578	 -2.075442	 -4.781101

	symmetry c1
}
set optking {
	frozen_dihedral = ("
		12 8 11 15
	")
}

ee,wfn = optimize('scf', return_wfn=True)
oeprop( wfn, 'DIPOLE', 'QUADRUPOLE', 'MULLIKEN_CHARGES')
f=open( 'psi4out.xyz', 'w' )
f.write( "22  " )
f.write( str(ee) + "\n" )
f.write( MOL.save_string_xyz() )
f.close()
--------------------------------------------------------------------------

    Molecular point group: c1
  Charge       = 0
  Multiplicity = 1
  Basis Set: CC-PVTZ
  Basis Set:
  @DF-RHF Final Energy:  -348.21945368120896
    Total Energy =                       -348.2194536812088472
    Molecular point group: c1
  Basis Set: CC-PVTZ
  Basis Set:
  Basis Set: CC-PVTZ
  Basis Set:
  @DF-RHF Final Energy:  -348.21999225684323
    Total Energy =                       -348.2199922568431134
  Basis Set: CC-PVTZ
  Basis Set:
  Basis Set: CC-PVTZ
  Basis Set:
  @DF-RHF Final Energy:  -348.21998489250137
    Total Energy =                       -348.2199848925013157
  Basis Set: CC-PVTZ
  Basis Set:
  Basis Set: CC-PVTZ
  Basis Set:
  @DF-RHF Final Energy:  -348.21994718985172
    Total Energy =                       -348.2199471898520642
  Basis Set: CC-PVTZ
  Basis Set:
  Basis Set: CC-PVTZ
  Basis Set:
  @DF-RHF Final Energy:  -348.22006415570769
    Total Energy =                       -348.2200641557075187
  Basis Set: CC-PVTZ
  Basis Set:
  Basis Set: CC-PVTZ
  Basis Set:
  @DF-RHF Final Energy:  -348.22006599336811
    Total Energy =                       -348.2200659933682800
  Basis Set: CC-PVTZ
  Basis Set:
  Charge       = 0
  Multiplicity = 1
  Basis Set: CC-PVTZ
  Basis Set:

    Orbital Energies (a.u.)
    -----------------------

    Doubly Occupied:

       1A    -20.536716     2A    -11.319288     3A    -11.228748
       4A    -11.227432     5A    -11.226883     6A    -11.220332
       7A    -11.218569     8A    -11.211941     9A     -1.396842
      10A     -1.096362    11A     -1.046002    12A     -1.001617
      13A     -0.940026    14A     -0.847827    15A     -0.799266
      16A     -0.733981    17A     -0.663856    18A     -0.649575
      19A     -0.630321    20A     -0.613273    21A     -0.596092
      22A     -0.588655    23A     -0.560579    24A     -0.548903
      25A     -0.537675    26A     -0.512454    27A     -0.500068
      28A     -0.492437    29A     -0.474444    30A     -0.464169
      31A     -0.460899    32A     -0.398295

  @DF-RHF Final Energy:  -348.22006652762008

   => Energetics <=

    Nuclear Repulsion Energy =            369.8166548187923013
    One-Electron Energy =               -1204.5863805817866705
    Two-Electron Energy =                 486.5496592353741221
    DFT Exchange-Correlation Energy =       0.0000000000000000
    Empirical Dispersion Energy =           0.0000000000000000
    PCM Polarization Energy =               0.0000000000000000
    EFP Energy =                            0.0000000000000000
    Total Energy =                       -348.2200665276201903
    Molecular point group: c1
  Basis Set: CC-PVTZ
  Basis Set:

  -Total Gradient:
     Atom            X                  Y                   Z
    ------   -----------------  -----------------  -----------------
       1        0.000009262197    -0.000021512422     0.000015718729
       2        0.000016388895     0.000011544683    -0.000026633578
       3       -0.000004718878     0.000000804528     0.000006876996
       4       -0.000036582860    -0.000013143371    -0.000005339556
       5        0.000002327684     0.000014911104    -0.000021657886
       6       -0.000019763470    -0.000009891552    -0.000004462793
       7        0.000009772185     0.000001687002     0.000021757560
       8       -0.000746597363     0.002620532442     0.000585546409
       9       -0.000005649839     0.000000779348     0.000001731478
      10        0.000012507439    -0.000006920747    -0.000025404931
      11        0.000939361463     0.001764640677    -0.001894755016
      12        0.000479957046    -0.002475764038    -0.000174024601
      13        0.000009632278     0.000005958877    -0.000004449761
      14        0.000004539872     0.000010350071    -0.000008367771
      15       -0.000689505273    -0.001910634252     0.001516611816
      16        0.000001671773     0.000001002932     0.000002548279
      17       -0.000006217281     0.000000740886     0.000001808967
      18        0.000003620587    -0.000002183534    -0.000002211184
      19        0.000001694974    -0.000003795117     0.000003592984
      20        0.000007108380     0.000010501311    -0.000002126510
      21        0.000002561020    -0.000000948160     0.000003642176
      22        0.000008629169     0.000001339323     0.000009598193

  **** Optimization is complete! (in 7 steps) ****
    Final optimized geometry and variables:
    Molecular point group: c1

    Geometry (in Angstrom), charge = 0, multiplicity = 1:

    O           -1.120345112724    -2.511102593330    -1.127208189553
    C           -0.944840035938    -1.386200949514    -1.466404128876
    C           -1.080819010747    -0.242076054834    -0.481463403251
    C           -0.562046180431    -1.037776679012    -2.885126498465
    C            0.220540949541    -0.029998235773     0.301042952240
    H           -1.880726188098    -0.492812957717     0.203508089895
    H           -1.350192441351     0.671404947302    -1.001311250834
    C            0.121311390187     1.109672686579     1.313427695268
    H            0.472032325296    -0.952692802870     0.812794764490
    H            1.035814614443     0.174928233042    -0.388219736269
    C            1.409230986483     1.301247448928     2.137944648584
    H           -0.711064279105     0.898528945647     1.976808449563
    H           -0.123408907489     2.028322829488     0.788860493482
    C            1.873457376688     2.751220747099     2.222641593674
    H            2.202582473659     0.686721189442     1.724396145293
    H            1.251508743163     0.922555019798     3.142419038445
    H            2.093221527034     3.149192394720     1.237331368131
    H            2.769942969032     2.842677187856     2.825066253676
    H            1.109531702399     3.379861390420     2.668079900286
    H           -1.383183543039    -0.506035093533    -3.355193395545
    H           -0.348161600346    -1.935975750020    -3.443722436800
    H            0.297370174418    -0.376953921999    -2.899552530979

  Mulliken Charges: (a.u.)
   Center  Symbol    Alpha    Beta     Spin     Total
       1     O     4.17774  4.17774  0.00000 -0.35548
       2     C     2.85817  2.85817  0.00000  0.28366
       3     C     3.09940  3.09940  0.00000 -0.19880
       4     C     3.15521  3.15521  0.00000 -0.31042
       5     C     3.10197  3.10197  0.00000 -0.20393
       6     H     0.43911  0.43911  0.00000  0.12179
       7     H     0.44899  0.44899  0.00000  0.10202
       8     C     3.09314  3.09314  0.00000 -0.18628
       9     H     0.43975  0.43975  0.00000  0.12051
      10     H     0.45177  0.45177  0.00000  0.09646
      11     C     3.08863  3.08863  0.00000 -0.17726
      12     H     0.44858  0.44858  0.00000  0.10284
      13     H     0.45369  0.45369  0.00000  0.09263
      14     C     3.14742  3.14742  0.00000 -0.29485
      15     H     0.45310  0.45310  0.00000  0.09381
      16     H     0.44952  0.44952  0.00000  0.10096
      17     H     0.45636  0.45636  0.00000  0.08729
      18     H     0.44838  0.44838  0.00000  0.10325
      19     H     0.45377  0.45377  0.00000  0.09246
      20     H     0.44833  0.44833  0.00000  0.10333
      21     H     0.43603  0.43603  0.00000  0.12794
      22     H     0.45097  0.45097  0.00000  0.09806

   Total alpha = 32.00000, Total beta = 32.00000, Total charge = -0.00000

*** Psi4 exiting successfully. Buy a developer a beer!
