  ==> Input File <==

--------------------------------------------------------------------------
set {
	reference rhf
	basis cc-pvtz
}

set_num_threads( 4 )
memory 2 gb

molecule MOL {
0 1

H	 -3.448040	 1.632368	 0.324186
C	 -2.953794	 0.719322	 0.585674
C	 -1.847123	 0.385428	 -0.031692
H	 -3.379480	 0.100694	 1.351108
O	 -1.189946	 -0.765863	 0.237511
H	 -1.407275	 1.002000	 -0.794253
C	 0.026572	 -0.995256	 -0.379403
C	 1.057223	 0.049888	 -0.004615
H	 -0.054361	 -1.010670	 -1.459674
H	 0.397526	 -1.952058	 -0.044198
F	 2.203233	 -0.234060	 -0.590375
F	 0.698147	 1.254887	 -0.392621
F	 1.266440	 0.094219	 1.288722

	symmetry c1
}
set optking {
	frozen_dihedral = ("
		3 5 7 9
	")
}

ee = optimize('scf')
oeprop('DIPOLE', 'QUADRUPOLE', 'MULLIKEN_CHARGES')
f=open( 'psi4out.xyz', 'w' )
f.write( "13  " )
f.write( str(ee) + "\n" )
f.write( MOL.save_string_xyz() )
f.close()
--------------------------------------------------------------------------

    Molecular point group: c1
  Charge       = 0
  Multiplicity = 1
  Basis Set: CC-PVTZ
  Basis Set:
  @DF-RHF Final Energy:  -527.73728161216275
    Total Energy =                       -527.7372816121630876
    Molecular point group: c1
  Basis Set: CC-PVTZ
  Basis Set:
  Basis Set: CC-PVTZ
  Basis Set:
  @DF-RHF Final Energy:  -527.73957627220955
    Total Energy =                       -527.7395762722093195
  Basis Set: CC-PVTZ
  Basis Set:
  Basis Set: CC-PVTZ
  Basis Set:
  @DF-RHF Final Energy:  -527.74001588037845
    Total Energy =                       -527.7400158803786780
  Basis Set: CC-PVTZ
  Basis Set:
  Basis Set: CC-PVTZ
  Basis Set:
  @DF-RHF Final Energy:  -527.74010211713573
    Total Energy =                       -527.7401021171352795
  Basis Set: CC-PVTZ
  Basis Set:
  Basis Set: CC-PVTZ
  Basis Set:
  @DF-RHF Final Energy:  -527.74011815491485
    Total Energy =                       -527.7401181549148532
  Basis Set: CC-PVTZ
  Basis Set:
  Basis Set: CC-PVTZ
  Basis Set:
  @DF-RHF Final Energy:  -527.74012115487062
    Total Energy =                       -527.7401211548703941
  Basis Set: CC-PVTZ
  Basis Set:
  Charge       = 0
  Multiplicity = 1
  Basis Set: CC-PVTZ
  Basis Set:

    Orbital Energies (a.u.)
    -----------------------

    Doubly Occupied:

       1A    -26.342600     2A    -26.342145     3A    -26.339568
       4A    -20.602239     5A    -11.500205     6A    -11.319177
       7A    -11.295873     8A    -11.214570     9A     -1.752082
      10A     -1.648035    11A     -1.647046    12A     -1.441537
      13A     -1.086101    14A     -1.021890    15A     -0.933453
      16A     -0.844076    17A     -0.840395    18A     -0.834219
      19A     -0.788771    20A     -0.727887    21A     -0.719655
      22A     -0.701502    23A     -0.681553    24A     -0.669666
      25A     -0.662603    26A     -0.652215    27A     -0.644825
      28A     -0.591270    29A     -0.565640    30A     -0.527471
      31A     -0.507718    32A     -0.358994

  @DF-RHF Final Energy:  -527.74012152196292

   => Energetics <=

    Nuclear Repulsion Energy =            416.4570730779124119
    One-Electron Energy =               -1556.7844219253497613
    Two-Electron Energy =                 612.5872273254742595
    DFT Exchange-Correlation Energy =       0.0000000000000000
    Empirical Dispersion Energy =           0.0000000000000000
    PCM Polarization Energy =               0.0000000000000000
    EFP Energy =                            0.0000000000000000
    Total Energy =                       -527.7401215219631467
    Molecular point group: c1
  Basis Set: CC-PVTZ
  Basis Set:

  -Total Gradient:
     Atom            X                  Y                   Z
    ------   -----------------  -----------------  -----------------
       1        0.000005049149     0.000001324500     0.000003821261
       2       -0.000021589934     0.000022962654     0.000010191365
       3        0.001446177135     0.001576433874     0.002795014363
       4       -0.000005538420    -0.000005681485    -0.000000720442
       5       -0.002291911122    -0.003569653151    -0.004186826401
       6       -0.000014589466     0.000000784416     0.000026820868
       7        0.001329727671     0.006104211611     0.001415210873
       8        0.000044064423     0.000017498642    -0.000048677056
       9       -0.000498797997    -0.004163511865    -0.000036870004
      10        0.000002417574     0.000005598242    -0.000008595580
      11       -0.000005251059     0.000021149473    -0.000001056245
      12        0.000019383614    -0.000009102428     0.000001510989
      13       -0.000009141579    -0.000002014479     0.000030176007

  **** Optimization is complete! (in 7 steps) ****
    Final optimized geometry and variables:
    Molecular point group: c1

    Geometry (in Angstrom), charge = 0, multiplicity = 1:

    H           -3.529035508670     1.532521131608     0.255576054687
    C           -2.963627754680     0.665155170833     0.528828234412
    C           -1.992909470652     0.254145751410    -0.248977505398
    H           -3.212365754144     0.149393843151     1.435524790526
    O           -1.286178965463    -0.870951483653     0.018280323329
    H           -1.728071299490     0.763193231959    -1.157590554427
    C           -0.028777841924    -1.021916641836    -0.539734560886
    C            1.004660443999    -0.022363631408    -0.056831390269
    H           -0.056119943642    -1.007753746569    -1.624173948101
    H            0.325692886833    -1.994884370337    -0.235119383185
    F            2.184194279593    -0.366020402064    -0.533292293427
    F            0.760489898411     1.205873371594    -0.462867311987
    F            1.087456913568     0.001925112653     1.251146707909

  Mulliken Charges: (a.u.)
   Center  Symbol    Alpha    Beta     Spin     Total
       1     H     0.42535  0.42535  0.00000  0.14930
       2     C     3.19135  3.19135  0.00000 -0.38270
       3     C     2.96427  2.96427  0.00000  0.07145
       4     H     0.42416  0.42416  0.00000  0.15167
       5     O     4.14496  4.14496  0.00000 -0.28991
       6     H     0.43169  0.43169  0.00000  0.13662
       7     C     3.02242  3.02242  0.00000 -0.04483
       8     C     2.67789  2.67789  0.00000  0.64422
       9     H     0.45246  0.45246  0.00000  0.09508
      10     H     0.43638  0.43638  0.00000  0.12724
      11     F     4.61107  4.61107  0.00000 -0.22215
      12     F     4.61115  4.61115  0.00000 -0.22231
      13     F     4.60684  4.60684  0.00000 -0.21369

   Total alpha = 32.00000, Total beta = 32.00000, Total charge =  0.00000
