  ==> Input File <==

--------------------------------------------------------------------------
set {
	reference rhf
	basis cc-pvtz
}

set_num_threads( 4 )
memory 2 gb

molecule MOL {
0 1

H	 1.320404	 -1.768100	 1.041655
O	 0.648038	 -1.199032	 0.715863
C	 1.135873	 0.113391	 0.608264
C	 0.027642	 1.012027	 0.090274
H	 1.974205	 0.149782	 -0.082854
H	 1.494396	 0.464834	 1.571805
C	 -1.138737	 0.285728	 -0.581921
H	 0.464661	 1.708096	 -0.618252
H	 -0.340737	 1.603071	 0.925246
C	 -1.933983	 -0.631436	 0.343653
H	 -0.763151	 -0.285569	 -1.422081
H	 -1.808359	 1.035291	 -0.992333
H	 -2.789188	 -1.049673	 -0.174718
H	 -1.335629	 -1.461368	 0.700418
H	 -2.305435	 -0.092167	 1.209725

	symmetry c1
}
set optking {
	frozen_dihedral = ("
		2 3 4 8
	")
}

ee = optimize('scf')
oeprop('DIPOLE', 'QUADRUPOLE', 'MULLIKEN_CHARGES')
f=open( 'psi4out.xyz', 'w' )
f.write( "15  " )
f.write( str(ee) + "\n" )
f.write( MOL.save_string_xyz() )
f.close()
--------------------------------------------------------------------------

    Molecular point group: c1
  Charge       = 0
  Multiplicity = 1
  Basis Set: CC-PVTZ
  Basis Set:
  @DF-RHF Final Energy:  -232.22181409215011
    Total Energy =                       -232.2218140921502822
    Molecular point group: c1
  Basis Set: CC-PVTZ
  Basis Set:
  Basis Set: CC-PVTZ
  Basis Set:
  @DF-RHF Final Energy:  -232.22806373153199
    Total Energy =                       -232.2280637315318472
  Basis Set: CC-PVTZ
  Basis Set:
  Basis Set: CC-PVTZ
  Basis Set:
  @DF-RHF Final Energy:  -232.22940224714657
    Total Energy =                       -232.2294022471466519
  Basis Set: CC-PVTZ
  Basis Set:
  Basis Set: CC-PVTZ
  Basis Set:
  @DF-RHF Final Energy:  -232.22978177029682
    Total Energy =                       -232.2297817702971088
  Basis Set: CC-PVTZ
  Basis Set:
  Basis Set: CC-PVTZ
  Basis Set:
  @DF-RHF Final Energy:  -232.22982477085529
    Total Energy =                       -232.2298247708552594
  Basis Set: CC-PVTZ
  Basis Set:
  Basis Set: CC-PVTZ
  Basis Set:
  @DF-RHF Final Energy:  -232.22983137786389
    Total Energy =                       -232.2298313778641727
  Basis Set: CC-PVTZ
  Basis Set:
  Basis Set: CC-PVTZ
  Basis Set:
  @DF-RHF Final Energy:  -232.22983241533180
    Total Energy =                       -232.2298324153317708
  Basis Set: CC-PVTZ
  Basis Set:
  Charge       = 0
  Multiplicity = 1
  Basis Set: CC-PVTZ
  Basis Set:

    Orbital Energies (a.u.)
    -----------------------

    Doubly Occupied:

       1A    -20.547593     2A    -11.267688     3A    -11.212067
       4A    -11.206099     5A    -11.191920     6A     -1.365755
       7A     -1.058848     8A     -0.969093     9A     -0.862119
      10A     -0.776299    11A     -0.706722    12A     -0.648562
      13A     -0.607478    14A     -0.578276    15A     -0.548066
      16A     -0.536786    17A     -0.509085    18A     -0.475862
      19A     -0.460892    20A     -0.446967    21A     -0.429048

  @DF-RHF Final Energy:  -232.22983251023101

   => Energetics <=

    Nuclear Repulsion Energy =            192.9743415478262136
    One-Electron Energy =                -697.5979048578038828
    Two-Electron Energy =                 272.3937307997468906
    DFT Exchange-Correlation Energy =       0.0000000000000000
    Empirical Dispersion Energy =           0.0000000000000000
    PCM Polarization Energy =               0.0000000000000000
    EFP Energy =                            0.0000000000000000
    Total Energy =                       -232.2298325102307786
    Molecular point group: c1
  Basis Set: CC-PVTZ
  Basis Set:

  -Total Gradient:
     Atom            X                  Y                   Z
    ------   -----------------  -----------------  -----------------
       1        0.000002074234    -0.000005672044     0.000001397938
       2        0.000864957544    -0.000249413270    -0.003133264358
       3       -0.001270570973    -0.000143081755     0.003510952838
       4        0.001038540071     0.002865359271     0.002836635941
       5       -0.000002131774    -0.000002281543     0.000003647263
       6       -0.000006759830    -0.000014575519     0.000006533602
       7        0.000001550783    -0.000003341546    -0.000001715082
       8       -0.000626075498    -0.002445654714    -0.003234233127
       9        0.000003185291     0.000003690361     0.000002402380
      10        0.000004572928     0.000002492703     0.000011339115
      11       -0.000002852608     0.000000177048    -0.000001765202
      12        0.000002656246     0.000000735764     0.000002020238
      13       -0.000010029838    -0.000003907921    -0.000002310765
      14        0.000001694762    -0.000003407522     0.000002522576
      15       -0.000000811342    -0.000001119311    -0.000004163354

  **** Optimization is complete! (in 8 steps) ****
    Final optimized geometry and variables:
    Molecular point group: c1

    Geometry (in Angstrom), charge = 0, multiplicity = 1:

    H            1.846770578864    -1.608667598116     0.614480096375
    O            1.087015872584    -1.115344362446     0.366855739453
    C            1.402837992685     0.252984874973     0.335082843627
    C            0.186370177291     1.102399654940    -0.070497100602
    H            2.201171630885     0.414497859452    -0.384457371368
    H            1.771706942833     0.579027424241     1.303005251197
    C           -0.935411019098     0.363032046626    -0.813693198455
    H            0.551121559512     1.880719606640    -0.731704024450
    H           -0.232706396409     1.593449771582     0.800907470770
    C           -1.906186864384    -0.391818516314     0.090689849859
    H           -0.505984994317    -0.318238340388    -1.538895034917
    H           -1.496604154148     1.100790416897    -1.379252801784
    H           -2.684631366333    -0.867549329107    -0.496204115100
    H           -1.400173879660    -1.155961655916     0.662413725823
    H           -2.390410883180     0.287680426962     0.785739892810

  Mulliken Charges: (a.u.)
   Center  Symbol    Alpha    Beta     Spin     Total
       1     H     0.39839  0.39839  0.00000  0.20323
       2     O     4.19123  4.19123  0.00000 -0.38246
       3     C     2.96797  2.96797  0.00000  0.06406
       4     C     3.10530  3.10530  0.00000 -0.21059
       5     H     0.47135  0.47135  0.00000  0.05730
       6     H     0.46944  0.46944  0.00000  0.06112
       7     C     3.08313  3.08313  0.00000 -0.16626
       8     H     0.44913  0.44913  0.00000  0.10175
       9     H     0.45403  0.45403  0.00000  0.09194
      10     C     3.14732  3.14732  0.00000 -0.29465
      11     H     0.45204  0.45204  0.00000  0.09592
      12     H     0.45094  0.45094  0.00000  0.09812
      13     H     0.45303  0.45303  0.00000  0.09394
      14     H     0.44599  0.44599  0.00000  0.10801
      15     H     0.46071  0.46071  0.00000  0.07858

   Total alpha = 21.00000, Total beta = 21.00000, Total charge = -0.00000
