  ==> Input File <==

--------------------------------------------------------------------------
set {
	reference rhf
	basis cc-pvtz
}

set_num_threads( 4 )
memory 2 gb

molecule MOL {
0 1

O	 -0.875433	 -1.369356	 -0.788822
C	 -0.628809	 -0.244949	 -0.457758
C	 -1.724848	 0.800762	 -0.453416
N	 0.622280	 0.144970	 -0.099307
H	 -1.486204	 1.625171	 -1.113525
H	 -2.628147	 0.322153	 -0.793235
H	 -1.884793	 1.200574	 0.540336
C	 1.664396	 -0.854993	 0.000772
C	 0.926560	 1.416669	 0.512207
H	 2.462727	 -0.615153	 -0.690869
H	 1.261798	 -1.821849	 -0.240651
H	 2.081615	 -0.891605	 1.003877
H	 1.914987	 1.732257	 0.203902
H	 0.231765	 2.181022	 0.209022
H	 0.919933	 1.356888	 1.598221

	symmetry c1
}
set optking {
	frozen_dihedral = ("
		2 4 8 10
	")
}

ee = optimize('scf')
oeprop('DIPOLE', 'QUADRUPOLE', 'MULLIKEN_CHARGES')
f=open( 'psi4out.xyz', 'w' )
f.write( "15  " )
f.write( str(ee) + "\n" )
f.write( MOL.save_string_xyz() )
f.close()
--------------------------------------------------------------------------

    Molecular point group: c1
  Charge       = 0
  Multiplicity = 1
  Basis Set: CC-PVTZ
  Basis Set:
  @DF-RHF Final Energy:  -286.13508674219582
    Total Energy =                       -286.1350867421957105
    Molecular point group: c1
  Basis Set: CC-PVTZ
  Basis Set:
  Basis Set: CC-PVTZ
  Basis Set:
  @DF-RHF Final Energy:  -286.13535179805967
    Total Energy =                       -286.1353517980599008
  Basis Set: CC-PVTZ
  Basis Set:
  Basis Set: CC-PVTZ
  Basis Set:
  @DF-RHF Final Energy:  -286.13536392155731
    Total Energy =                       -286.1353639215572571
  Basis Set: CC-PVTZ
  Basis Set:
  Basis Set: CC-PVTZ
  Basis Set:
  @DF-RHF Final Energy:  -286.13544652845036
    Total Energy =                       -286.1354465284501885
  Basis Set: CC-PVTZ
  Basis Set:
  @DF-RHF Final Energy:  -286.13547638770660
    Total Energy =                       -286.1354763877066034
  @DF-RHF Final Energy:  -286.13551015247697
    Total Energy =                       -286.1355101524769680
  @DF-RHF Final Energy:  -286.13553112158138
    Total Energy =                       -286.1355311215813231
  @DF-RHF Final Energy:  -286.13554121736900
    Total Energy =                       -286.1355412173690524
  @DF-RHF Final Energy:  -286.13554873931491
    Total Energy =                       -286.1355487393148564
  @DF-RHF Final Energy:  -286.13556434311590
    Total Energy =                       -286.1355643431155613
  Basis Set: CC-PVTZ
  Basis Set:
  @DF-RHF Final Energy:  -286.13557131843680
    Total Energy =                       -286.1355713184362912
  Basis Set: CC-PVTZ
  Basis Set:
  Basis Set: CC-PVTZ
  Basis Set:
  @DF-RHF Final Energy:  -286.13557402346379
    Total Energy =                       -286.1355740234635050
  Basis Set: CC-PVTZ
  Basis Set:
  Basis Set: CC-PVTZ
  Basis Set:
  @DF-RHF Final Energy:  -286.13557550861998
    Total Energy =                       -286.1355755086199224
  Basis Set: CC-PVTZ
  Basis Set:
  Charge       = 0
  Multiplicity = 1
  Basis Set: CC-PVTZ
  Basis Set:

    Orbital Energies (a.u.)
    -----------------------

    Doubly Occupied:

       1A    -20.501750     2A    -15.579146     3A    -11.335493
       4A    -11.264198     5A    -11.246391     6A    -11.226457
       7A     -1.386130     8A     -1.246802     9A     -1.015053
      10A     -0.973678    11A     -0.922024    12A     -0.739810
      13A     -0.683452    14A     -0.662290    15A     -0.653985
      16A     -0.591336    17A     -0.577899    18A     -0.566332
      19A     -0.560822    20A     -0.548985    21A     -0.530583
      22A     -0.507714    23A     -0.412600    24A     -0.369428

  @DF-RHF Final Energy:  -286.13557624411084

   => Energetics <=

    Nuclear Repulsion Energy =            252.7494940053641699
    One-Electron Energy =                -889.5654195652439284
    Two-Electron Energy =                 350.6803493157691491
    DFT Exchange-Correlation Energy =       0.0000000000000000
    Empirical Dispersion Energy =           0.0000000000000000
    PCM Polarization Energy =               0.0000000000000000
    EFP Energy =                            0.0000000000000000
    Total Energy =                       -286.1355762441106663
    Molecular point group: c1
  Basis Set: CC-PVTZ
  Basis Set:

  -Total Gradient:
     Atom            X                  Y                   Z
    ------   -----------------  -----------------  -----------------
       1        0.000024126477    -0.000034497367    -0.000004539916
       2        0.000041837637     0.000060647700     0.000019585991
       3       -0.000015176045     0.000014112418    -0.000047821390
       4       -0.000073377783    -0.000022803321     0.000009736279
       5       -0.000016296190    -0.000005529121     0.000005693811
       6        0.000003780547    -0.000002668063     0.000007452765
       7       -0.000008321042    -0.000001322250     0.000010349064
       8        0.000035294793     0.000044408637     0.000002415917
       9       -0.000003208282    -0.000005769672     0.000008567594
      10       -0.000010825646    -0.000021956960    -0.000026358951
      11       -0.000006254257    -0.000004899923     0.000003087659
      12       -0.000008794123     0.000003202315     0.000002385080
      13        0.000003012497    -0.000010069840    -0.000004665394
      14        0.000030452352    -0.000014644340     0.000001446546
      15        0.000003749065     0.000001789787     0.000012664945

  **** Optimization is complete! (in 14 steps) ****
    Final optimized geometry and variables:
    Molecular point group: c1

    Geometry (in Angstrom), charge = 0, multiplicity = 1:

    O           -0.873126367760    -1.336815008407    -0.642813942368
    C           -0.636445286203    -0.227309332980    -0.256132125074
    C           -1.726740171118     0.825194065894    -0.279726968468
    N            0.586576948856     0.129496608366     0.207824707724
    H           -1.457414149546     1.659665660807    -0.915050890969
    H           -2.614880091885     0.355939339497    -0.668744966812
    H           -1.930638287126     1.207578290502     0.712571985074
    C            1.650456456996    -0.849564050970     0.253335262683
    C            0.945590889062     1.438260646311     0.694554425135
    H            2.486422976688    -0.527497514712    -0.359539174751
    H            1.288125747871    -1.793071004403    -0.111216385563
    H            2.005584764274    -0.972827904446     1.271657426232
    H            1.783730703151     1.833657549918     0.129606293504
    H            0.131108675730     2.135199792212     0.611198223893
    H            1.242356526516     1.389888246788     1.737874251349

  Mulliken Charges: (a.u.)
   Center  Symbol    Alpha    Beta     Spin     Total
       1     O     4.22313  4.22313  0.00000 -0.44625
       2     C     2.84784  2.84784  0.00000  0.30431
       3     C     3.15988  3.15988  0.00000 -0.31976
       4     N     3.55715  3.55715  0.00000 -0.11430
       5     H     0.44983  0.44983  0.00000  0.10035
       6     H     0.42833  0.42833  0.00000  0.14334
       7     H     0.44987  0.44987  0.00000  0.10027
       8     C     3.10092  3.10092  0.00000 -0.20183
       9     C     3.09321  3.09321  0.00000 -0.18642
      10     H     0.45689  0.45689  0.00000  0.08621
      11     H     0.42467  0.42467  0.00000  0.15066
      12     H     0.45735  0.45735  0.00000  0.08530
      13     H     0.45292  0.45292  0.00000  0.09417
      14     H     0.44487  0.44487  0.00000  0.11026
      15     H     0.45315  0.45315  0.00000  0.09371

   Total alpha = 24.00000, Total beta = 24.00000, Total charge = -0.00000
