  ==> Input File <==

--------------------------------------------------------------------------
set {
	reference rhf
	basis cc-pvtz
}

set_num_threads( 4 )
memory 2 gb

molecule MOL {
0 1

H	 -2.644180	 -0.653737	 1.272255
C	 -2.092774	 -0.380414	 0.391915
O	 -0.808934	 -0.154049	 0.752536
F	 -2.163230	 -1.351640	 -0.507133
F	 -2.627232	 0.691260	 -0.169301
C	 0.085006	 0.250800	 -0.215074
C	 1.370439	 -0.548013	 -0.012993
Cl	 0.421658	 1.987697	 -0.091007
H	 -0.272219	 0.063284	 -1.212508
F	 2.385892	 0.072466	 -0.557864
F	 1.245810	 -1.713749	 -0.601927
F	 1.632685	 -0.752818	 1.248567

	symmetry c1
}
set optking {
	frozen_dihedral = ("
		10 7 6 9
	")
}

ee = optimize('scf')
oeprop('DIPOLE', 'QUADRUPOLE', 'MULLIKEN_CHARGES')
f=open( 'psi4out.xyz', 'w' )
f.write( "12  " )
f.write( str(ee) + "\n" )
f.write( MOL.save_string_xyz() )
f.close()
--------------------------------------------------------------------------

    Molecular point group: c1
  Charge       = 0
  Multiplicity = 1
  Basis Set: CC-PVTZ
  Basis Set:
  @DF-RHF Final Energy: -1146.61695362731780
    Total Energy =                      -1146.6169536273177982
    Molecular point group: c1
  Basis Set: CC-PVTZ
  Basis Set:
  Basis Set: CC-PVTZ
  Basis Set:
  @DF-RHF Final Energy: -1146.61732748123131
    Total Energy =                      -1146.6173274812317686
  Basis Set: CC-PVTZ
  Basis Set:
  Basis Set: CC-PVTZ
  Basis Set:
  @DF-RHF Final Energy: -1146.61774903177320
    Total Energy =                      -1146.6177490317729735
  Basis Set: CC-PVTZ
  Basis Set:
  Basis Set: CC-PVTZ
  Basis Set:
  @DF-RHF Final Energy: -1146.61776778373837
    Total Energy =                      -1146.6177677837367810
  Basis Set: CC-PVTZ
  Basis Set:
  Basis Set: CC-PVTZ
  Basis Set:
  @DF-RHF Final Energy: -1146.61777183155732
    Total Energy =                      -1146.6177718315570928
  Basis Set: CC-PVTZ
  Basis Set:
  Basis Set: CC-PVTZ
  Basis Set:
  @DF-RHF Final Energy: -1146.61777297834306
    Total Energy =                      -1146.6177729783439645
  Basis Set: CC-PVTZ
  Basis Set:
  Charge       = 0
  Multiplicity = 1
  Basis Set: CC-PVTZ
  Basis Set:

    Orbital Energies (a.u.)
    -----------------------

    Doubly Occupied:

       1A   -104.857536     2A    -26.356007     3A    -26.354386
       4A    -26.350605     5A    -26.342694     6A    -26.342563
       7A    -20.639660     8A    -11.520737     9A    -11.482967
      10A    -11.401062    11A    -10.583091    12A     -8.049898
      13A     -8.047890    14A     -8.047826    15A     -1.768025
      16A     -1.724042    17A     -1.663579    18A     -1.660086
      19A     -1.644152    20A     -1.485454    21A     -1.178286
      22A     -1.053175    23A     -0.989752    24A     -0.923950
      25A     -0.863638    26A     -0.857300    27A     -0.853430
      28A     -0.828979    29A     -0.817279    30A     -0.794380
      31A     -0.733273    32A     -0.730418    33A     -0.711744
      34A     -0.708247    35A     -0.685860    36A     -0.679882
      37A     -0.665006    38A     -0.663669    39A     -0.649534
      40A     -0.637604    41A     -0.598279    42A     -0.581114
      43A     -0.526134    44A     -0.478156    45A     -0.470591

  @DF-RHF Final Energy: -1146.61777310417347

   => Energetics <=

    Nuclear Repulsion Energy =            737.9474582419558146
    One-Electron Energy =               -3059.1265824111383154
    Two-Electron Energy =                1174.5613510650089211
    DFT Exchange-Correlation Energy =       0.0000000000000000
    Empirical Dispersion Energy =           0.0000000000000000
    PCM Polarization Energy =               0.0000000000000000
    EFP Energy =                            0.0000000000000000
    Total Energy =                      -1146.6177731041736934
    Molecular point group: c1
  Basis Set: CC-PVTZ
  Basis Set:

  -Total Gradient:
     Atom            X                  Y                   Z
    ------   -----------------  -----------------  -----------------
       1        0.000018001137    -0.000026073772    -0.000001940169
       2       -0.000036397825     0.000021396097     0.000099642740
       3       -0.000130680459    -0.000053088571     0.000010586531
       4        0.000051907677     0.000009177638    -0.000006971824
       5        0.000005046940    -0.000020499606    -0.000028218931
       6        0.004735582078     0.007020408125    -0.001497455598
       7       -0.002127330258    -0.004720995232    -0.005663544845
       8        0.000030086153    -0.000067342816    -0.000021139014
       9       -0.003514485067    -0.004942877879     0.002392369910
      10        0.000983508066     0.002739963090     0.004627609560
      11       -0.000006274466     0.000041841939    -0.000019910422
      12       -0.000008963975    -0.000001908861     0.000108972065

  **** Optimization is complete! (in 7 steps) ****
    Final optimized geometry and variables:
    Molecular point group: c1

    Geometry (in Angstrom), charge = 0, multiplicity = 1:

    H           -2.635197782654    -0.685686254649     1.253468150504
    C           -2.085345133586    -0.389159620335     0.379576232531
    O           -0.801322486501    -0.173817938820     0.742713337087
    F           -2.158462379415    -1.337698895637    -0.544456903272
    F           -2.622559739641     0.695810960406    -0.153201567562
    C            0.092381265850     0.263408026065    -0.218626205765
    C            1.377373805022    -0.551782611884    -0.022658616523
    CL           0.394179105155     1.997696426732    -0.063422425432
    H           -0.287473087777     0.055216803730    -1.203472798914
    F            2.405636408406     0.016893662249    -0.593688621019
    F            1.210232416709    -1.740418397742    -0.551825763020
    F            1.658127108724    -0.703852409241     1.244611474873

  Mulliken Charges: (a.u.)
   Center  Symbol    Alpha    Beta     Spin     Total
       1     H     0.45195  0.45195  0.00000  0.09610
       2     C     2.74027  2.74027  0.00000  0.51945
       3     O     4.15523  4.15523  0.00000 -0.31047
       4     F     4.61868  4.61868  0.00000 -0.23736
       5     F     4.61525  4.61525  0.00000 -0.23049
       6     C     2.94389  2.94389  0.00000  0.11223
       7     C     2.66939  2.66939  0.00000  0.66123
       8    CL     8.56996  8.56996  0.00000 -0.13991
       9     H     0.43096  0.43096  0.00000  0.13809
      10     F     4.59909  4.59909  0.00000 -0.19819
      11     F     4.60476  4.60476  0.00000 -0.20953
      12     F     4.60057  4.60057  0.00000 -0.20114

   Total alpha = 45.00000, Total beta = 45.00000, Total charge =  0.00000
