  ==> Input File <==

--------------------------------------------------------------------------
set {
	reference rhf
	basis cc-pvtz
}

set_num_threads( 4 )
memory 2 gb

molecule MOL {
0 1

H	 -1.752232	 -2.214755	 -0.011938
C	 -1.343852	 -1.221619	 -0.018179
N	 -0.058800	 -1.097635	 -0.261688
C	 -2.148159	 -0.124236	 0.219734
C	 0.449026	 0.119242	 -0.273393
H	 -3.196988	 -0.237571	 0.417076
N	 -1.655094	 1.094230	 0.209506
C	 -0.370318	 1.215445	 -0.035100
C	 1.924033	 0.265863	 -0.538106
H	 0.033214	 2.210441	 -0.046812
C	 2.384474	 -0.525881	 -1.763089
H	 2.137233	 1.317389	 -0.688442
H	 2.479460	 -0.053039	 0.335975
H	 3.441613	 -0.368506	 -1.940923
H	 1.840747	 -0.213491	 -2.644992
H	 2.221658	 -1.588826	 -1.624572

	symmetry c1
}
set optking {
	frozen_dihedral = ("
		12 9 5 3
	")
}

ee = optimize('scf')
oeprop('DIPOLE', 'QUADRUPOLE', 'MULLIKEN_CHARGES')
f=open( 'psi4out.xyz', 'w' )
f.write( "16  " )
f.write( str(ee) + "\n" )
f.write( MOL.save_string_xyz() )
f.close()
--------------------------------------------------------------------------

    Molecular point group: c1
  Charge       = 0
  Multiplicity = 1
  Basis Set: CC-PVTZ
  Basis Set:
  @DF-RHF Final Energy:  -340.87172136649087
    Total Energy =                       -340.8717213664907604
    Molecular point group: c1
  Basis Set: CC-PVTZ
  Basis Set:
  Basis Set: CC-PVTZ
  Basis Set:
  @DF-RHF Final Energy:  -340.87184109304434
    Total Energy =                       -340.8718410930445657
  Basis Set: CC-PVTZ
  Basis Set:
  Basis Set: CC-PVTZ
  Basis Set:
  @DF-RHF Final Energy:  -340.87186616730884
    Total Energy =                       -340.8718661673086672
  Basis Set: CC-PVTZ
  Basis Set:
  Basis Set: CC-PVTZ
  Basis Set:
  @DF-RHF Final Energy:  -340.87187245491958
    Total Energy =                       -340.8718724549195827
  Basis Set: CC-PVTZ
  Basis Set:
  Charge       = 0
  Multiplicity = 1
  Basis Set: CC-PVTZ
  Basis Set:

    Orbital Energies (a.u.)
    -----------------------

    Doubly Occupied:

       1A    -15.580678     2A    -15.575870     3A    -11.278888
       4A    -11.272798     5A    -11.268275     6A    -11.267984
       7A    -11.232305     8A    -11.213151     9A     -1.316293
      10A     -1.224315    11A     -1.085479    12A     -1.014900
      13A     -0.909327    14A     -0.893043    15A     -0.827497
      16A     -0.720106    17A     -0.711413    18A     -0.659521
      19A     -0.621459    20A     -0.603538    21A     -0.577198
      22A     -0.562035    23A     -0.523229    24A     -0.505078
      25A     -0.501450    26A     -0.488917    27A     -0.433602
      28A     -0.397480    29A     -0.346911

  @DF-RHF Final Energy:  -340.87187314218824

   => Energetics <=

    Nuclear Repulsion Energy =            350.5065241276391248
    One-Electron Energy =               -1155.5313102381910539
    Two-Electron Energy =                 464.1529129683636938
    DFT Exchange-Correlation Energy =       0.0000000000000000
    Empirical Dispersion Energy =           0.0000000000000000
    PCM Polarization Energy =               0.0000000000000000
    EFP Energy =                            0.0000000000000000
    Total Energy =                       -340.8718731421882921
    Molecular point group: c1
  Basis Set: CC-PVTZ
  Basis Set:

  -Total Gradient:
     Atom            X                  Y                   Z
    ------   -----------------  -----------------  -----------------
       1       -0.000020849449    -0.000000870263    -0.000006143959
       2        0.000194295462    -0.000084033849    -0.000035263276
       3       -0.000319012275    -0.000029244601    -0.000965892835
       4       -0.000022470633     0.000208965439     0.000042222682
       5        0.000225723401     0.000107438428     0.001210126983
       6       -0.000008245321    -0.000017113326    -0.000020252627
       7       -0.000177760428    -0.000135030901     0.000059267082
       8        0.000209572268    -0.000039130514    -0.000112203662
       9        0.000136620027     0.000137425182     0.000860077209
      10       -0.000008161293    -0.000001299837    -0.000008848791
      11        0.000011816369    -0.000005086758     0.000002551985
      12       -0.000222929857    -0.000127562100    -0.001038552651
      13        0.000006983169    -0.000006139042     0.000007182018
      14       -0.000003989099     0.000013291243    -0.000004449091
      15       -0.000002346970     0.000005170061     0.000004942399
      16        0.000000754630    -0.000026779161     0.000005236534

  **** Optimization is complete! (in 5 steps) ****
    Final optimized geometry and variables:
    Molecular point group: c1

    Geometry (in Angstrom), charge = 0, multiplicity = 1:

    H           -1.705711954332    -2.171963169667     0.323907273601
    C           -1.295282266089    -1.179737141220     0.317051032448
    N           -0.011823993085    -1.058226174862     0.061471758948
    C           -2.094055341035    -0.082126569395     0.566638254759
    C            0.500612090775     0.155669515877     0.051862075450
    H           -3.141173824433    -0.193076704829     0.773722849716
    N           -1.597313751384     1.135392377586     0.555356148863
    C           -0.315158315660     1.253498619399     0.299381930423
    C            1.974957485115     0.313059525877    -0.223758129235
    H            0.090632388266     2.247449122074     0.286526949733
    C            2.459269514774    -0.483470604876    -1.433563473858
    H            2.193185631843     1.364211976236    -0.370036569877
    H            2.523048070114    -0.002822209536     0.658463280525
    H            3.523113625129    -0.336487777518    -1.576870265913
    H            1.951433625675    -0.164698949605    -2.336787222144
    H            2.273910567287    -1.539659562009    -1.300044056740

  Mulliken Charges: (a.u.)
   Center  Symbol    Alpha    Beta     Spin     Total
       1     H     0.41433  0.41433  0.00000  0.17134
       2     C     3.04255  3.04255  0.00000 -0.08509
       3     N     3.59391  3.59391  0.00000 -0.18782
       4     C     3.04788  3.04788  0.00000 -0.09577
       5     C     2.94186  2.94186  0.00000  0.11628
       6     H     0.41367  0.41367  0.00000  0.17265
       7     N     3.58662  3.58662  0.00000 -0.17324
       8     C     3.07820  3.07820  0.00000 -0.15640
       9     C     3.07528  3.07528  0.00000 -0.15055
      10     H     0.41640  0.41640  0.00000  0.16719
      11     C     3.14488  3.14488  0.00000 -0.28976
      12     H     0.44933  0.44933  0.00000  0.10134
      13     H     0.44750  0.44750  0.00000  0.10500
      14     H     0.45023  0.45023  0.00000  0.09954
      15     H     0.45422  0.45422  0.00000  0.09157
      16     H     0.44315  0.44315  0.00000  0.11371

   Total alpha = 29.00000, Total beta = 29.00000, Total charge =  0.00000
