  ==> Input File <==

--------------------------------------------------------------------------
set {
	reference rhf
	basis 6-31G*
}

set_num_threads( 1 )
memory 2 gb

molecule MOL {
0 1

H	 1.015944	 -1.110492	 -4.099708
O	 1.948507	 -0.956091	 -4.060258
C	 2.194512	 0.417105	 -3.893318
C	 1.862111	 0.921513	 -2.493386
H	 3.250291	 0.552956	 -4.089655
H	 1.650154	 0.995185	 -4.639158
C	 0.378655	 0.818381	 -2.130631
H	 2.453411	 0.359696	 -1.774990
H	 2.180279	 1.960342	 -2.422880
C	 0.069131	 1.382258	 -0.741006
H	 0.071400	 -0.222706	 -2.176430
H	 -0.213707	 1.353255	 -2.873164
C	 -1.416367	 1.381494	 -0.362015
H	 0.631187	 0.823722	 0.005304
H	 0.436075	 2.405368	 -0.693078
C	 -2.037799	 -0.007733	 -0.193645
H	 -1.531060	 1.928016	 0.571781
H	 -1.978211	 1.939864	 -1.109271
C	 -3.489788	 0.042957	 0.286558
H	 -1.445314	 -0.582327	 0.516929
H	 -1.997889	 -0.552084	 -1.134066
C	 -4.216917	 1.317354	 -0.141063
H	 -4.025645	 -0.823308	 -0.095450
H	 -3.513059	 -0.038752	 1.371301
H	 -4.239342	 1.411634	 -1.223113
H	 -5.243387	 1.322503	 0.212445
H	 -3.726170	 2.201406	 0.256408

	symmetry c1
}
set optking {
	frozen_dihedral = ("
		14 10 7 4,
		14 10 13 16,
		10 7 4 8,
		8 4 3 2,
		10 13 16 20,
		4 3 2 1
	")
}

ee = energy('scf')
oeprop('DIPOLE', 'QUADRUPOLE', 'MULLIKEN_CHARGES')
f=open( 'psi4out.xyz', 'w' )
f.write( "27  " )
f.write( str(ee) + "\n" )
f.write( MOL.save_string_xyz() )
f.close()
--------------------------------------------------------------------------

    Molecular point group: c1

    Geometry (in Angstrom), charge = 0, multiplicity = 1:

       Center              X                  Y                   Z               Mass
    ------------   -----------------  -----------------  -----------------  -----------------
           H          1.515909134741    -1.679287134039    -2.527923122835     1.007825032070
           O          2.448472134741    -1.524886134039    -2.488473122835    15.994914619560
           C          2.694477134741    -0.151690134039    -2.321533122835    12.000000000000
           C          2.362076134741     0.352717865961    -0.921601122835    12.000000000000
           H          3.750256134741    -0.015839134039    -2.517870122835     1.007825032070
           H          2.150119134741     0.426389865961    -3.067373122835     1.007825032070
           C          0.878620134741     0.249585865961    -0.558846122835    12.000000000000
           H          2.953376134741    -0.209099134039    -0.203205122835     1.007825032070
           H          2.680244134741     1.391546865961    -0.851095122835     1.007825032070
           C          0.569096134741     0.813462865961     0.830778877165    12.000000000000
           H          0.571365134741    -0.791501134039    -0.604645122835     1.007825032070
           H          0.286258134741     0.784459865961    -1.301379122835     1.007825032070
           C         -0.916401865259     0.812698865961     1.209769877165    12.000000000000
           H          1.131152134741     0.254926865961     1.577088877165     1.007825032070
           H          0.936040134741     1.836572865961     0.878706877165     1.007825032070
           C         -1.537833865259    -0.576528134039     1.378139877165    12.000000000000
           H         -1.031094865259     1.359220865961     2.143565877165     1.007825032070
           H         -1.478245865259     1.371068865961     0.462513877165     1.007825032070
           C         -2.989822865259    -0.525838134039     1.858342877165    12.000000000000
           H         -0.945348865259    -1.151122134039     2.088713877165     1.007825032070
           H         -1.497923865259    -1.120879134039     0.437718877165     1.007825032070
           C         -3.716951865259     0.748558865961     1.430721877165    12.000000000000
           H         -3.525679865259    -1.392103134039     1.476334877165     1.007825032070
           H         -3.013093865259    -0.607547134039     2.943085877165     1.007825032070
           H         -3.739376865259     0.842838865961     0.348671877165     1.007825032070
           H         -4.743421865259     0.753707865961     1.784229877165     1.007825032070
           H         -3.226204865259     1.632610865961     1.828192877165     1.007825032070

  Charge       = 0
  Multiplicity = 1
  Basis Set: 6-31G*
  Basis Set:

    Orbital Energies (a.u.)
    -----------------------

    Doubly Occupied:

       1A    -20.552159     2A    -11.266899     3A    -11.219481
       4A    -11.216502     5A    -11.215340     6A    -11.214980
       7A    -11.214587     8A    -11.213501     9A    -11.208164
      10A     -1.358902    11A     -1.096781    12A     -1.062582
      13A     -1.007355    14A     -0.943963    15A     -0.896281
      16A     -0.832156    17A     -0.798505    18A     -0.761997
      19A     -0.693426    20A     -0.651927    21A     -0.637237
      22A     -0.614861    23A     -0.607761    24A     -0.588680
      25A     -0.577195    26A     -0.557354    27A     -0.536018
      28A     -0.524575    29A     -0.512963    30A     -0.497991
      31A     -0.481886    32A     -0.476091    33A     -0.469927
      34A     -0.452840    35A     -0.446876    36A     -0.441235
      37A     -0.422890

  @DF-RHF Final Energy:  -388.27279714493989

   => Energetics <=

    Nuclear Repulsion Energy =            465.5972530923316981
    One-Electron Energy =               -1449.1967439916420517
    Two-Electron Energy =                 595.3266937543714903
    DFT Exchange-Correlation Energy =       0.0000000000000000
    Empirical Dispersion Energy =           0.0000000000000000
    PCM Polarization Energy =               0.0000000000000000
    EFP Energy =                            0.0000000000000000
    Total Energy =                       -388.2727971449388633

  Mulliken Charges: (a.u.)
   Center  Symbol    Alpha    Beta     Spin     Total
       1     H     0.27993  0.27993  0.00000  0.44015
       2     O     4.37096  4.37096  0.00000 -0.74191
       3     C     2.99735  2.99735  0.00000  0.00530
       4     C     3.16090  3.16090  0.00000 -0.32181
       5     H     0.41448  0.41448  0.00000  0.17104
       6     H     0.43211  0.43211  0.00000  0.13579
       7     C     3.16330  3.16330  0.00000 -0.32659
       8     H     0.41498  0.41498  0.00000  0.17005
       9     H     0.42439  0.42439  0.00000  0.15122
      10     C     3.15004  3.15004  0.00000 -0.30009
      11     H     0.42291  0.42291  0.00000  0.15419
      12     H     0.42573  0.42573  0.00000  0.14853
      13     C     3.16119  3.16119  0.00000 -0.32237
      14     H     0.42213  0.42213  0.00000  0.15575
      15     H     0.42196  0.42196  0.00000  0.15608
      16     C     3.15411  3.15411  0.00000 -0.30821
      17     H     0.42075  0.42075  0.00000  0.15851
      18     H     0.41975  0.41975  0.00000  0.16051
      19     C     3.15279  3.15279  0.00000 -0.30558
      20     H     0.42091  0.42091  0.00000  0.15818
      21     H     0.42288  0.42288  0.00000  0.15424
      22     C     3.24591  3.24591  0.00000 -0.49183
      23     H     0.42041  0.42041  0.00000  0.15919
      24     H     0.42157  0.42157  0.00000  0.15687
      25     H     0.42229  0.42229  0.00000  0.15541
      26     H     0.41851  0.41851  0.00000  0.16299
      27     H     0.41779  0.41779  0.00000  0.16442

   Total alpha = 37.00000, Total beta = 37.00000, Total charge =  0.00000
