                              Psi4 1.0.54 Driver

  ==> Input File <==

--------------------------------------------------------------------------
set {
	reference rhf
	basis cc-pvtz
}

set_num_threads( 4 )
memory 2 gb

molecule MOL {
0 1

H	 -2.498963	 -0.741158	 -0.729149
O	 -2.346257	 -0.289210	 0.080372
C	 -1.183935	 0.486039	 -0.009831
C	 0.062853	 -0.375310	 0.027457
H	 -1.178881	 1.094526	 -0.908634
H	 -1.184406	 1.155156	 0.838676
O	 -0.293065	 -1.639629	 0.481626
H	 0.805719	 0.073660	 0.688873
H	 0.499861	 -0.425500	 -0.967571
C	 0.754425	 -2.551122	 0.537905
H	 1.537307	 -2.215579	 1.214501
H	 0.358715	 -3.488207	 0.901185
H	 1.193718	 -2.712585	 -0.443661

	symmetry c1
}
set optking {
	frozen_dihedral = ("
		8 4 3 5
	")
}

ee,wfn = optimize('scf', return_wfn=True)
oeprop( wfn, 'DIPOLE', 'QUADRUPOLE', 'MULLIKEN_CHARGES')
f=open( 'psi4out.xyz', 'w' )
f.write( "13  " )
f.write( str(ee) + "\n" )
f.write( MOL.save_string_xyz() )
f.close()
--------------------------------------------------------------------------

    Molecular point group: c1
  Charge       = 0
  Multiplicity = 1
  Basis Set: CC-PVTZ
  Basis Set:
  @DF-RHF Final Energy:  -268.04968386689109
    Total Energy =                       -268.0496838668914279
    Molecular point group: c1
  Basis Set: CC-PVTZ
  Basis Set:
  Basis Set: CC-PVTZ
  Basis Set:
  @DF-RHF Final Energy:  -267.90211149766088
    Total Energy =                       -267.9021114976607123
  Basis Set: CC-PVTZ
  Basis Set:
  Basis Set: CC-PVTZ
  Basis Set:
  @DF-RHF Final Energy:  -268.00786977321445
    Total Energy =                       -268.0078697732145088
  Basis Set: CC-PVTZ
  Basis Set:
  Basis Set: CC-PVTZ
  Basis Set:
  @DF-RHF Final Energy:  -268.04980096894138
    Total Energy =                       -268.0498009689415539
  Basis Set: CC-PVTZ
  Basis Set:
  @DF-RHF Final Energy:  -268.05190129552852
    Total Energy =                       -268.0519012955283529
  @DF-RHF Final Energy:  -268.05295959725356
    Total Energy =                       -268.0529595972535617
  @DF-RHF Final Energy:  -268.05382229037576
    Total Energy =                       -268.0538222903758196
  @DF-RHF Final Energy:  -268.05411883822489
    Total Energy =                       -268.0541188382248947
  @DF-RHF Final Energy:  -268.05553925456024
    Total Energy =                       -268.0555392545603581
  @DF-RHF Final Energy:  -268.05690931990239
    Total Energy =                       -268.0569093199023882
  @DF-RHF Final Energy:  -268.05751364257111
    Total Energy =                       -268.0575136425710525
  @DF-RHF Final Energy:  -268.05691543073937
    Total Energy =                       -268.0569154307393660
  @DF-RHF Final Energy:  -268.05808906959828
    Total Energy =                       -268.0580890695979974
  Basis Set: CC-PVTZ
  Basis Set:
  @DF-RHF Final Energy:  -268.05814860237535
    Total Energy =                       -268.0581486023754110
  Basis Set: CC-PVTZ
  Basis Set:
  Basis Set: CC-PVTZ
  Basis Set:
  @DF-RHF Final Energy:  -268.05815176994633
    Total Energy =                       -268.0581517699463916
  Basis Set: CC-PVTZ
  Basis Set:
  Basis Set: CC-PVTZ
  Basis Set:
  @DF-RHF Final Energy:  -268.05816644048105
    Total Energy =                       -268.0581664404810454
  Basis Set: CC-PVTZ
  Basis Set:
  Charge       = 0
  Multiplicity = 1
  Basis Set: CC-PVTZ
  Basis Set:

    Orbital Energies (a.u.)
    -----------------------

    Doubly Occupied:

       1A    -20.564184     2A    -20.534529     3A    -11.276648
       4A    -11.273984     5A    -11.267191     6A     -1.401556
       7A     -1.351933     8A     -1.017264     9A     -0.925726
      10A     -0.836243    11A     -0.703824    12A     -0.688242
      13A     -0.667304    14A     -0.633856    15A     -0.594703
      16A     -0.570632    17A     -0.550240    18A     -0.495268
      19A     -0.478957    20A     -0.446258    21A     -0.420168

  @DF-RHF Final Energy:  -268.05816662562108

   => Energetics <=

    Nuclear Repulsion Energy =            195.4249967063236397
    One-Electron Energy =                -753.5689027118950207
    Two-Electron Energy =                 290.0857393799503257
    DFT Exchange-Correlation Energy =       0.0000000000000000
    Empirical Dispersion Energy =           0.0000000000000000
    PCM Polarization Energy =               0.0000000000000000
    EFP Energy =                            0.0000000000000000
    Total Energy =                       -268.0581666256210269
    Molecular point group: c1
  Basis Set: CC-PVTZ
  Basis Set:

  -Total Gradient:
     Atom            X                  Y                   Z
    ------   -----------------  -----------------  -----------------
       1        0.000000275592    -0.000010360320     0.000014834846
       2        0.000014441238     0.000021335266    -0.000018481962
       3        0.000362954849     0.006135840869     0.007456100926
       4        0.006654083343     0.003728023256    -0.005976320350
       5       -0.001388394759    -0.005794081080    -0.005315783507
       6       -0.000008137414     0.000006144225     0.000000668215
       7       -0.000030725567    -0.000011241574    -0.000009286091
       8       -0.005620059784    -0.004089430078     0.003853681212
       9        0.000006329624    -0.000000516961    -0.000002487629
      10        0.000006674965     0.000017099125    -0.000004191197
      11        0.000002130700    -0.000003392592     0.000004364950
      12       -0.000005397717     0.000006130246    -0.000003305363
      13        0.000005824929    -0.000005550379     0.000000205949

  **** Optimization is complete! (in 17 steps) ****
    Final optimized geometry and variables:
    Molecular point group: c1

    Geometry (in Angstrom), charge = 0, multiplicity = 1:

    H           -1.504018994062    -0.190779881400    -0.683039611181
    O           -1.362068324497     0.603813088839    -1.166649444612
    C           -0.395613950832     1.365964765276    -0.507958203633
    C            0.688467833776     0.499896009139     0.152357656788
    H            0.058555743832     1.969053584462    -1.282838835386
    H           -0.858847301676     2.012717319511     0.229848080268
    O            0.136530723390    -0.748854503530     0.455530603663
    H            0.996321834334     0.958334867881     1.089004364516
    H            1.550632952745     0.376721352753    -0.496087222300
    C            1.009046381925    -1.630406063869     1.083783031064
    H            1.352223552333    -1.236555997549     2.037295431794
    H            0.477120398008    -2.553931178878     1.258968716853
    H            1.876679477723    -1.837166462890     0.462477037462

  Mulliken Charges: (a.u.)
   Center  Symbol    Alpha    Beta     Spin     Total
       1     H     0.38254  0.38254  0.00000  0.23492
       2     O     4.20855  4.20855  0.00000 -0.41709
       3     C     2.95911  2.95911  0.00000  0.08178
       4     C     2.97236  2.97236  0.00000  0.05529
       5     H     0.46486  0.46486  0.00000  0.07028
       6     H     0.47352  0.47352  0.00000  0.05295
       7     O     4.18328  4.18328  0.00000 -0.36655
       8     H     0.47173  0.47173  0.00000  0.05654
       9     H     0.47011  0.47011  0.00000  0.05978
      10     C     3.02984  3.02984  0.00000 -0.05968
      11     H     0.46921  0.46921  0.00000  0.06157
      12     H     0.44617  0.44617  0.00000  0.10766
      13     H     0.46872  0.46872  0.00000  0.06256

   Total alpha = 21.00000, Total beta = 21.00000, Total charge = -0.00000

*** Psi4 exiting successfully. Buy a developer a beer!
