                              Psi4 1.0.54 Driver

  ==> Input File <==

--------------------------------------------------------------------------
set {
	reference rhf
	basis cc-pvtz
}

set_num_threads( 4 )
memory 2 gb

molecule MOL {
0 1

H	 -0.037898	 -3.662188	 0.640306
O	 0.279637	 -2.809128	 0.384970
C	 -0.742504	 -1.958421	 0.397140
C	 -0.318151	 -0.570512	 0.000144
O	 -1.837394	 -2.294297	 0.691029
C	 -1.454884	 0.441630	 -0.000560
H	 0.474812	 -0.271956	 0.678351
H	 0.143723	 -0.644924	 -0.979159
C	 -2.822577	 -0.232186	 0.000063
H	 -1.359760	 1.084704	 -0.867077
H	 -1.359641	 1.085996	 0.864983
H	 -2.954352	 -0.858985	 -0.875745
H	 -3.615886	 0.505352	 0.000019
H	 -2.953878	 -0.858359	 0.876394

	symmetry c1
}
set optking {
	frozen_dihedral = ("
		7 4 6 10
	")
}

ee,wfn = optimize('scf', return_wfn=True)
oeprop( wfn, 'DIPOLE', 'QUADRUPOLE', 'MULLIKEN_CHARGES')
f=open( 'psi4out.xyz', 'w' )
f.write( "14  " )
f.write( str(ee) + "\n" )
f.write( MOL.save_string_xyz() )
f.close()
--------------------------------------------------------------------------

    Molecular point group: c1
  Charge       = 0
  Multiplicity = 1
  Basis Set: CC-PVTZ
  Basis Set:
  @DF-RHF Final Energy:  -305.96731807152435
    Total Energy =                       -305.9673180715246872
    Molecular point group: c1
  Basis Set: CC-PVTZ
  Basis Set:
  Basis Set: CC-PVTZ
  Basis Set:
  @DF-RHF Final Energy:  -305.98499461487188
    Total Energy =                       -305.9849946148721074
  Basis Set: CC-PVTZ
  Basis Set:
  Basis Set: CC-PVTZ
  Basis Set:
  @DF-RHF Final Energy:  -305.98794853630415
    Total Energy =                       -305.9879485363040885
  Basis Set: CC-PVTZ
  Basis Set:
  Basis Set: CC-PVTZ
  Basis Set:
  @DF-RHF Final Energy:  -305.98648843204262
    Total Energy =                       -305.9864884320426768
  Basis Set: CC-PVTZ
  Basis Set:
  @DF-RHF Final Energy:  -305.98972829125745
    Total Energy =                       -305.9897282912574497
  @DF-RHF Final Energy:  -305.99011583611195
    Total Energy =                       -305.9901158361119542
  @DF-RHF Final Energy:  -305.99034400083059
    Total Energy =                       -305.9903440008305893
  @DF-RHF Final Energy:  -305.99113400324427
    Total Energy =                       -305.9911340032444969
  @DF-RHF Final Energy:  -305.99149713848635
    Total Energy =                       -305.9914971384862383
  @DF-RHF Final Energy:  -305.99163139224027
    Total Energy =                       -305.9916313922403219
  @DF-RHF Final Energy:  -305.99170944749153
    Total Energy =                       -305.9917094474915302
  @DF-RHF Final Energy:  -305.99176778555238
    Total Energy =                       -305.9917677855521561
  @DF-RHF Final Energy:  -305.99190711663778
    Total Energy =                       -305.9919071166380036
  @DF-RHF Final Energy:  -305.99124361663087
    Total Energy =                       -305.9912436166309249
  @DF-RHF Final Energy:  -305.99220140259479
    Total Energy =                       -305.9922014025951285
  @DF-RHF Final Energy:  -305.99241361537611
    Total Energy =                       -305.9924136153758809
  @DF-RHF Final Energy:  -305.99259469355502
    Total Energy =                       -305.9925946935551337
  @DF-RHF Final Energy:  -305.99270702525109
    Total Energy =                       -305.9927070252509793
  @DF-RHF Final Energy:  -305.99241540523053
    Total Energy =                       -305.9924154052307586
  @DF-RHF Final Energy:  -305.99273435487419
    Total Energy =                       -305.9927343548743011
  Basis Set: CC-PVTZ
  Basis Set:
  @DF-RHF Final Energy:  -305.99272075792572
    Total Energy =                       -305.9927207579257242
  Basis Set: CC-PVTZ
  Basis Set:
  Basis Set: CC-PVTZ
  Basis Set:
  @DF-RHF Final Energy:  -305.99275824465553
    Total Energy =                       -305.9927582446555334
  Basis Set: CC-PVTZ
  Basis Set:
  Basis Set: CC-PVTZ
  Basis Set:
  @DF-RHF Final Energy:  -305.99275976426640
    Total Energy =                       -305.9927597642664523
  Basis Set: CC-PVTZ
  Basis Set:
  Charge       = 0
  Multiplicity = 1
  Basis Set: CC-PVTZ
  Basis Set:

    Orbital Energies (a.u.)
    -----------------------

    Doubly Occupied:

       1A    -20.605752     2A    -20.537692     3A    -11.372801
       4A    -11.238202     5A    -11.234596     6A    -11.214565
       7A     -1.477728     8A     -1.367753     9A     -1.082017
      10A     -0.977595    11A     -0.865791    12A     -0.796967
      13A     -0.706302    14A     -0.682198    15A     -0.654298
      16A     -0.633423    17A     -0.588659    18A     -0.572877
      19A     -0.562422    20A     -0.506169    21A     -0.498576
      22A     -0.485561    23A     -0.474688    24A     -0.440981

  @DF-RHF Final Energy:  -305.99275979363642

   => Energetics <=

    Nuclear Repulsion Energy =            247.3831716944751236
    One-Electron Energy =                -907.5966339411135095
    Two-Electron Energy =                 354.2207024530021613
    DFT Exchange-Correlation Energy =       0.0000000000000000
    Empirical Dispersion Energy =           0.0000000000000000
    PCM Polarization Energy =               0.0000000000000000
    EFP Energy =                            0.0000000000000000
    Total Energy =                       -305.9927597936362531
    Molecular point group: c1
  Basis Set: CC-PVTZ
  Basis Set:

  -Total Gradient:
     Atom            X                  Y                   Z
    ------   -----------------  -----------------  -----------------
       1        0.000001571096    -0.000002006558    -0.000005310054
       2       -0.000007086410    -0.000008236785     0.000008425651
       3        0.000003546333     0.000011494361     0.000017243752
       4        0.002266557753     0.003176251985    -0.004319475191
       5       -0.000001555379     0.000008043234    -0.000026072510
       6        0.002237564902     0.002552250737     0.004500464560
       7       -0.002223730753    -0.003043102002     0.002968909886
       8        0.000001860321    -0.000000050139     0.000004150213
       9        0.000005879839     0.000003323870    -0.000003525935
      10       -0.002284138643    -0.002700127524    -0.003149980227
      11       -0.000002363524     0.000002973001    -0.000000009323
      12       -0.000000204655     0.000001986085     0.000003502296
      13        0.000001747514    -0.000001048179    -0.000001568603
      14        0.000000351608    -0.000001752091     0.000003245485

  **** Optimization is complete! (in 24 steps) ****
    Final optimized geometry and variables:
    Molecular point group: c1

    Geometry (in Angstrom), charge = 0, multiplicity = 1:

    H            0.157677079932    -2.290528173411    -0.700798680849
    O            0.394920116531    -1.407258416902    -0.941914071658
    C            0.513233901213    -0.687899928794     0.169101904999
    C            0.870790880788     0.752720372221    -0.092683211738
    O            0.344383702239    -1.158294595915     1.241971017273
    C           -0.349603840342     1.708537524754    -0.027088294687
    H            1.568951895285     1.007658854865     0.691929312863
    H            1.362056700020     0.822269008520    -1.051415457996
    C           -1.711631535324     1.063755708437    -0.284764227675
    H           -0.206390897944     2.470249294187    -0.783647312811
    H           -0.365859639190     2.199552642396     0.936357599907
    H           -1.743381682951     0.576887373883    -1.252676276731
    H           -2.485814781544     1.821382142075    -0.270294775406
    H           -1.957096255522     0.328690443185     0.471694387598

  Mulliken Charges: (a.u.)
   Center  Symbol    Alpha    Beta     Spin     Total
       1     H     0.38023  0.38023  0.00000  0.23955
       2     O     4.16530  4.16530  0.00000 -0.33059
       3     C     2.79221  2.79221  0.00000  0.41558
       4     C     3.10185  3.10185  0.00000 -0.20371
       5     O     4.20205  4.20205  0.00000 -0.40410
       6     C     3.08505  3.08505  0.00000 -0.17010
       7     H     0.43660  0.43660  0.00000  0.12680
       8     H     0.43921  0.43921  0.00000  0.12157
       9     C     3.15912  3.15912  0.00000 -0.31825
      10     H     0.44959  0.44959  0.00000  0.10082
      11     H     0.44640  0.44640  0.00000  0.10721
      12     H     0.44894  0.44894  0.00000  0.10212
      13     H     0.44634  0.44634  0.00000  0.10732
      14     H     0.44711  0.44711  0.00000  0.10578

   Total alpha = 24.00000, Total beta = 24.00000, Total charge = -0.00000

*** Psi4 exiting successfully. Buy a developer a beer!
