  ==> Input File <==

--------------------------------------------------------------------------
set {
	reference rhf
	basis cc-pvtz
}

set_num_threads( 4 )
memory 2 gb

molecule MOL {
0 1

H	 1.319995	 -1.127524	 0.649415
C	 0.788096	 -0.429819	 0.000000
N	 -0.537714	 -0.645117	 0.000000
O	 1.360011	 0.410591	 -0.619147
C	 -1.522613	 0.412524	 0.000000
H	 -0.845894	 -1.585866	 0.000000
H	 -2.150256	 0.356137	 -0.880771
H	 -1.005621	 1.357208	 0.000000
H	 -2.150256	 0.356137	 0.880771

	symmetry c1
}
set optking {
	frozen_dihedral = ("
		1 2 3 6
	")
}

ee = optimize('scf')
oeprop('DIPOLE', 'QUADRUPOLE', 'MULLIKEN_CHARGES')
f=open( 'psi4out.xyz', 'w' )
f.write( "9  " )
f.write( str(ee) + "\n" )
f.write( MOL.save_string_xyz() )
f.close()
--------------------------------------------------------------------------

    Molecular point group: c1
  Charge       = 0
  Multiplicity = 1
  Basis Set: CC-PVTZ
  Basis Set:
  @DF-RHF Final Energy:  -208.02688393307454
    Total Energy =                       -208.0268839330745436
    Molecular point group: c1
  Basis Set: CC-PVTZ
  Basis Set:
  Basis Set: CC-PVTZ
  Basis Set:
  @DF-RHF Final Energy:  -208.03202008340588
    Total Energy =                       -208.0320200834058255
  Basis Set: CC-PVTZ
  Basis Set:
  Basis Set: CC-PVTZ
  Basis Set:
  @DF-RHF Final Energy:  -208.03676991204964
    Total Energy =                       -208.0367699120496354
  Basis Set: CC-PVTZ
  Basis Set:
  Basis Set: CC-PVTZ
  Basis Set:
  @DF-RHF Final Energy:  -208.03903725680942
    Total Energy =                       -208.0390372568094790
  Basis Set: CC-PVTZ
  Basis Set:
  @DF-RHF Final Energy:  -208.03945546070605
    Total Energy =                       -208.0394554607060797
  @DF-RHF Final Energy:  -208.03979868361137
    Total Energy =                       -208.0397986836113660
  Basis Set: CC-PVTZ
  Basis Set:
  @DF-RHF Final Energy:  -208.04022992757814
    Total Energy =                       -208.0402299275781104
  Basis Set: CC-PVTZ
  Basis Set:
  Basis Set: CC-PVTZ
  Basis Set:
  @DF-RHF Final Energy:  -208.04030958453171
    Total Energy =                       -208.0403095845316841
  Basis Set: CC-PVTZ
  Basis Set:
  Basis Set: CC-PVTZ
  Basis Set:
  @DF-RHF Final Energy:  -208.04031771678831
    Total Energy =                       -208.0403177167882518
  Basis Set: CC-PVTZ
  Basis Set:
  Charge       = 0
  Multiplicity = 1
  Basis Set: CC-PVTZ
  Basis Set:

    Orbital Energies (a.u.)
    -----------------------

    Doubly Occupied:

       1A    -20.528603     2A    -15.582583     3A    -11.339813
       4A    -11.256188     5A     -1.403513     6A     -1.237405
       7A     -0.962840     8A     -0.806411     9A     -0.743640
      10A     -0.649390    11A     -0.638024    12A     -0.586163
      13A     -0.553783    14A     -0.538246    15A     -0.435998
      16A     -0.405935

  @DF-RHF Final Energy:  -208.04031810914870

   => Energetics <=

    Nuclear Repulsion Energy =            123.0158738178934215
    One-Electron Energy =                -526.7753099979810258
    Two-Electron Energy =                 195.7191180709388618
    DFT Exchange-Correlation Energy =       0.0000000000000000
    Empirical Dispersion Energy =           0.0000000000000000
    PCM Polarization Energy =               0.0000000000000000
    EFP Energy =                            0.0000000000000000
    Total Energy =                       -208.0403181091487568
    Molecular point group: c1
  Basis Set: CC-PVTZ
  Basis Set:

  -Total Gradient:
     Atom            X                  Y                   Z
    ------   -----------------  -----------------  -----------------
       1        0.001761841776     0.003609358515     0.005404039681
       2       -0.002999228708    -0.004421928087    -0.009150716256
       3        0.003967234036    -0.000085624200     0.010572343014
       4       -0.000051924923    -0.000048747471     0.000043170032
       5       -0.000029868888     0.000059942557    -0.000031128375
       6       -0.002662892799     0.000904317342    -0.006847236210
       7       -0.000023953774     0.000022042101    -0.000015892716
       8        0.000009867292    -0.000024950682     0.000013802636
       9        0.000028925988    -0.000014410073     0.000011618195

  **** Optimization is complete! (in 10 steps) ****
    Final optimized geometry and variables:
    Molecular point group: c1

    Geometry (in Angstrom), charge = 0, multiplicity = 1:

    H            1.430615555468    -1.251431473088     0.355613583201
    C            0.785770404885    -0.437640278457     0.019344048646
    N           -0.482147760630    -0.538559657162     0.502205903285
    O            1.208180696345     0.479833927492    -0.603430895848
    C           -1.454068441993     0.470008878783     0.117745287722
    H           -0.838342870452    -1.467219782206     0.514127012645
    H           -1.660178143481     0.466162062450    -0.946595720676
    H           -1.078899939208     1.445516761878     0.384061929960
    H           -2.371458903674     0.289188932951     0.659555441420

  Mulliken Charges: (a.u.)
   Center  Symbol    Alpha    Beta     Spin     Total
       1     H     0.45888  0.45888  0.00000  0.08224
       2     C     2.88212  2.88212  0.00000  0.23576
       3     N     3.60360  3.60360  0.00000 -0.20719
       4     O     4.20202  4.20202  0.00000 -0.40404
       5     C     3.08110  3.08110  0.00000 -0.16219
       6     H     0.42254  0.42254  0.00000  0.15493
       7     H     0.45611  0.45611  0.00000  0.08778
       8     H     0.44134  0.44134  0.00000  0.11732
       9     H     0.45230  0.45230  0.00000  0.09540

   Total alpha = 16.00000, Total beta = 16.00000, Total charge = -0.00000
