  ==> Input File <==

--------------------------------------------------------------------------
set {
	reference rhf
	basis 6-31G*
}

set_num_threads( 1 )
memory 2 gb

molecule MOL {
0 1

H	 -2.153054	 -2.250733	 0.000000
O	 -2.462445	 -1.355403	 0.000000
C	 -1.434260	 -0.483044	 0.000000
C	 -1.747402	 0.872187	 0.000000
C	 -0.112826	 -0.887672	 0.000000
H	 -2.781042	 1.162947	 0.000000
C	 -0.737782	 1.812486	 0.000000
H	 0.142965	 -1.932242	 0.000000
C	 0.894804	 0.073633	 0.000000
H	 -0.988012	 2.857452	 0.000000
C	 0.595063	 1.425424	 0.000000
C	 2.274807	 -0.357748	 0.000000
H	 1.382498	 2.154482	 0.000000
N	 3.358642	 -0.698633	 -0.001669

	symmetry c1
}
set optking {
	frozen_dihedral = ("
		5 3 2 1
	")
}

ee = energy('scf')
oeprop('DIPOLE', 'QUADRUPOLE', 'MULLIKEN_CHARGES')
f=open( 'psi4out.xyz', 'w' )
f.write( "14  " )
f.write( str(ee) + "\n" )
f.write( MOL.save_string_xyz() )
f.close()
--------------------------------------------------------------------------

    Molecular point group: c1

    Geometry (in Angstrom), charge = 0, multiplicity = 1:

       Center              X                  Y                   Z               Mass
    ------------   -----------------  -----------------  -----------------  -----------------
           H         -2.153075119994    -2.250801212903     0.000196334822     1.007825032070
           O         -2.462466119994    -1.355471212903     0.000196334822    15.994914619560
           C         -1.434281119994    -0.483112212903     0.000196334822    12.000000000000
           C         -1.747423119994     0.872118787097     0.000196334822    12.000000000000
           C         -0.112847119994    -0.887740212903     0.000196334822    12.000000000000
           H         -2.781063119994     1.162878787097     0.000196334822     1.007825032070
           C         -0.737803119994     1.812417787097     0.000196334822    12.000000000000
           H          0.142943880006    -1.932310212903     0.000196334822     1.007825032070
           C          0.894782880006     0.073564787097     0.000196334822    12.000000000000
           H         -0.988033119994     2.857383787097     0.000196334822     1.007825032070
           C          0.595041880006     1.425355787097     0.000196334822    12.000000000000
           C          2.274785880006    -0.357816212903     0.000196334822    12.000000000000
           H          1.382476880006     2.154413787097     0.000196334822     1.007825032070
           N          3.358620880006    -0.698701212903    -0.001472665178    14.003074004780

  Charge       = 0
  Multiplicity = 1
  Basis Set: 6-31G*
  Basis Set:

    Orbital Energies (a.u.)
    -----------------------

    Doubly Occupied:

       1A    -20.613357     2A    -15.576095     3A    -11.326476
       4A    -11.295199     5A    -11.277356     6A    -11.263924
       7A    -11.262491     8A    -11.259237     9A    -11.253929
      10A     -1.433722    11A     -1.233859    12A     -1.182278
      13A     -1.063258    14A     -1.039161    15A     -0.896239
      16A     -0.867775    17A     -0.778126    18A     -0.726557
      19A     -0.700218    20A     -0.664098    21A     -0.627028
      22A     -0.613997    23A     -0.592982    24A     -0.562273
      25A     -0.550740    26A     -0.538998    27A     -0.527027
      28A     -0.473335    29A     -0.473315    30A     -0.363597
      31A     -0.336672

  @DF-RHF Final Energy:  -397.29196355087629

   => Energetics <=

    Nuclear Repulsion Energy =            379.4052033586708603
    One-Electron Energy =               -1290.6476927530598005
    Two-Electron Energy =                 513.9505258435137875
    DFT Exchange-Correlation Energy =       0.0000000000000000
    Empirical Dispersion Energy =           0.0000000000000000
    PCM Polarization Energy =               0.0000000000000000
    EFP Energy =                            0.0000000000000000
    Total Energy =                       -397.2919635508751526

  Mulliken Charges: (a.u.)
   Center  Symbol    Alpha    Beta     Spin     Total
       1     H     0.26830  0.26830  0.00000  0.46340
       2     O     4.37595  4.37595  0.00000 -0.75190
       3     C     2.79154  2.79154  0.00000  0.41692
       4     C     3.11408  3.11408  0.00000 -0.22817
       5     C     3.13442  3.13442  0.00000 -0.26884
       6     H     0.38292  0.38292  0.00000  0.23416
       7     C     3.09574  3.09574  0.00000 -0.19147
       8     H     0.38533  0.38533  0.00000  0.22934
       9     C     2.99113  2.99113  0.00000  0.01775
      10     H     0.38857  0.38857  0.00000  0.22287
      11     C     3.09896  3.09896  0.00000 -0.19792
      12     C     2.86663  2.86663  0.00000  0.26674
      13     H     0.38127  0.38127  0.00000  0.23747
      14     N     3.72517  3.72517  0.00000 -0.45034

   Total alpha = 31.00000, Total beta = 31.00000, Total charge = -0.00000
