                              Psi4 1.0.54 Driver

  ==> Input File <==

--------------------------------------------------------------------------
set {
	reference rhf
	basis cc-pvtz
}

set_num_threads( 4 )
memory 2 gb

molecule MOL {
0 1

H	 -2.706569	 -1.130905	 -0.842705
O	 -2.658848	 -0.704215	 -0.000460
C	 -1.605397	 0.107680	 0.001145
C	 -0.310616	 -0.658853	 0.000791
O	 -1.718351	 1.284629	 -0.000627
C	 0.926581	 0.227233	 0.000178
H	 -0.327628	 -1.313681	 -0.864448
H	 -0.327041	 -1.313334	 0.866298
C	 2.220156	 -0.582071	 -0.000088
H	 0.899945	 0.878221	 -0.866390
H	 0.900542	 0.878581	 0.866486
C	 3.466689	 0.296012	 -0.000457
H	 2.239073	 -1.234095	 -0.869382
H	 2.239505	 -1.233985	 0.869270
H	 3.493549	 0.935857	 -0.875887
H	 4.368821	 -0.304526	 -0.001199
H	 3.494559	 0.935166	 0.875458

	symmetry c1
}
set optking {
	frozen_dihedral = ("
		1 2 3 5
	")
}

ee,wfn = optimize('scf', return_wfn=True)
oeprop( wfn, 'DIPOLE', 'QUADRUPOLE', 'MULLIKEN_CHARGES')
f=open( 'psi4out.xyz', 'w' )
f.write( "17  " )
f.write( str(ee) + "\n" )
f.write( MOL.save_string_xyz() )
f.close()
--------------------------------------------------------------------------

    Molecular point group: c1
  Charge       = 0
  Multiplicity = 1
  Basis Set: CC-PVTZ
  Basis Set:
  @DF-RHF Final Energy:  -345.02808228810414
    Total Energy =                       -345.0280822881043150
    Molecular point group: c1
  Basis Set: CC-PVTZ
  Basis Set:
  Basis Set: CC-PVTZ
  Basis Set:
  @DF-RHF Final Energy:  -345.02939303680080
    Total Energy =                       -345.0293930368010251
  Basis Set: CC-PVTZ
  Basis Set:
  Basis Set: CC-PVTZ
  Basis Set:
  @DF-RHF Final Energy:  -345.02959442061763
    Total Energy =                       -345.0295944206177410
  Basis Set: CC-PVTZ
  Basis Set:
  Basis Set: CC-PVTZ
  Basis Set:
  @DF-RHF Final Energy:  -345.02968503636566
    Total Energy =                       -345.0296850363657768
  Basis Set: CC-PVTZ
  Basis Set:
  Basis Set: CC-PVTZ
  Basis Set:
  @DF-RHF Final Energy:  -345.02968864448792
    Total Energy =                       -345.0296886444878623
  Basis Set: CC-PVTZ
  Basis Set:
  Basis Set: CC-PVTZ
  Basis Set:
  @DF-RHF Final Energy:  -345.02969039730641
    Total Energy =                       -345.0296903973064104
  Basis Set: CC-PVTZ
  Basis Set:
  Charge       = 0
  Multiplicity = 1
  Basis Set: CC-PVTZ
  Basis Set:

    Orbital Energies (a.u.)
    -----------------------

    Doubly Occupied:

       1A    -20.588058     2A    -20.549174     3A    -11.374057
       4A    -11.244048     5A    -11.224155     6A    -11.223521
       7A    -11.212843     8A     -1.463867     9A     -1.371592
      10A     -1.094800    11A     -1.019220    12A     -0.909417
      13A     -0.826855    14A     -0.800032    15A     -0.713776
      16A     -0.676063    17A     -0.664961    18A     -0.642117
      19A     -0.597790    20A     -0.586724    21A     -0.542984
      22A     -0.537074    23A     -0.517873    24A     -0.500952
      25A     -0.483249    26A     -0.476545    27A     -0.475243
      28A     -0.445365

  @DF-RHF Final Energy:  -345.02969046695785

   => Energetics <=

    Nuclear Repulsion Energy =            304.0646180745682159
    One-Electron Energy =               -1072.6639088686054038
    Two-Electron Energy =                 423.5696003270794563
    DFT Exchange-Correlation Energy =       0.0000000000000000
    Empirical Dispersion Energy =           0.0000000000000000
    PCM Polarization Energy =               0.0000000000000000
    EFP Energy =                            0.0000000000000000
    Total Energy =                       -345.0296904669577316
    Molecular point group: c1
  Basis Set: CC-PVTZ
  Basis Set:

  -Total Gradient:
     Atom            X                  Y                   Z
    ------   -----------------  -----------------  -----------------
       1       -0.002042485980     0.002809926227    -0.001074690745
       2        0.002532348117    -0.003475202249    -0.000064618990
       3       -0.000393810528     0.000547904314     0.004330449194
       4       -0.000000141273    -0.000002338453     0.000015719036
       5       -0.000097932655     0.000120225933    -0.003183067566
       6        0.000004320232    -0.000002245897    -0.000005453981
       7       -0.000002037745     0.000002504271    -0.000011755665
       8        0.000003528019     0.000000072329    -0.000009256309
       9       -0.000000270053    -0.000000787767    -0.000003740503
      10       -0.000001031561    -0.000003572056     0.000001466074
      11       -0.000000471258     0.000003058133     0.000003931786
      12       -0.000001691252     0.000000771343     0.000001836415
      13        0.000000904539    -0.000000317386    -0.000001083100
      14       -0.000000759733     0.000000661556    -0.000000835648
      15       -0.000000340028    -0.000000958837     0.000000140948
      16       -0.000000356408    -0.000000667335     0.000001064628
      17        0.000000227567     0.000000965874    -0.000000105574

  **** Optimization is complete! (in 7 steps) ****
    Final optimized geometry and variables:
    Molecular point group: c1

    Geometry (in Angstrom), charge = 0, multiplicity = 1:

    H           -2.841176534680    -1.102989906974    -0.809491245757
    O           -2.708882169358    -0.688584490510     0.026628876253
    C           -1.610895378664     0.109776989231     0.028424302549
    C           -0.307708084516    -0.647812399445    -0.000894880531
    O           -1.713369827550     1.277546896270     0.079804723174
    C            0.929127498384     0.238453628596    -0.010249969716
    H           -0.325523613772    -1.299622134260    -0.871277771613
    H           -0.312380375335    -1.311011890804     0.858441433268
    C            2.224539263503    -0.567684537241    -0.032882187167
    H            0.891017344680     0.897544284057    -0.870578930994
    H            0.910805334045     0.881685581061     0.861969548405
    C            3.468894895701     0.313413807871    -0.039557671748
    H            2.235555860085    -1.211995724559    -0.908267490275
    H            2.255246327460    -1.227087870296     0.830394506057
    H            3.484652681297     0.960758344245    -0.909726604935
    H            4.372288810523    -0.284947079897    -0.055254224264
    H            3.504638149751     0.945032582885     0.841397831909

  Mulliken Charges: (a.u.)
   Center  Symbol    Alpha    Beta     Spin     Total
       1     H     0.38989  0.38989  0.00000  0.22023
       2     O     4.16886  4.16886  0.00000 -0.33773
       3     C     2.80001  2.80001  0.00000  0.39998
       4     C     3.12090  3.12090  0.00000 -0.24180
       5     O     4.16069  4.16069  0.00000 -0.32138
       6     C     3.08381  3.08381  0.00000 -0.16762
       7     H     0.44996  0.44996  0.00000  0.10009
       8     H     0.43565  0.43565  0.00000  0.12869
       9     C     3.08630  3.08630  0.00000 -0.17259
      10     H     0.44680  0.44680  0.00000  0.10640
      11     H     0.44363  0.44363  0.00000  0.11273
      12     C     3.14919  3.14919  0.00000 -0.29838
      13     H     0.45558  0.45558  0.00000  0.08883
      14     H     0.45424  0.45424  0.00000  0.09151
      15     H     0.45372  0.45372  0.00000  0.09256
      16     H     0.44779  0.44779  0.00000  0.10441
      17     H     0.45297  0.45297  0.00000  0.09407

   Total alpha = 28.00000, Total beta = 28.00000, Total charge = -0.00000

*** Psi4 exiting successfully. Buy a developer a beer!
