  ==> Input File <==

--------------------------------------------------------------------------
set {
	reference rhf
	basis cc-pvtz
}

set_num_threads( 4 )
memory 2 gb

molecule MOL {
0 1

H	 1.146055	 1.260481	 1.744129
O	 1.353648	 0.519321	 1.203723
C	 0.706474	 0.636793	 -0.025501
C	 -0.793473	 0.591216	 0.050087
H	 1.057867	 -0.185962	 -0.636973
H	 1.005031	 1.551019	 -0.535160
C	 -1.534243	 -0.493009	 -0.013340
H	 -1.266611	 1.552628	 0.164437
H	 -1.101195	 -1.466332	 -0.144046
H	 -2.604242	 -0.437780	 0.050785

	symmetry c1
}
set optking {
	frozen_dihedral = ("
		5 3 4 7
	")
}

ee = optimize('scf')
oeprop('DIPOLE', 'QUADRUPOLE', 'MULLIKEN_CHARGES')
f=open( 'psi4out.xyz', 'w' )
f.write( "10  " )
f.write( str(ee) + "\n" )
f.write( MOL.save_string_xyz() )
f.close()
--------------------------------------------------------------------------

    Molecular point group: c1
  Charge       = 0
  Multiplicity = 1
  Basis Set: CC-PVTZ
  Basis Set:
  @DF-RHF Final Energy:  -191.99431137438771
    Total Energy =                       -191.9943113743875927
    Molecular point group: c1
  Basis Set: CC-PVTZ
  Basis Set:
  Basis Set: CC-PVTZ
  Basis Set:
  @DF-RHF Final Energy:  -191.99479793484198
    Total Energy =                       -191.9947979348420972
  Basis Set: CC-PVTZ
  Basis Set:
  Basis Set: CC-PVTZ
  Basis Set:
  @DF-RHF Final Energy:  -191.99486321551876
    Total Energy =                       -191.9948632155188477
  Basis Set: CC-PVTZ
  Basis Set:
  Basis Set: CC-PVTZ
  Basis Set:
  @DF-RHF Final Energy:  -191.99487530153263
    Total Energy =                       -191.9948753015326020
  Basis Set: CC-PVTZ
  Basis Set:
  Basis Set: CC-PVTZ
  Basis Set:
  @DF-RHF Final Energy:  -191.99487856755260
    Total Energy =                       -191.9948785675528029
  Basis Set: CC-PVTZ
  Basis Set:
  Charge       = 0
  Multiplicity = 1
  Basis Set: CC-PVTZ
  Basis Set:

    Orbital Energies (a.u.)
    -----------------------

    Doubly Occupied:

       1A    -20.549994     2A    -11.274608     3A    -11.229349
       4A    -11.224749     5A     -1.367665     6A     -1.065587
       7A     -0.924041     8A     -0.782083     9A     -0.684403
      10A     -0.662448    11A     -0.614791    12A     -0.576353
      13A     -0.552147    14A     -0.482110    15A     -0.445061
      16A     -0.378585

  @DF-RHF Final Energy:  -191.99487919400789

   => Energetics <=

    Nuclear Repulsion Energy =            117.9873911282266192
    One-Electron Energy =                -494.3365913033841252
    Two-Electron Energy =                 184.3543209811496411
    DFT Exchange-Correlation Energy =       0.0000000000000000
    Empirical Dispersion Energy =           0.0000000000000000
    PCM Polarization Energy =               0.0000000000000000
    EFP Energy =                            0.0000000000000000
    Total Energy =                       -191.9948791940078934
    Molecular point group: c1
  Basis Set: CC-PVTZ
  Basis Set:

  -Total Gradient:
     Atom            X                  Y                   Z
    ------   -----------------  -----------------  -----------------
       1        0.000026648236     0.000036708327    -0.000013765506
       2        0.000016010106    -0.000075637310     0.000058357203
       3        0.000180352182    -0.001762408634     0.003627297414
       4       -0.000254688751     0.000585837218    -0.003935435374
       5       -0.000110026153     0.001379445498    -0.002036817178
       6       -0.000015127382     0.000002732349     0.000006024947
       7        0.000149089490    -0.000157257626     0.002272639865
       8        0.000008822885    -0.000008032911     0.000000471678
       9       -0.000001020475     0.000005482252     0.000015125497
      10       -0.000000060133    -0.000006869163     0.000006101455

  **** Optimization is complete! (in 6 steps) ****
    Final optimized geometry and variables:
    Molecular point group: c1

    Geometry (in Angstrom), charge = 0, multiplicity = 1:

    H            1.042560930009     0.873737810970     1.427171444258
    O            1.335407227694     0.184484047795     0.858650167191
    C            0.704258646656     0.288144936914    -0.390078114273
    C           -0.800470044414     0.273028289443    -0.302628338890
    H            1.050110488464    -0.547163207747    -0.981813679912
    H            1.027793410571     1.192127414380    -0.899462190588
    C           -1.528767815776    -0.820718147675    -0.340611118099
    H           -1.286518748890     1.223216081491    -0.151518743196
    H           -1.082196105428    -1.788772037922    -0.480590108044
    H           -2.597282649262    -0.790684862595    -0.237652686038

  Mulliken Charges: (a.u.)
   Center  Symbol    Alpha    Beta     Spin     Total
       1     H     0.39591  0.39591  0.00000  0.20818
       2     O     4.19639  4.19639  0.00000 -0.39277
       3     C     2.95291  2.95291  0.00000  0.09419
       4     C     3.08799  3.08799  0.00000 -0.17599
       5     H     0.45683  0.45683  0.00000  0.08633
       6     H     0.47220  0.47220  0.00000  0.05560
       7     C     3.16134  3.16134  0.00000 -0.32269
       8     H     0.42057  0.42057  0.00000  0.15885
       9     H     0.42848  0.42848  0.00000  0.14304
      10     H     0.42737  0.42737  0.00000  0.14525

   Total alpha = 16.00000, Total beta = 16.00000, Total charge =  0.00000
