                              Psi4 1.0.54 Driver

  ==> Input File <==

--------------------------------------------------------------------------
set {
	reference rhf
	basis cc-pvtz
}

set_num_threads( 4 )
memory 2 gb

molecule MOL {
0 1

H	 -3.294565	 0.569785	 0.000000
C	 -2.246225	 0.343737	 0.000000
C	 -1.809462	 -0.973484	 0.000000
C	 -1.312577	 1.353775	 0.000000
H	 -2.523539	 -1.775124	 0.000000
C	 -0.467257	 -1.267606	 0.000000
H	 -1.631287	 2.379013	 0.000000
C	 0.046966	 1.074396	 0.000000
H	 -0.119372	 -2.281828	 0.000000
C	 0.471772	 -0.241514	 0.000000
H	 0.748162	 1.882966	 0.000000
O	 1.760432	 -0.625184	 0.000000
C	 2.692837	 0.063732	 -0.777287
H	 2.446202	 0.013444	 -1.831967
H	 3.642535	 -0.421073	 -0.614793
H	 2.770542	 1.102828	 -0.477371

	symmetry c1
}
set optking {
	frozen_dihedral = ("
		13 12 10 8
	")
}

ee,wfn = optimize('scf', return_wfn=True)
oeprop( wfn, 'DIPOLE', 'QUADRUPOLE', 'MULLIKEN_CHARGES')
f=open( 'psi4out.xyz', 'w' )
f.write( "16  " )
f.write( str(ee) + "\n" )
f.write( MOL.save_string_xyz() )
f.close()
--------------------------------------------------------------------------

    Molecular point group: c1
  Charge       = 0
  Multiplicity = 1
  Basis Set: CC-PVTZ
  Basis Set:
  @DF-RHF Final Energy:  -344.70100343486041
    Total Energy =                       -344.7010034348605245
    Molecular point group: c1
  Basis Set: CC-PVTZ
  Basis Set:
  Basis Set: CC-PVTZ
  Basis Set:
  @DF-RHF Final Energy:  -344.70141519050611
    Total Energy =                       -344.7014151905055996
  Basis Set: CC-PVTZ
  Basis Set:
  Basis Set: CC-PVTZ
  Basis Set:
  @DF-RHF Final Energy:  -344.70179646739166
    Total Energy =                       -344.7017964673916595
  Basis Set: CC-PVTZ
  Basis Set:
  Basis Set: CC-PVTZ
  Basis Set:
  @DF-RHF Final Energy:  -344.70182762183447
    Total Energy =                       -344.7018276218344681
  Basis Set: CC-PVTZ
  Basis Set:
  Charge       = 0
  Multiplicity = 1
  Basis Set: CC-PVTZ
  Basis Set:

    Orbital Energies (a.u.)
    -----------------------

    Doubly Occupied:

       1A    -20.574152     2A    -11.290415     3A    -11.276808
       4A    -11.231779     5A    -11.230498     6A    -11.223336
       7A    -11.219725     8A    -11.219583     9A     -1.412804
      10A     -1.151729    11A     -1.023832    12A     -1.017525
      13A     -0.940777    14A     -0.836137    15A     -0.809135
      16A     -0.722544    17A     -0.668731    18A     -0.666836
      19A     -0.652931    20A     -0.617745    21A     -0.593329
      22A     -0.583472    23A     -0.531087    24A     -0.517338
      25A     -0.509704    26A     -0.485022    27A     -0.455059
      28A     -0.339862    29A     -0.315432

  @DF-RHF Final Energy:  -344.70183059592205

   => Energetics <=

    Nuclear Repulsion Energy =            348.6501880353814613
    One-Electron Energy =               -1158.4693845394408527
    Two-Electron Energy =                 465.1173659081371170
    DFT Exchange-Correlation Energy =       0.0000000000000000
    Empirical Dispersion Energy =           0.0000000000000000
    PCM Polarization Energy =               0.0000000000000000
    EFP Energy =                            0.0000000000000000
    Total Energy =                       -344.7018305959222744
    Molecular point group: c1
  Basis Set: CC-PVTZ
  Basis Set:

  -Total Gradient:
     Atom            X                  Y                   Z
    ------   -----------------  -----------------  -----------------
       1       -0.000009418145    -0.000016204613     0.000004188934
       2        0.000036376768     0.000277048949     0.000036057837
       3        0.000182989592    -0.000204713768    -0.000022879834
       4       -0.000284055468    -0.000070548712    -0.000067576966
       5       -0.000023275530     0.000002260223     0.000000921692
       6       -0.000263498800    -0.000099170068     0.000005708852
       7        0.000012161609     0.000010606729     0.000011150483
       8        0.000141869554    -0.000031201476     0.001790838550
       9        0.000022208049    -0.000004270735     0.000013723705
      10       -0.000018394010    -0.000453141493    -0.003372946649
      11       -0.000027623240     0.000014889338     0.000015310063
      12        0.000333269262     0.001716265563     0.002795409730
      13       -0.000133839256    -0.001203200362    -0.001256972783
      14        0.000031950337    -0.000026509857     0.000115383967
      15       -0.000022406409     0.000052099784    -0.000056839860
      16        0.000021685691     0.000035790500    -0.000011477724

  **** Optimization is complete! (in 5 steps) ****
    Final optimized geometry and variables:
    Molecular point group: c1

    Geometry (in Angstrom), charge = 0, multiplicity = 1:

    H           -3.293929574345     0.545087601533     0.046830339720
    C           -2.241929501708     0.336609379346     0.064543662742
    C           -1.786979321947    -0.967095982768     0.168167378328
    C           -1.324726883950     1.363211835962    -0.012967155920
    H           -2.488928524800    -1.776899839497     0.230936497461
    C           -0.436198819534    -1.239026289356     0.186838529101
    H           -1.661953142304     2.379734354515    -0.087140412846
    C            0.035208993778     1.104000611569     0.013175289855
    H           -0.071943553947    -2.244271949141     0.267776989805
    C            0.480829339318    -0.202427347507     0.105572219487
    H            0.732558699930     1.916128872434    -0.034937022348
    O            1.787934432752    -0.534376624569     0.183481675098
    C            2.712331355306     0.164162762007    -0.602514786737
    H            2.365964353074     0.254081989799    -1.625584245278
    H            3.627870160312    -0.406803961421    -0.584184596226
    H            2.913467676397     1.152791412694    -0.206657941036

  Mulliken Charges: (a.u.)
   Center  Symbol    Alpha    Beta     Spin     Total
       1     H     0.42408  0.42408  0.00000  0.15184
       2     C     3.09593  3.09593  0.00000 -0.19185
       3     C     3.06130  3.06130  0.00000 -0.12261
       4     C     3.06227  3.06227  0.00000 -0.12455
       5     H     0.42263  0.42263  0.00000  0.15473
       6     C     3.11098  3.11098  0.00000 -0.22196
       7     H     0.42280  0.42280  0.00000  0.15440
       8     C     3.12460  3.12460  0.00000 -0.24920
       9     H     0.41907  0.41907  0.00000  0.16185
      10     C     2.86087  2.86087  0.00000  0.27827
      11     H     0.42352  0.42352  0.00000  0.15295
      12     O     4.16270  4.16270  0.00000 -0.32541
      13     C     3.04494  3.04494  0.00000 -0.08988
      14     H     0.46099  0.46099  0.00000  0.07803
      15     H     0.44148  0.44148  0.00000  0.11704
      16     H     0.46183  0.46183  0.00000  0.07634

   Total alpha = 29.00000, Total beta = 29.00000, Total charge =  0.00000

*** Psi4 exiting successfully. Buy a developer a beer!
