                              Psi4 1.0.54 Driver

  ==> Input File <==

--------------------------------------------------------------------------
set {
	reference rhf
	basis cc-pvtz
}

set_num_threads( 4 )
memory 2 gb

molecule MOL {
0 1

H	 -3.436473	 1.252944	 -1.023892
O	 -3.458596	 0.315260	 -0.960865
C	 -3.176635	 -0.080824	 0.355601
C	 -1.763371	 0.265266	 0.799691
H	 -3.321825	 -1.153438	 0.379502
H	 -3.895468	 0.357385	 1.043382
C	 -0.673390	 -0.426948	 -0.013392
H	 -1.631049	 1.344913	 0.747560
H	 -1.664587	 -0.001624	 1.849167
C	 0.737842	 -0.043159	 0.423759
H	 -0.806103	 -0.190518	 -1.063345
H	 -0.797221	 -1.503753	 0.074146
C	 1.824000	 -0.743224	 -0.390623
H	 0.850588	 1.033777	 0.343840
H	 0.868587	 -0.286314	 1.476203
C	 3.255957	 -0.453067	 0.062319
H	 1.718250	 -0.470599	 -1.438164
H	 1.658105	 -1.815850	 -0.339904
C	 4.214412	 -0.064555	 -1.060876
H	 3.644005	 -1.336856	 0.559422
H	 3.242248	 0.333683	 0.812157
H	 4.244349	 -0.830650	 -1.829171
H	 5.221973	 0.059763	 -0.680603
H	 3.928812	 0.867144	 -1.534137

	symmetry c1
}
set optking {
	frozen_dihedral = ("
		20 16 13 17
	")
}

ee,wfn = optimize('scf', return_wfn=True)
oeprop( wfn, 'DIPOLE', 'QUADRUPOLE', 'MULLIKEN_CHARGES')
f=open( 'psi4out.xyz', 'w' )
f.write( "24  " )
f.write( str(ee) + "\n" )
f.write( MOL.save_string_xyz() )
f.close()
--------------------------------------------------------------------------

    Molecular point group: c1
  Charge       = 0
  Multiplicity = 1
  Basis Set: CC-PVTZ
  Basis Set:
  @DF-RHF Final Energy:  -349.37655939690848
    Total Energy =                       -349.3765593969082488
    Molecular point group: c1
  Basis Set: CC-PVTZ
  Basis Set:
  Basis Set: CC-PVTZ
  Basis Set:
  @DF-RHF Final Energy:  -349.37697301860572
    Total Energy =                       -349.3769730186058382
  Basis Set: CC-PVTZ
  Basis Set:
  Basis Set: CC-PVTZ
  Basis Set:
  @DF-RHF Final Energy:  -349.37702076693870
    Total Energy =                       -349.3770207669388128
  Basis Set: CC-PVTZ
  Basis Set:
  Charge       = 0
  Multiplicity = 1
  Basis Set: CC-PVTZ
  Basis Set:

    Orbital Energies (a.u.)
    -----------------------

    Doubly Occupied:

       1A    -20.546351     2A    -11.265588     3A    -11.215304
       4A    -11.211454     5A    -11.211174     6A    -11.208961
       7A    -11.208830     8A    -11.205609     9A     -1.364200
      10A     -1.088838    11A     -1.048845    12A     -0.988961
      13A     -0.914352    14A     -0.843637    15A     -0.798965
      16A     -0.788170    17A     -0.681858    18A     -0.655560
      19A     -0.628491    20A     -0.616562    21A     -0.597641
      22A     -0.585203    23A     -0.552935    24A     -0.538352
      25A     -0.531183    26A     -0.504654    27A     -0.494332
      28A     -0.472059    29A     -0.469371    30A     -0.459736
      31A     -0.456979    32A     -0.452849    33A     -0.420416

  @DF-RHF Final Energy:  -349.37702037760033

   => Energetics <=

    Nuclear Repulsion Energy =            381.4896588354412756
    One-Electron Energy =               -1229.6785037191998526
    Two-Electron Energy =                 498.8118245061582456
    DFT Exchange-Correlation Energy =       0.0000000000000000
    Empirical Dispersion Energy =           0.0000000000000000
    PCM Polarization Energy =               0.0000000000000000
    EFP Energy =                            0.0000000000000000
    Total Energy =                       -349.3770203776002745
    Molecular point group: c1
  Basis Set: CC-PVTZ
  Basis Set:

  -Total Gradient:
     Atom            X                  Y                   Z
    ------   -----------------  -----------------  -----------------
       1        0.000000234415     0.000000078764     0.000000186152
       2       -0.000008178329    -0.000001134364    -0.000008680683
       3        0.000007622448     0.000017005727    -0.000003881636
       4       -0.000008949501     0.000037762389    -0.000043612952
       5        0.000001467036    -0.000002176646     0.000000046751
       6       -0.000000885249    -0.000001881459     0.000002959482
       7       -0.000022968595     0.000052507607    -0.000008876582
       8       -0.000003176673     0.000013931582     0.000014887376
       9        0.000010520071    -0.000013890114    -0.000017796392
      10       -0.000038042303    -0.000069874894     0.000158753655
      11       -0.000013421033    -0.000023487258    -0.000013656481
      12        0.000036793139     0.000015949900     0.000030963719
      13       -0.000571337411     0.002652133006     0.000219462202
      14        0.000030786186     0.000027121159     0.000053882065
      15       -0.000023618054    -0.000028863462    -0.000015997398
      16       -0.001138805660     0.000657017185     0.002602626423
      17        0.000806778015    -0.002370466824    -0.000597972779
      18        0.000073851147    -0.000017314496     0.000027899619
      19        0.000102644582    -0.000016140178    -0.000075683210
      20        0.000798485776    -0.000965793544    -0.002171540803
      21       -0.000092721691    -0.000013522165    -0.000031250268
      22        0.000030258247     0.000048579409    -0.000019828057
      23        0.000023257134    -0.000004783969    -0.000076593243
      24       -0.000000593705     0.000007242645    -0.000026296964

  **** Optimization is complete! (in 4 steps) ****
    Final optimized geometry and variables:
    Molecular point group: c1

    Geometry (in Angstrom), charge = 0, multiplicity = 1:

    H           -3.439255487695     1.480111256447    -0.934443469653
    O           -3.494082382827     0.543953845431    -0.868989446482
    C           -3.239976557257     0.142895874690     0.451547975031
    C           -1.820332654059     0.441407087967     0.909625804679
    H           -3.422432820801    -0.923988271668     0.476783945670
    H           -3.950551914862     0.607809431059     1.130324760420
    C           -0.746248466261    -0.289097239951     0.108886604673
    H           -1.650615685234     1.515804740560     0.857228370797
    H           -1.741409082139     0.173271784384     1.960434122642
    C            0.672000446193     0.046959610308     0.559254602617
    H           -0.860326092136    -0.051031755717    -0.942914277396
    H           -0.906951132342    -1.360985598397     0.197524990014
    C            1.750287551083    -0.677229061896    -0.241921951331
    H            0.830667009860     1.120219053863     0.479366249067
    H            0.785653379248    -0.197392350685     1.613179179668
    C            3.187301414251    -0.353131374468     0.210488220386
    H            1.638029600053    -0.443957645059    -1.296751205809
    H            1.582018766281    -1.747847964102    -0.168691796549
    C            4.121735224398    -0.009745658141    -0.947613552645
    H            3.602999640012    -1.202881357226     0.741450599419
    H            3.175294840017     0.474884327659     0.911650689717
    H            4.178725434176    -0.827400019759    -1.658643435489
    H            5.127359945520     0.193727391793    -0.596838973647
    H            3.772888812147     0.866975790738    -1.483524239611

  Mulliken Charges: (a.u.)
   Center  Symbol    Alpha    Beta     Spin     Total
       1     H     0.39530  0.39530  0.00000  0.20940
       2     O     4.20365  4.20365  0.00000 -0.40730
       3     C     2.97778  2.97778  0.00000  0.04443
       4     C     3.10206  3.10206  0.00000 -0.20412
       5     H     0.45890  0.45890  0.00000  0.08221
       6     H     0.46025  0.46025  0.00000  0.07950
       7     C     3.08866  3.08866  0.00000 -0.17731
       8     H     0.45908  0.45908  0.00000  0.08184
       9     H     0.45331  0.45331  0.00000  0.09338
      10     C     3.08966  3.08966  0.00000 -0.17931
      11     H     0.44610  0.44610  0.00000  0.10779
      12     H     0.45535  0.45535  0.00000  0.08930
      13     C     3.09227  3.09227  0.00000 -0.18454
      14     H     0.45520  0.45520  0.00000  0.08960
      15     H     0.45451  0.45451  0.00000  0.09099
      16     C     3.08752  3.08752  0.00000 -0.17504
      17     H     0.45375  0.45375  0.00000  0.09250
      18     H     0.45197  0.45197  0.00000  0.09606
      19     C     3.14782  3.14782  0.00000 -0.29564
      20     H     0.45167  0.45167  0.00000  0.09666
      21     H     0.45476  0.45476  0.00000  0.09048
      22     H     0.45438  0.45438  0.00000  0.09125
      23     H     0.45010  0.45010  0.00000  0.09980
      24     H     0.45596  0.45596  0.00000  0.08809

   Total alpha = 33.00000, Total beta = 33.00000, Total charge = -0.00000

*** Psi4 exiting successfully. Buy a developer a beer!
