  ==> Input File <==

--------------------------------------------------------------------------
set {
	reference rhf
	basis 6-31G*
}

set_num_threads( 4 )
memory 2 gb

molecule MOL {
0 1

O	 1.214711	 1.306902	 -0.000018
C	 1.122059	 0.121804	 -0.000188
C	 -0.170150	 -0.657997	 -0.000612
O	 2.172624	 -0.688929	 0.000216
C	 -1.412532	 0.227344	 -0.000452
H	 -0.153702	 -1.313099	 -0.867402
H	 -0.153924	 -1.313811	 0.865644
C	 -1.322877	 1.354778	 1.029218
H	 -2.287828	 -0.383439	 0.197801
H	 -1.554926	 0.645190	 -0.992234
C	 -2.563045	 2.247499	 1.035235
H	 -1.179441	 0.930663	 2.020998
H	 -0.442774	 1.962072	 0.827516
H	 -3.456261	 1.675134	 1.268083
H	 -2.474057	 3.038021	 1.773769
H	 -2.713972	 2.714385	 0.066278
C	 3.452279	 -0.082609	 0.000533
H	 3.583069	 0.529321	 -0.880332
H	 4.163299	 -0.894027	 0.001117
H	 3.582335	 0.529955	 0.881077

	symmetry c1
}
set optking {
	frozen_dihedral = ("
		9 5 3 6
	")
}

ee = optimize('scf')
oeprop('DIPOLE', 'QUADRUPOLE', 'MULLIKEN_CHARGES')
f=open( 'psi4out.xyz', 'w' )
f.write( "20  " )
f.write( str(ee) + "\n" )
f.write( MOL.save_string_xyz() )
f.close()
--------------------------------------------------------------------------

    Molecular point group: c1
  Charge       = 0
  Multiplicity = 1
  Basis Set: 6-31G*
  Basis Set:
  @DF-RHF Final Energy:  -383.93103057140678
    Total Energy =                       -383.9310305714068363
    Molecular point group: c1
  Basis Set: 6-31G*
  Basis Set:
  Basis Set: 6-31G*
  Basis Set:
  @DF-RHF Final Energy:  -383.93721080780034
    Total Energy =                       -383.9372108078007386
  Basis Set: 6-31G*
  Basis Set:
  Basis Set: 6-31G*
  Basis Set:
  @DF-RHF Final Energy:  -383.93824634865501
    Total Energy =                       -383.9382463486547294
  Basis Set: 6-31G*
  Basis Set:
  Basis Set: 6-31G*
  Basis Set:
  @DF-RHF Final Energy:  -383.93700158209055
    Total Energy =                       -383.9370015820909430
  Basis Set: 6-31G*
  Basis Set:
  @DF-RHF Final Energy:  -383.93902104466144
    Total Energy =                       -383.9390210446613310
  @DF-RHF Final Energy:  -383.93926664623604
    Total Energy =                       -383.9392666462360921
  Basis Set: 6-31G*
  Basis Set:
  @DF-RHF Final Energy:  -383.93932604192145
    Total Energy =                       -383.9393260419213902
  Basis Set: 6-31G*
  Basis Set:
  Basis Set: 6-31G*
  Basis Set:
  @DF-RHF Final Energy:  -383.93933458587418
    Total Energy =                       -383.9393345858741213
  Basis Set: 6-31G*
  Basis Set:
  Basis Set: 6-31G*
  Basis Set:
  @DF-RHF Final Energy:  -383.93933640896887
    Total Energy =                       -383.9393364089687566
  Basis Set: 6-31G*
  Basis Set:
  Charge       = 0
  Multiplicity = 1
  Basis Set: 6-31G*
  Basis Set:

    Orbital Energies (a.u.)
    -----------------------

    Doubly Occupied:

       1A    -20.605569     2A    -20.543949     3A    -11.372648
       4A    -11.281350     5A    -11.236026     6A    -11.222716
       7A    -11.213810     8A    -11.207876     9A     -1.470249
      10A     -1.362511    11A     -1.086731    12A     -1.021737
      13A     -0.969217    14A     -0.885092    15A     -0.806863
      16A     -0.765985    17A     -0.697530    18A     -0.680609
      19A     -0.671474    20A     -0.637204    21A     -0.603368
      22A     -0.588149    23A     -0.581607    24A     -0.538356
      25A     -0.535968    26A     -0.517528    27A     -0.512517
      28A     -0.478090    29A     -0.472153    30A     -0.463286
      31A     -0.454664    32A     -0.432754

  @DF-RHF Final Energy:  -383.93933714936855

   => Energetics <=

    Nuclear Repulsion Energy =            390.3329173108595000
    One-Electron Energy =               -1296.7093450158092764
    Two-Electron Energy =                 522.4370905555812215
    DFT Exchange-Correlation Energy =       0.0000000000000000
    Empirical Dispersion Energy =           0.0000000000000000
    PCM Polarization Energy =               0.0000000000000000
    EFP Energy =                            0.0000000000000000
    Total Energy =                       -383.9393371493684981
    Molecular point group: c1
  Basis Set: 6-31G*
  Basis Set:

  -Total Gradient:
     Atom            X                  Y                   Z
    ------   -----------------  -----------------  -----------------
       1        0.000003619742     0.000031741617     0.000005647369
       2        0.000007429482    -0.000113310465     0.000038462137
       3       -0.002977043136    -0.004194769053     0.004047449977
       4       -0.000064683756     0.000074244179    -0.000032840576
       5       -0.000232079988     0.000277737187    -0.006393574049
       6        0.002538412820     0.003480023605    -0.002430467253
       7       -0.000000453583     0.000009479752    -0.000014773518
       8       -0.000005314855    -0.000067843023    -0.000020820943
       9        0.000658006954     0.000495116663     0.004808841069
      10        0.000013769464    -0.000008583665     0.000014200412
      11       -0.000008589622     0.000016347892    -0.000019383494
      12        0.000011671263    -0.000001582352    -0.000010433939
      13        0.000006783242     0.000025983788     0.000002561291
      14        0.000014971162    -0.000007965155     0.000006490551
      15        0.000009315233    -0.000004317586    -0.000004151772
      16        0.000000461901    -0.000007483779     0.000000312245
      17        0.000021304080    -0.000011212736     0.000002582843
      18       -0.000003712754    -0.000000633812     0.000001865553
      19        0.000006498948     0.000005600384    -0.000001219008
      20       -0.000000366596     0.000001426560    -0.000000748895

  **** Optimization is complete! (in 10 steps) ****
    Final optimized geometry and variables:
    Molecular point group: c1

    Geometry (in Angstrom), charge = 0, multiplicity = 1:

    O            0.958367317244     0.661137067361    -0.968730075865
    C            0.790894039317    -0.386996983129    -0.430920397752
    C           -0.537660567130    -1.098687125791    -0.311361866284
    O            1.779720461087    -1.098814684514     0.090978388059
    C           -1.745212012121    -0.159070210579    -0.239125257053
    H           -0.594889310178    -1.695298168929    -1.219881403732
    H           -0.503033256473    -1.779158354473     0.529606685680
    C           -1.668409180046     0.879238737394     0.885802283217
    H           -2.621872454167    -0.774511241922    -0.051729824768
    H           -1.882053783362     0.339517255649    -1.191972663536
    C           -2.946794248941     1.709774183789     0.994735199534
    H           -1.489513326374     0.369773239251     1.831538694239
    H           -0.825348450069     1.539584741392     0.719541580390
    H           -3.809873314669     1.082534401220     1.200347476001
    H           -2.871439234789     2.440697336260     1.793683651024
    H           -3.141442769050     2.248512724432     0.071865517097
    C            3.086726962430    -0.565623287000    -0.026273757108
    H            3.355615169159    -0.444395984199    -1.065714864162
    H            3.740452971722    -1.280339172395     0.448760806557
    H            3.151998043897     0.390998797210     0.471561306279

  Mulliken Charges: (a.u.)
   Center  Symbol    Alpha    Beta     Spin     Total
       1     O     4.28854  4.28854  0.00000 -0.57707
       2     C     2.60637  2.60637  0.00000  0.78725
       3     C     3.20903  3.20903  0.00000 -0.41805
       4     O     4.30519  4.30519  0.00000 -0.61039
       5     C     3.15041  3.15041  0.00000 -0.30083
       6     H     0.39834  0.39834  0.00000  0.20332
       7     H     0.40013  0.40013  0.00000  0.19973
       8     C     3.16230  3.16230  0.00000 -0.32460
       9     H     0.41929  0.41929  0.00000  0.16142
      10     H     0.40956  0.40956  0.00000  0.18088
      11     C     3.24012  3.24012  0.00000 -0.48024
      12     H     0.42568  0.42568  0.00000  0.14865
      13     H     0.40530  0.40530  0.00000  0.18940
      14     H     0.42333  0.42333  0.00000  0.15334
      15     H     0.41838  0.41838  0.00000  0.16324
      16     H     0.41930  0.41930  0.00000  0.16140
      17     C     3.09292  3.09292  0.00000 -0.18584
      18     H     0.40897  0.40897  0.00000  0.18205
      19     H     0.40829  0.40829  0.00000  0.18341
      20     H     0.40854  0.40854  0.00000  0.18292

   Total alpha = 32.00000, Total beta = 32.00000, Total charge = -0.00000
