  ==> Input File <==

--------------------------------------------------------------------------
set {
	reference rhf
	basis cc-pvtz
}

set_num_threads( 4 )
memory 2 gb

molecule MOL {
0 1

H	 -2.765423	 0.602718	 -0.378847
O	 -2.313989	 -0.142475	 -0.025864
C	 -0.943808	 -0.065018	 -0.330000
H	 -0.812293	 -0.225641	 -1.398673
C	 -0.231030	 -1.182113	 0.407592
C	 -0.353797	 1.300461	 0.050970
H	 -0.312800	 -0.992012	 1.473041
H	 -0.738841	 -2.119564	 0.220514
C	 1.246176	 -1.268044	 -0.015480
H	 -0.539537	 2.008579	 -0.751815
H	 -0.889989	 1.662858	 0.920677
C	 1.153605	 1.231851	 0.356834
H	 1.823096	 -1.684665	 0.802361
H	 1.352335	 -1.958223	 -0.845114
C	 1.826409	 0.100723	 -0.416008
H	 1.622968	 2.181508	 0.128734
H	 1.301983	 1.066493	 1.419367
H	 2.897299	 0.112407	 -0.249665
H	 1.683458	 0.265621	 -1.480024

	symmetry c1
}
set optking {
	frozen_dihedral = ("
		1 2 3 4
	")
}

ee = optimize('scf')
oeprop('DIPOLE', 'QUADRUPOLE', 'MULLIKEN_CHARGES')
f=open( 'psi4out.xyz', 'w' )
f.write( "19  " )
f.write( str(ee) + "\n" )
f.write( MOL.save_string_xyz() )
f.close()
--------------------------------------------------------------------------

    Molecular point group: c1
  Charge       = 0
  Multiplicity = 1
  Basis Set: CC-PVTZ
  Basis Set:
  @DF-RHF Final Energy:  -309.16350198610365
    Total Energy =                       -309.1635019861034266
    Molecular point group: c1
  Basis Set: CC-PVTZ
  Basis Set:
  Basis Set: CC-PVTZ
  Basis Set:
  @DF-RHF Final Energy:  -309.16350444618143
    Total Energy =                       -309.1635044461811503
  Basis Set: CC-PVTZ
  Basis Set:
  Charge       = 0
  Multiplicity = 1
  Basis Set: CC-PVTZ
  Basis Set:

    Orbital Energies (a.u.)
    -----------------------

    Doubly Occupied:

       1A    -20.543247     2A    -11.267157     3A    -11.215769
       4A    -11.214025     5A    -11.213408     6A    -11.213267
       7A    -11.206639     8A     -1.363314     9A     -1.110439
      10A     -1.003786    11A     -0.989537    12A     -0.845211
      13A     -0.837418    14A     -0.735711    15A     -0.696461
      16A     -0.665122    17A     -0.629379    18A     -0.592713
      19A     -0.580947    20A     -0.548290    21A     -0.530237
      22A     -0.519479    23A     -0.499965    24A     -0.488262
      25A     -0.464810    26A     -0.449621    27A     -0.427956
      28A     -0.415493

  @DF-RHF Final Energy:  -309.16350517755956

   => Energetics <=

    Nuclear Repulsion Energy =            332.0392127013981849
    One-Electron Energy =               -1077.8701049441040141
    Two-Electron Energy =                 436.6673870651464426
    DFT Exchange-Correlation Energy =       0.0000000000000000
    Empirical Dispersion Energy =           0.0000000000000000
    PCM Polarization Energy =               0.0000000000000000
    EFP Energy =                            0.0000000000000000
    Total Energy =                       -309.1635051775594434
    Molecular point group: c1
  Basis Set: CC-PVTZ
  Basis Set:

  -Total Gradient:
     Atom            X                  Y                   Z
    ------   -----------------  -----------------  -----------------
       1        0.000091349103     0.000311525728     0.000520355877
       2       -0.000105114267    -0.000511410388    -0.000629843402
       3       -0.000028164402     0.000725919567    -0.000001885851
       4        0.000024291022    -0.000523116638     0.000092804285
       5       -0.000007191245     0.000043554800     0.000004300720
       6        0.000016961330     0.000016207502     0.000003749023
       7       -0.000003794307    -0.000004871956     0.000005591520
       8        0.000000769259     0.000001962886    -0.000001539923
       9        0.000014269962     0.000011540088    -0.000029784331
      10       -0.000014314971    -0.000017253787    -0.000013258182
      11       -0.000011570437    -0.000001084831     0.000016983145
      12       -0.000018512683    -0.000022570678     0.000017574095
      13        0.000007075352     0.000015002604     0.000004526900
      14        0.000015738264     0.000003508678     0.000000804214
      15        0.000006605145    -0.000025791147     0.000009982630
      16       -0.000001844911    -0.000009060110    -0.000003855087
      17        0.000010805009     0.000000488428     0.000004378406
      18        0.000005389664    -0.000011909842    -0.000005111920
      19       -0.000002746885    -0.000002640902     0.000004227882

  **** Optimization is complete! (in 3 steps) ****
    Final optimized geometry and variables:
    Molecular point group: c1

    Geometry (in Angstrom), charge = 0, multiplicity = 1:

    H           -2.766705784615     0.598672735779    -0.385905163376
    O           -2.314323440356    -0.144489163212    -0.029739011918
    C           -0.943536036953    -0.064771240560    -0.329868686736
    H           -0.809849877417    -0.228041494819    -1.397903055591
    C           -0.230918093626    -1.181568506596     0.408566956855
    C           -0.353918985887     1.300259092588     0.051479803958
    H           -0.310865463566    -0.990363922296     1.473949100341
    H           -0.739740038075    -2.118870694093     0.223163902295
    C            1.245270830282    -1.268903917690    -0.017286830319
    H           -0.540208586200     2.008505415908    -0.751052705708
    H           -0.888188916079     1.662856126136     0.922724216312
    C            1.153672483312     1.231096274090     0.356303945543
    H            1.823235789074    -1.687066716665     0.799018941695
    H            1.349315262759    -1.958005960247    -0.848066479347
    C            1.825993616360     0.099963739477    -0.417056199073
    H            1.622860434623     2.180732361617     0.127855614944
    H            1.302580159563     1.065668210912     1.418697270462
    H            2.896831876938     0.111484246471    -0.250395475692
    H            1.683204242729     0.265487170632    -1.480916490508

  Mulliken Charges: (a.u.)
   Center  Symbol    Alpha    Beta     Spin     Total
       1     H     0.39634  0.39634  0.00000  0.20731
       2     O     4.20020  4.20020  0.00000 -0.40041
       3     C     2.92295  2.92295  0.00000  0.15409
       4     H     0.46315  0.46315  0.00000  0.07370
       5     C     3.09805  3.09805  0.00000 -0.19610
       6     C     3.12372  3.12372  0.00000 -0.24744
       7     H     0.45465  0.45465  0.00000  0.09071
       8     H     0.44029  0.44029  0.00000  0.11942
       9     C     3.11373  3.11373  0.00000 -0.22747
      10     H     0.45042  0.45042  0.00000  0.09915
      11     H     0.44647  0.44647  0.00000  0.10707
      12     C     3.10092  3.10092  0.00000 -0.20184
      13     H     0.44709  0.44709  0.00000  0.10582
      14     H     0.44740  0.44740  0.00000  0.10521
      15     C     3.10256  3.10256  0.00000 -0.20512
      16     H     0.44265  0.44265  0.00000  0.11471
      17     H     0.45247  0.45247  0.00000  0.09506
      18     H     0.44282  0.44282  0.00000  0.11437
      19     H     0.45412  0.45412  0.00000  0.09175

   Total alpha = 28.00000, Total beta = 28.00000, Total charge = -0.00000
