  ==> Input File <==

--------------------------------------------------------------------------
set {
	reference rhf
	basis 6-31G*
}

set_num_threads( 4 )
memory 2 gb

molecule MOL {
0 1

H	 2.176868	 -0.646004	 -0.217325
O	 1.337496	 -0.537251	 0.205931
C	 0.702312	 0.627605	 -0.264544
C	 -0.714990	 0.596302	 0.266387
H	 0.682322	 0.642550	 -1.350929
H	 1.215941	 1.520383	 0.085680
O	 -1.405996	 -0.526611	 -0.195820
H	 -1.257453	 1.468809	 -0.075599
H	 -0.688972	 0.618407	 1.353696
H	 -1.424473	 -0.484463	 -1.143393

	symmetry c1
}
set optking {
	frozen_dihedral = ("
		10 7 4 3
	")
}

ee = optimize('scf')
oeprop('DIPOLE', 'QUADRUPOLE', 'MULLIKEN_CHARGES')
f=open( 'psi4out.xyz', 'w' )
f.write( "10  " )
f.write( str(ee) + "\n" )
f.write( MOL.save_string_xyz() )
f.close()
--------------------------------------------------------------------------

    Molecular point group: c1
  Charge       = 0
  Multiplicity = 1
  Basis Set: 6-31G*
  Basis Set:
  @DF-RHF Final Energy:  -228.91640486655967
    Total Energy =                       -228.9164048665597591
    Molecular point group: c1
  Basis Set: 6-31G*
  Basis Set:
  Basis Set: 6-31G*
  Basis Set:
  @DF-RHF Final Energy:  -228.91860154577492
    Total Energy =                       -228.9186015457747772
  Basis Set: 6-31G*
  Basis Set:
  Basis Set: 6-31G*
  Basis Set:
  @DF-RHF Final Energy:  -228.91886194941131
    Total Energy =                       -228.9188619494113084
  Basis Set: 6-31G*
  Basis Set:
  Basis Set: 6-31G*
  Basis Set:
  @DF-RHF Final Energy:  -228.91887788514887
    Total Energy =                       -228.9188778851489303
  Basis Set: 6-31G*
  Basis Set:
  Basis Set: 6-31G*
  Basis Set:
  @DF-RHF Final Energy:  -228.91887895133041
    Total Energy =                       -228.9188789513304982
  Basis Set: 6-31G*
  Basis Set:
  Charge       = 0
  Multiplicity = 1
  Basis Set: 6-31G*
  Basis Set:

    Orbital Energies (a.u.)
    -----------------------

    Doubly Occupied:

       1A    -20.558769     2A    -20.553028     3A    -11.277015
       4A    -11.270336     5A     -1.375309     6A     -1.353572
       7A     -1.002721     8A     -0.845539     9A     -0.720164
      10A     -0.674876    11A     -0.657571    12A     -0.597498
      13A     -0.570600    14A     -0.540199    15A     -0.477915
      16A     -0.445749    17A     -0.436765

  @DF-RHF Final Energy:  -228.91887901007084

   => Energetics <=

    Nuclear Repulsion Energy =            133.3759149629833587
    One-Electron Energy =                -577.8743379186494167
    Two-Electron Energy =                 215.5795439455952476
    DFT Exchange-Correlation Energy =       0.0000000000000000
    Empirical Dispersion Energy =           0.0000000000000000
    PCM Polarization Energy =               0.0000000000000000
    EFP Energy =                            0.0000000000000000
    Total Energy =                       -228.9188790100708104
    Molecular point group: c1
  Basis Set: 6-31G*
  Basis Set:

  -Total Gradient:
     Atom            X                  Y                   Z
    ------   -----------------  -----------------  -----------------
       1       -0.000001089447    -0.000008161028     0.000004294460
       2        0.000011470269    -0.000004948345    -0.000006921172
       3        0.000021290773    -0.000037422715     0.000040890981
       4       -0.000036472878     0.000044387491    -0.000031670276
       5        0.000002058062     0.000008131118    -0.000009194394
       6       -0.000009621560     0.000007374049    -0.000007167017
       7        0.000072244537    -0.000037762960     0.000005910453
       8       -0.000008656551    -0.000002164134     0.000003240187
       9       -0.000001582020     0.000004534610     0.000001993706
      10       -0.000049641186     0.000026031917    -0.000001376927

  **** Optimization is complete! (in 6 steps) ****
    Final optimized geometry and variables:
    Molecular point group: c1

    Geometry (in Angstrom), charge = 0, multiplicity = 1:

    H            2.274979362180    -0.567611469139    -0.107729801184
    O            1.394445814361    -0.544423077334     0.238625766270
    C            0.721041301057     0.577081628704    -0.255008391091
    C           -0.700562967707     0.573451441087     0.270953746639
    H            0.707204877244     0.575646950096    -1.346230850649
    H            1.206279693529     1.499456612113     0.062585425121
    O           -1.461769439020    -0.509854705109    -0.177585913391
    H           -1.171991142924     1.519660918458     0.006288382003
    H           -0.678193795118     0.501485678567     1.349612155317
    H           -1.513636222945    -0.495685369120    -1.123130688137

  Mulliken Charges: (a.u.)
   Center  Symbol    Alpha    Beta     Spin     Total
       1     H     0.27968  0.27968  0.00000  0.44064
       2     O     4.36160  4.36160  0.00000 -0.72321
       3     C     3.00883  3.00883  0.00000 -0.01766
       4     C     2.99721  2.99721  0.00000  0.00557
       5     H     0.43711  0.43711  0.00000  0.12577
       6     H     0.43032  0.43032  0.00000  0.13936
       7     O     4.36259  4.36259  0.00000 -0.72518
       8     H     0.43181  0.43181  0.00000  0.13638
       9     H     0.40716  0.40716  0.00000  0.18568
      10     H     0.28368  0.28368  0.00000  0.43264

   Total alpha = 17.00000, Total beta = 17.00000, Total charge =  0.00000
