  ==> Input File <==

--------------------------------------------------------------------------
set {
	reference rhf
	basis 6-31G*
}

set_num_threads( 4 )
memory 2 gb

molecule MOL {
0 1

H	 2.591676	 2.013956	 0.335017
O	 3.341076	 1.666752	 -0.126416
C	 3.569581	 0.339145	 0.272707
C	 2.539767	 -0.640285	 -0.279495
H	 4.553106	 0.084646	 -0.100901
H	 3.608576	 0.269204	 1.359154
C	 1.115811	 -0.397273	 0.226630
H	 2.556196	 -0.582511	 -1.364741
H	 2.852081	 -1.648031	 -0.010655
C	 0.119944	 -0.143742	 -0.908618
H	 1.117718	 0.452121	 0.904046
H	 0.785260	 -1.259659	 0.805740
C	 -1.337333	 0.021179	 -0.461981
H	 0.428136	 0.739925	 -1.464494
H	 0.173559	 -0.975291	 -1.608156
C	 -1.616755	 1.271305	 0.376820
H	 -1.965451	 0.051977	 -1.349863
H	 -1.644899	 -0.862845	 0.094564
C	 -3.100141	 1.447304	 0.708523
H	 -1.262966	 2.150333	 -0.160074
H	 -1.051619	 1.233276	 1.304978
C	 -3.381014	 2.690976	 1.551170
H	 -3.671620	 1.501345	 -0.215586
H	 -3.457820	 0.565710	 1.236484
H	 -3.064036	 3.593387	 1.035997
H	 -4.440331	 2.788870	 1.767736
H	 -2.852330	 2.650191	 2.499428

	symmetry c1
}
set optking {
	frozen_dihedral = ("
		10 7 4 8
	")
}

ee = optimize('scf')
oeprop('DIPOLE', 'QUADRUPOLE', 'MULLIKEN_CHARGES')
f=open( 'psi4out.xyz', 'w' )
f.write( "27  " )
f.write( str(ee) + "\n" )
f.write( MOL.save_string_xyz() )
f.close()
--------------------------------------------------------------------------

    Molecular point group: c1
  Charge       = 0
  Multiplicity = 1
  Basis Set: 6-31G*
  Basis Set:
  @DF-RHF Final Energy:  -388.27624934286877
    Total Energy =                       -388.2762493428690505
    Molecular point group: c1
  Basis Set: 6-31G*
  Basis Set:
  Basis Set: 6-31G*
  Basis Set:
  @DF-RHF Final Energy:  -388.27653882235046
    Total Energy =                       -388.2765388223499485
  Basis Set: 6-31G*
  Basis Set:
  Basis Set: 6-31G*
  Basis Set:
  @DF-RHF Final Energy:  -388.27661467493510
    Total Energy =                       -388.2766146749352174
  Basis Set: 6-31G*
  Basis Set:
  Basis Set: 6-31G*
  Basis Set:
  @DF-RHF Final Energy:  -388.27661816284149
    Total Energy =                       -388.2766181628414870
  Basis Set: 6-31G*
  Basis Set:
  Basis Set: 6-31G*
  Basis Set:
  @DF-RHF Final Energy:  -388.27662627321581
    Total Energy =                       -388.2766262732158111
  Basis Set: 6-31G*
  Basis Set:
  Basis Set: 6-31G*
  Basis Set:
  @DF-RHF Final Energy:  -388.27662883616813
    Total Energy =                       -388.2766288361680154
  Basis Set: 6-31G*
  Basis Set:
  Charge       = 0
  Multiplicity = 1
  Basis Set: 6-31G*
  Basis Set:

    Orbital Energies (a.u.)
    -----------------------

    Doubly Occupied:

       1A    -20.551980     2A    -11.266766     3A    -11.220933
       4A    -11.216944     5A    -11.216883     6A    -11.215977
       7A    -11.215391     8A    -11.215292     9A    -11.210182
      10A     -1.358808    11A     -1.094713    12A     -1.060433
      13A     -1.011358    14A     -0.949041    15A     -0.887983
      16A     -0.821342    17A     -0.803037    18A     -0.778730
      19A     -0.693371    20A     -0.650768    21A     -0.641686
      22A     -0.612353    23A     -0.594673    24A     -0.583412
      25A     -0.576258    26A     -0.557606    27A     -0.541869
      28A     -0.533874    29A     -0.510434    30A     -0.494609
      31A     -0.488178    32A     -0.471389    33A     -0.466615
      34A     -0.457784    35A     -0.452498    36A     -0.440846
      37A     -0.424170

  @DF-RHF Final Energy:  -388.27662901993432

   => Energetics <=

    Nuclear Repulsion Energy =            464.6822866833974217
    One-Electron Energy =               -1447.3414563371648001
    Two-Electron Energy =                 594.3825406338334005
    DFT Exchange-Correlation Energy =       0.0000000000000000
    Empirical Dispersion Energy =           0.0000000000000000
    PCM Polarization Energy =               0.0000000000000000
    EFP Energy =                            0.0000000000000000
    Total Energy =                       -388.2766290199339210
    Molecular point group: c1
  Basis Set: 6-31G*
  Basis Set:

  -Total Gradient:
     Atom            X                  Y                   Z
    ------   -----------------  -----------------  -----------------
       1        0.000009005273    -0.000010722642     0.000006384687
       2        0.000018079596     0.000012548024    -0.000036350232
       3       -0.000044530358     0.000003203062     0.000042094158
       4       -0.000005204488    -0.000190662862    -0.000026593206
       5       -0.000016349043     0.000018180251    -0.000010739870
       6        0.000015270443    -0.000016835121     0.000009926799
       7        0.000016401010     0.000151344877     0.000039172103
       8        0.000031325654     0.000103770997     0.000010369500
       9        0.000013289681    -0.000003459449    -0.000014739572
      10       -0.000040778446    -0.000082786899    -0.000007288329
      11       -0.000012400550    -0.000009743904     0.000004513185
      12        0.000004600423     0.000017336110     0.000001773802
      13        0.000014354198    -0.000008849092     0.000004479576
      14       -0.000004439482     0.000006781416     0.000003614285
      15       -0.000019303592     0.000002882816    -0.000014648963
      16       -0.000000734469     0.000008796325    -0.000001946576
      17        0.000021224433    -0.000011135139    -0.000010821353
      18        0.000002449592    -0.000002180796     0.000004984601
      19        0.000002743191    -0.000000213192     0.000000229012
      20       -0.000002174697     0.000010174386    -0.000006536012
      21       -0.000004176480     0.000004147313    -0.000002936872
      22        0.000000484649    -0.000003267937     0.000005597890
      23        0.000001987366     0.000005162413     0.000001874462
      24       -0.000001372449    -0.000003719627    -0.000003134435
      25       -0.000000201300    -0.000001075102    -0.000001049428
      26        0.000000370371    -0.000000429963     0.000000915433
      27        0.000000079466     0.000000753732     0.000000855354

  **** Optimization is complete! (in 7 steps) ****
    Final optimized geometry and variables:
    Molecular point group: c1

    Geometry (in Angstrom), charge = 0, multiplicity = 1:

    H            2.377817309019     1.271128341721     0.105083639740
    O            3.163089644921     0.935893080570    -0.303248993055
    C            3.392882524940    -0.383351829262     0.121795443908
    C            2.374317026232    -1.369728187314    -0.437873336432
    H            4.383836933395    -0.636844959298    -0.232233458530
    H            3.413028253242    -0.436414299592     1.209596287102
    C            0.930207148124    -1.137567343920     0.063950519819
    H            2.407244565593    -1.296850340757    -1.520921796563
    H            2.700156595642    -2.375439807973    -0.185058874888
    C           -0.066537534364    -0.869462712679    -1.068393321054
    H            0.912430135779    -0.308159556499     0.767551989135
    H            0.594103106174    -2.001481085241     0.631303917655
    C           -1.522823555831    -0.702972466429    -0.621057797983
    H            0.249102048708     0.015201059851    -1.618744205894
    H           -0.014193739687    -1.696324661482    -1.773300274862
    C           -1.800855526262     0.546453825448     0.219637268020
    H           -2.151135693176    -0.669709878064    -1.508640973637
    H           -1.831754451136    -1.587063770381    -0.065364066883
    C           -3.284329542749     0.725990933993     0.549133908176
    H           -1.444781257071     1.425851405041    -0.315795476175
    H           -1.238476421552     0.505075421707     1.149543787001
    C           -3.563376082453     1.968344976971     1.394281380802
    H           -3.853652073378     0.783804271855    -0.375990057128
    H           -3.645082119926    -0.155943227380     1.074278980796
    H           -3.243204626104     2.871236017656     0.881864811656
    H           -4.622813617706     2.068554729503     1.608961956408
    H           -3.036840995418     1.923708998723     2.343591644356

  Mulliken Charges: (a.u.)
   Center  Symbol    Alpha    Beta     Spin     Total
       1     H     0.27946  0.27946  0.00000  0.44108
       2     O     4.37160  4.37160  0.00000 -0.74320
       3     C     2.99937  2.99937  0.00000  0.00127
       4     C     3.16432  3.16432  0.00000 -0.32864
       5     H     0.41524  0.41524  0.00000  0.16953
       6     H     0.43169  0.43169  0.00000  0.13662
       7     C     3.16386  3.16386  0.00000 -0.32773
       8     H     0.41187  0.41187  0.00000  0.17626
       9     H     0.42097  0.42097  0.00000  0.15807
      10     C     3.15525  3.15525  0.00000 -0.31051
      11     H     0.42925  0.42925  0.00000  0.14150
      12     H     0.41810  0.41810  0.00000  0.16380
      13     C     3.15408  3.15408  0.00000 -0.30817
      14     H     0.41989  0.41989  0.00000  0.16022
      15     H     0.41972  0.41972  0.00000  0.16057
      16     C     3.15343  3.15343  0.00000 -0.30686
      17     H     0.42076  0.42076  0.00000  0.15848
      18     H     0.42384  0.42384  0.00000  0.15233
      19     C     3.15095  3.15095  0.00000 -0.30191
      20     H     0.42480  0.42480  0.00000  0.15039
      21     H     0.42407  0.42407  0.00000  0.15186
      22     C     3.23938  3.23938  0.00000 -0.47875
      23     H     0.42244  0.42244  0.00000  0.15512
      24     H     0.42283  0.42283  0.00000  0.15433
      25     H     0.42161  0.42161  0.00000  0.15678
      26     H     0.41887  0.41887  0.00000  0.16225
      27     H     0.42234  0.42234  0.00000  0.15532

   Total alpha = 37.00000, Total beta = 37.00000, Total charge =  0.00000
