  ==> Input File <==

--------------------------------------------------------------------------
set {
	reference rhf
	basis cc-pvtz
}

set_num_threads( 4 )
memory 2 gb

molecule MOL {
0 1

H	 -3.034039	 -0.667848	 0.004703
O	 -2.240597	 -1.171748	 0.000934
C	 -1.159675	 -0.364500	 0.000370
C	 -0.034452	 -0.634700	 -0.751481
C	 -1.213824	 0.769382	 0.796255
H	 0.010437	 -1.514149	 -1.367608
C	 1.036084	 0.241213	 -0.697109
H	 -2.102264	 0.949118	 1.370105
C	 -0.146312	 1.642983	 0.847447
H	 1.914447	 0.032804	 -1.278330
C	 0.988988	 1.368621	 0.091268
C	 -0.214386	 2.888513	 1.694598
H	 1.829084	 2.036174	 0.124012
H	 0.712821	 3.044234	 2.232054
H	 -1.018111	 2.831088	 2.416037
H	 -0.384536	 3.762761	 1.075418

	symmetry c1
}
set optking {
	frozen_dihedral = ("
		5 3 2 1
	")
}

ee = optimize('scf')
oeprop('DIPOLE', 'QUADRUPOLE', 'MULLIKEN_CHARGES')
f=open( 'psi4out.xyz', 'w' )
f.write( "16  " )
f.write( str(ee) + "\n" )
f.write( MOL.save_string_xyz() )
f.close()
--------------------------------------------------------------------------

    Molecular point group: c1
  Charge       = 0
  Multiplicity = 1
  Basis Set: CC-PVTZ
  Basis Set:
  @DF-RHF Final Energy:  -344.71712232310568
    Total Energy =                       -344.7171223231055137
    Molecular point group: c1
  Basis Set: CC-PVTZ
  Basis Set:
  Basis Set: CC-PVTZ
  Basis Set:
  @DF-RHF Final Energy:  -344.71866420301376
    Total Energy =                       -344.7186642030141002
  Basis Set: CC-PVTZ
  Basis Set:
  Basis Set: CC-PVTZ
  Basis Set:
  @DF-RHF Final Energy:  -344.71877329936785
    Total Energy =                       -344.7187732993683653
  Basis Set: CC-PVTZ
  Basis Set:
  Basis Set: CC-PVTZ
  Basis Set:
  @DF-RHF Final Energy:  -344.71878622159744
    Total Energy =                       -344.7187862215974974
  Basis Set: CC-PVTZ
  Basis Set:
  @DF-RHF Final Energy:  -344.71879072127012
    Total Energy =                       -344.7187907212700111
  @DF-RHF Final Energy:  -344.71879266503913
    Total Energy =                       -344.7187926650390182
  @DF-RHF Final Energy:  -344.71879688156218
    Total Energy =                       -344.7187968815619570
  @DF-RHF Final Energy:  -344.71880646035459
    Total Energy =                       -344.7188064603545854
  @DF-RHF Final Energy:  -344.71881598690965
    Total Energy =                       -344.7188159869097035
  @DF-RHF Final Energy:  -344.71845553943331
    Total Energy =                       -344.7184555394336485
  @DF-RHF Final Energy:  -344.71883363192467
    Total Energy =                       -344.7188336319240989
  Basis Set: CC-PVTZ
  Basis Set:
  @DF-RHF Final Energy:  -344.71883886973706
    Total Energy =                       -344.7188388697367714
  Basis Set: CC-PVTZ
  Basis Set:
  Basis Set: CC-PVTZ
  Basis Set:
  @DF-RHF Final Energy:  -344.71884026575361
    Total Energy =                       -344.7188402657535562
  Basis Set: CC-PVTZ
  Basis Set:
  Basis Set: CC-PVTZ
  Basis Set:
  @DF-RHF Final Energy:  -344.71884260501230
    Total Energy =                       -344.7188426050121279
  Basis Set: CC-PVTZ
  Basis Set:
  Charge       = 0
  Multiplicity = 1
  Basis Set: CC-PVTZ
  Basis Set:

    Orbital Energies (a.u.)
    -----------------------

    Doubly Occupied:

       1A    -20.577600     2A    -11.291960     3A    -11.241760
       4A    -11.230789     5A    -11.221610     6A    -11.219310
       7A    -11.216005     8A    -11.215381     9A     -1.406697
      10A     -1.154696    11A     -1.047468    12A     -1.006904
      13A     -0.940461    14A     -0.841211    15A     -0.803685
      16A     -0.730064    17A     -0.682597    18A     -0.652845
      19A     -0.614385    20A     -0.595882    21A     -0.579151
      22A     -0.569810    23A     -0.560934    24A     -0.530496
      25A     -0.506237    26A     -0.485084    27A     -0.471032
      28A     -0.333487    29A     -0.315068

  @DF-RHF Final Energy:  -344.71884328672360

   => Energetics <=

    Nuclear Repulsion Energy =            346.2019626927745435
    One-Electron Energy =               -1153.7564018977627711
    Two-Electron Energy =                 462.8355959182650281
    DFT Exchange-Correlation Energy =       0.0000000000000000
    Empirical Dispersion Energy =           0.0000000000000000
    PCM Polarization Energy =               0.0000000000000000
    EFP Energy =                            0.0000000000000000
    Total Energy =                       -344.7188432867232564
    Molecular point group: c1
  Basis Set: CC-PVTZ
  Basis Set:

  -Total Gradient:
     Atom            X                  Y                   Z
    ------   -----------------  -----------------  -----------------
       1        0.000024258307     0.000125967925    -0.002690047095
       2        0.000495914396    -0.000760953587     0.004274744388
       3       -0.001467123618     0.001898175820    -0.003236318890
       4       -0.000010469934    -0.000154624196     0.000114403120
       5        0.000919016852    -0.001174544875     0.001558921424
       6        0.000000915045     0.000025309722    -0.000012035471
       7        0.000082070722     0.000042594747    -0.000012785484
       8       -0.000036103820     0.000019684942     0.000016480221
       9       -0.000076890764     0.000000104714     0.000044878418
      10        0.000014533389     0.000022929093    -0.000007236504
      11        0.000054393979     0.000015793729    -0.000043204762
      12       -0.000020869575    -0.000029006574     0.000032525244
      13        0.000027542381    -0.000033304246    -0.000010624334
      14       -0.000003511323     0.000001866811     0.000004021211
      15       -0.000010473397     0.000009070418    -0.000006718131
      16        0.000006797362    -0.000009064446    -0.000027003356

  **** Optimization is complete! (in 15 steps) ****
    Final optimized geometry and variables:
    Molecular point group: c1

    Geometry (in Angstrom), charge = 0, multiplicity = 1:

    H           -2.619258721132    -1.300078094154    -0.351307255281
    O           -1.802104681561    -1.765193940211    -0.346747356715
    C           -0.756722657143    -0.902719739193    -0.285291901118
    C            0.386745735862    -1.215749071182    -0.997148945667
    C           -0.794963596541     0.222926172643     0.514153234556
    H            0.403784379208    -2.100127868510    -1.602577234978
    C            1.479663206257    -0.380880766339    -0.905233932292
    H           -1.682847314643     0.433447799862     1.083296875450
    C            0.299103251021     1.072312315901     0.595379860702
    H            2.371907362102    -0.617836718130    -1.453382625443
    C            1.441362632905     0.758028088093    -0.120414987873
    C            0.229289416816     2.317396796489     1.443292454009
    H            2.302457397471     1.396203980296    -0.063188961720
    H            1.218448130867     2.686352584936     1.678757035185
    H           -0.291002509952     2.129029184309     2.374170301868
    H           -0.303667721191     3.106505144915     0.923337011527

  Mulliken Charges: (a.u.)
   Center  Symbol    Alpha    Beta     Spin     Total
       1     H     0.38589  0.38589  0.00000  0.22822
       2     O     4.18241  4.18241  0.00000 -0.36482
       3     C     2.85055  2.85055  0.00000  0.29889
       4     C     3.12339  3.12339  0.00000 -0.24677
       5     C     3.14987  3.14987  0.00000 -0.29974
       6     H     0.41798  0.41798  0.00000  0.16404
       7     C     3.05142  3.05142  0.00000 -0.10285
       8     H     0.43054  0.43054  0.00000  0.13893
       9     C     2.94452  2.94452  0.00000  0.11095
      10     H     0.42290  0.42290  0.00000  0.15420
      11     C     3.11995  3.11995  0.00000 -0.23991
      12     C     3.14701  3.14701  0.00000 -0.29402
      13     H     0.42693  0.42693  0.00000  0.14613
      14     H     0.44950  0.44950  0.00000  0.10101
      15     H     0.44948  0.44948  0.00000  0.10104
      16     H     0.44764  0.44764  0.00000  0.10472

   Total alpha = 29.00000, Total beta = 29.00000, Total charge = -0.00000
