                              Psi4 1.0.54 Driver

  ==> Input File <==

--------------------------------------------------------------------------
set {
	reference rhf
	basis cc-pvtz
}

set_num_threads( 4 )
memory 2 gb

molecule MOL {
0 1

H	 -2.113402	 -1.135035	 -1.124254
N	 -1.401579	 -0.436304	 -1.149882
C	 -0.561396	 -0.500007	 0.035200
H	 -1.859604	 0.448745	 -1.214976
C	 0.575129	 0.507849	 -0.048832
H	 -0.146640	 -1.500820	 0.094940
H	 -1.116954	 -0.336059	 0.959803
C	 1.951750	 -0.141983	 0.035101
H	 0.478254	 1.061643	 -0.975981
H	 0.467676	 1.231891	 0.755499
H	 2.101550	 -0.848142	 -0.774949
H	 2.738260	 0.600794	 -0.026526
H	 2.078939	 -0.679792	 0.968824

	symmetry c1
}
set optking {
	frozen_dihedral = ("
		6 3 5 9
	")
}

ee,wfn = optimize('scf', return_wfn=True)
oeprop( wfn, 'DIPOLE', 'QUADRUPOLE', 'MULLIKEN_CHARGES')
f=open( 'psi4out.xyz', 'w' )
f.write( "13  " )
f.write( str(ee) + "\n" )
f.write( MOL.save_string_xyz() )
f.close()
--------------------------------------------------------------------------

    Molecular point group: c1
  Charge       = 0
  Multiplicity = 1
  Basis Set: CC-PVTZ
  Basis Set:
  @DF-RHF Final Energy:  -173.34618230209344
    Total Energy =                       -173.3461823020933821
    Molecular point group: c1
  Basis Set: CC-PVTZ
  Basis Set:
  Basis Set: CC-PVTZ
  Basis Set:
  @DF-RHF Final Energy:  -173.34647666859848
    Total Energy =                       -173.3464766685984841
  Basis Set: CC-PVTZ
  Basis Set:
  Basis Set: CC-PVTZ
  Basis Set:
  @DF-RHF Final Energy:  -173.34656855354567
    Total Energy =                       -173.3465685535456942
  Basis Set: CC-PVTZ
  Basis Set:
  Charge       = 0
  Multiplicity = 1
  Basis Set: CC-PVTZ
  Basis Set:

    Orbital Energies (a.u.)
    -----------------------

    Doubly Occupied:

       1A    -15.527347     2A    -11.238395     3A    -11.210231
       4A    -11.205224     5A     -1.177494     6A     -1.032887
       7A     -0.898418     8A     -0.800737     9A     -0.655078
      10A     -0.640045    11A     -0.595749    12A     -0.567034
      13A     -0.533015    14A     -0.487447    15A     -0.476016
      16A     -0.468884    17A     -0.382654

  @DF-RHF Final Energy:  -173.34656936902766

   => Energetics <=

    Nuclear Repulsion Energy =            132.0375311142470593
    One-Electron Energy =                -494.9748853055211271
    Two-Electron Energy =                 189.5907848222463485
    DFT Exchange-Correlation Energy =       0.0000000000000000
    Empirical Dispersion Energy =           0.0000000000000000
    PCM Polarization Energy =               0.0000000000000000
    EFP Energy =                            0.0000000000000000
    Total Energy =                       -173.3465693690276908
    Molecular point group: c1
  Basis Set: CC-PVTZ
  Basis Set:

  -Total Gradient:
     Atom            X                  Y                   Z
    ------   -----------------  -----------------  -----------------
       1       -0.000010420202    -0.000007704441    -0.000019207852
       2        0.000012910894    -0.000044303104     0.000076996711
       3       -0.000102046522     0.000113185526    -0.000564887857
       4        0.000031447912    -0.000017054939     0.000027043577
       5        0.000339562643    -0.000352486174    -0.000100286973
       6       -0.000015354602     0.000021982092     0.000364875465
       7       -0.000002897063    -0.000012793284     0.000027100768
       8       -0.000023237580     0.000027255831     0.000010678125
       9       -0.000232806851     0.000276580381     0.000167607301
      10        0.000002781090     0.000000277589    -0.000003848621
      11       -0.000010738215    -0.000005073842     0.000011237851
      12        0.000001822297     0.000001826160    -0.000007219109
      13        0.000008976200    -0.000001691795     0.000009910614

  **** Optimization is complete! (in 4 steps) ****
    Final optimized geometry and variables:
    Molecular point group: c1

    Geometry (in Angstrom), charge = 0, multiplicity = 1:

    H           -2.242037168328    -0.983311960236    -0.827321677748
    N           -1.519844507494    -0.295004235880    -0.864568693756
    C           -0.684893663751    -0.352148309944     0.327709054114
    H           -1.967926295372     0.594478325695    -0.940778187576
    C            0.470764327054     0.661549712524     0.252391756711
    H           -0.283548350670    -1.356661471933     0.392896627047
    H           -1.253316911510    -0.190379765482     1.242738051847
    C            1.851322210347     0.016673777936     0.322632295999
    H            0.382733363105     1.212521428223    -0.676845226883
    H            0.376745461606     1.388599910153     1.052402040011
    H            1.991198057127    -0.683161363501    -0.493906853432
    H            2.636544231866     0.761713906321     0.262385481037
    H            1.983084483988    -0.527428137693     1.252361557718

  Mulliken Charges: (a.u.)
   Center  Symbol    Alpha    Beta     Spin     Total
       1     H     0.42992  0.42992  0.00000  0.14016
       2     N     3.68822  3.68822  0.00000 -0.37645
       3     C     3.02803  3.02803  0.00000 -0.05605
       4     H     0.43078  0.43078  0.00000  0.13844
       5     C     3.08179  3.08179  0.00000 -0.16357
       6     H     0.45930  0.45930  0.00000  0.08139
       7     H     0.46529  0.46529  0.00000  0.06942
       8     C     3.14947  3.14947  0.00000 -0.29894
       9     H     0.45369  0.45369  0.00000  0.09262
      10     H     0.45442  0.45442  0.00000  0.09116
      11     H     0.45146  0.45146  0.00000  0.09708
      12     H     0.45104  0.45104  0.00000  0.09792
      13     H     0.45659  0.45659  0.00000  0.08682

   Total alpha = 17.00000, Total beta = 17.00000, Total charge = -0.00000

*** Psi4 exiting successfully. Buy a developer a beer!
