  ==> Input File <==

--------------------------------------------------------------------------
set {
	reference rhf
	basis 6-31G*
}

set_num_threads( 4 )
memory 2 gb

molecule MOL {
0 1

H	 2.332609	 0.878551	 -1.051851
C	 2.357710	 0.000000	 -0.417167
C	 1.175432	 0.000000	 0.532082
H	 3.291263	 0.000000	 0.136880
H	 2.332609	 -0.878551	 -1.051851
O	 0.000000	 0.000000	 -0.221444
H	 1.206604	 0.877321	 1.177902
H	 1.206604	 -0.877321	 1.177902
C	 -1.175432	 0.000000	 0.532082
C	 -2.167571	 -0.942636	 -0.120568
H	 -1.586856	 1.007822	 0.584744
H	 -0.965760	 -0.316691	 1.553596
H	 -2.384556	 -0.621017	 -1.132884
H	 -3.096177	 -0.967163	 0.441196
H	 -1.762590	 -1.947387	 -0.162674

	symmetry c1
}
set optking {
	frozen_dihedral = ("
		11 9 6 3
	")
}

ee = optimize('scf')
oeprop('DIPOLE', 'QUADRUPOLE', 'MULLIKEN_CHARGES')
f=open( 'psi4out.xyz', 'w' )
f.write( "15  " )
f.write( str(ee) + "\n" )
f.write( MOL.save_string_xyz() )
f.close()
--------------------------------------------------------------------------

    Molecular point group: c1
  Charge       = 0
  Multiplicity = 1
  Basis Set: 6-31G*
  Basis Set:
  @DF-RHF Final Energy:  -232.14160897936361
    Total Energy =                       -232.1416089793635820
    Molecular point group: c1
  Basis Set: 6-31G*
  Basis Set:
  Basis Set: 6-31G*
  Basis Set:
  @DF-RHF Final Energy:  -232.14179155851704
    Total Energy =                       -232.1417915585171841
  Basis Set: 6-31G*
  Basis Set:
  Basis Set: 6-31G*
  Basis Set:
  @DF-RHF Final Energy:  -232.14185436690158
    Total Energy =                       -232.1418543669016117
  Basis Set: 6-31G*
  Basis Set:
  Charge       = 0
  Multiplicity = 1
  Basis Set: 6-31G*
  Basis Set:

    Orbital Energies (a.u.)
    -----------------------

    Doubly Occupied:

       1A    -20.548739     2A    -11.268810     3A    -11.267780
       4A    -11.208573     5A    -11.208265     6A     -1.374051
       7A     -1.043261     8A     -0.982488     9A     -0.848811
      10A     -0.824184    11A     -0.672579    12A     -0.664461
      13A     -0.621598    14A     -0.583403    15A     -0.549351
      16A     -0.533798    17A     -0.522157    18A     -0.497526
      19A     -0.486230    20A     -0.463730    21A     -0.406015

  @DF-RHF Final Energy:  -232.14185504028325

   => Energetics <=

    Nuclear Repulsion Energy =            191.1488055042509586
    One-Electron Energy =                -693.4297003048128545
    Two-Electron Energy =                 270.1390397602787061
    DFT Exchange-Correlation Energy =       0.0000000000000000
    Empirical Dispersion Energy =           0.0000000000000000
    PCM Polarization Energy =               0.0000000000000000
    EFP Energy =                            0.0000000000000000
    Total Energy =                       -232.1418550402831897
    Molecular point group: c1
  Basis Set: 6-31G*
  Basis Set:

  -Total Gradient:
     Atom            X                  Y                   Z
    ------   -----------------  -----------------  -----------------
       1       -0.000007434128    -0.000010023897     0.000012792077
       2        0.000006223129    -0.000008444809     0.000002620999
       3        0.000050594950    -0.002030358217    -0.000012064640
       4        0.000029493620    -0.000002879101    -0.000001576718
       5        0.000001177302     0.000005882776     0.000001535674
       6       -0.000424503121     0.002848960027    -0.000520355311
       7       -0.000012190358    -0.000010512509    -0.000005523096
       8       -0.000019363145     0.000007856777    -0.000014731990
       9        0.001718837059    -0.000375126644     0.002611015573
      10       -0.000003553871     0.000043642847     0.000008675783
      11       -0.001326359601    -0.000473711106    -0.002110687257
      12       -0.000017449925    -0.000005167197     0.000024942125
      13       -0.000004604153    -0.000007362852    -0.000010593959
      14       -0.000006512356     0.000001616101     0.000002951204
      15        0.000015644602     0.000015627801     0.000010999537

  **** Optimization is complete! (in 4 steps) ****
    Final optimized geometry and variables:
    Molecular point group: c1

    Geometry (in Angstrom), charge = 0, multiplicity = 1:

    H            2.285365552636     1.075456001046    -1.127068623459
    C            2.320043397055     0.198039257054    -0.491296402975
    C            1.151919407749     0.199278582678     0.475068010030
    H            3.261900571458     0.199055762964     0.048867239247
    H            2.285011923842    -0.681574761327    -1.124139629666
    O           -0.033599288362     0.188907936102    -0.264536753647
    H            1.193268889577     1.079899267476     1.115385305912
    H            1.195287198159    -0.674700597964     1.123754694083
    C           -1.221487973802     0.178181670295     0.478596884661
    C           -2.218754839501    -0.750804042260    -0.191221140615
    H           -1.630343330781     1.185310557687     0.518762661408
    H           -1.032923731307    -0.146640354152     1.498729909987
    H           -2.394406437258    -0.438139280545    -1.214481750310
    H           -3.166938530201    -0.742216004621     0.338448700433
    H           -1.840661522064    -1.767235590846    -0.208373315258

  Mulliken Charges: (a.u.)
   Center  Symbol    Alpha    Beta     Spin     Total
       1     H     0.41325  0.41325  0.00000  0.17349
       2     C     3.24453  3.24453  0.00000 -0.48906
       3     C     2.98807  2.98807  0.00000  0.02387
       4     H     0.42272  0.42272  0.00000  0.15457
       5     H     0.41354  0.41354  0.00000  0.17293
       6     O     4.31144  4.31144  0.00000 -0.62288
       7     H     0.43223  0.43223  0.00000  0.13553
       8     H     0.43197  0.43197  0.00000  0.13605
       9     C     2.98781  2.98781  0.00000  0.02439
      10     C     3.24263  3.24263  0.00000 -0.48527
      11     H     0.42665  0.42665  0.00000  0.14670
      12     H     0.43129  0.43129  0.00000  0.13741
      13     H     0.41262  0.41262  0.00000  0.17475
      14     H     0.42405  0.42405  0.00000  0.15190
      15     H     0.41719  0.41719  0.00000  0.16562

   Total alpha = 21.00000, Total beta = 21.00000, Total charge =  0.00000
