  ==> Input File <==

--------------------------------------------------------------------------
set {
	reference rhf
	basis 6-31G*
}

set_num_threads( 4 )
memory 2 gb

molecule MOL {
0 1

H	 -0.261533	 3.653213	 1.703807
O	 -0.260245	 3.660926	 0.757062
C	 -0.200987	 2.345418	 0.274447
C	 1.190027	 1.759578	 0.440392
H	 -0.928357	 1.704844	 0.765320
H	 -0.453053	 2.384607	 -0.775970
O	 1.171513	 0.459272	 -0.058250
H	 1.474232	 1.762057	 1.494528
H	 1.911759	 2.375270	 -0.093095
C	 2.397842	 -0.198080	 -0.002151
H	 2.508049	 -0.905315	 -0.822092
H	 3.173794	 0.550865	 -0.078850
H	 2.517602	 -0.735921	 0.936026

	symmetry c1
}
set optking {
	frozen_dihedral = ("
		4 7 10 13
	")
}

ee = optimize('scf')
oeprop('DIPOLE', 'QUADRUPOLE', 'MULLIKEN_CHARGES')
f=open( 'psi4out.xyz', 'w' )
f.write( "13  " )
f.write( str(ee) + "\n" )
f.write( MOL.save_string_xyz() )
f.close()
--------------------------------------------------------------------------

    Molecular point group: c1
  Charge       = 0
  Multiplicity = 1
  Basis Set: 6-31G*
  Basis Set:
  @DF-RHF Final Energy:  -267.94747429810468
    Total Energy =                       -267.9474742981048507
    Molecular point group: c1
  Basis Set: 6-31G*
  Basis Set:
  Basis Set: 6-31G*
  Basis Set:
  @DF-RHF Final Energy:  -267.94850612762104
    Total Energy =                       -267.9485061276209308
  Basis Set: 6-31G*
  Basis Set:
  Basis Set: 6-31G*
  Basis Set:
  @DF-RHF Final Energy:  -267.94879896058762
    Total Energy =                       -267.9487989605879079
  Basis Set: 6-31G*
  Basis Set:
  Charge       = 0
  Multiplicity = 1
  Basis Set: 6-31G*
  Basis Set:

    Orbital Energies (a.u.)
    -----------------------

    Doubly Occupied:

       1A    -20.560681     2A    -20.559970     3A    -11.271089
       4A    -11.269918     5A    -11.268674     6A     -1.386571
       7A     -1.364767     8A     -1.018517     9A     -0.913467
      10A     -0.841552    11A     -0.709314    12A     -0.672697
      13A     -0.658441    14A     -0.637925    15A     -0.595275
      16A     -0.569923    17A     -0.546405    18A     -0.489569
      19A     -0.481604    20A     -0.438137    21A     -0.419339

  @DF-RHF Final Energy:  -267.94880071174384

   => Energetics <=

    Nuclear Repulsion Energy =            190.0647565805672343
    One-Electron Energy =                -742.6794471861314832
    Two-Electron Energy =                 284.6658898938204061
    DFT Exchange-Correlation Energy =       0.0000000000000000
    Empirical Dispersion Energy =           0.0000000000000000
    PCM Polarization Energy =               0.0000000000000000
    EFP Energy =                            0.0000000000000000
    Total Energy =                       -267.9488007117437860
    Molecular point group: c1
  Basis Set: 6-31G*
  Basis Set:

  -Total Gradient:
     Atom            X                  Y                   Z
    ------   -----------------  -----------------  -----------------
       1        0.000003400589    -0.000000482808     0.000002655712
       2        0.000029830284    -0.000029724909    -0.000010347803
       3       -0.000026725670    -0.000033552136    -0.000030692690
       4        0.000622727406     0.000863208305    -0.002126291853
       5        0.000000716535     0.000000941311     0.000002117270
       6       -0.000013212570     0.000002802015    -0.000005642751
       7       -0.001116840941    -0.002027539964     0.002863795607
       8       -0.000000304760     0.000002863069    -0.000006676907
       9        0.000010005588    -0.000028574450    -0.000023038685
      10        0.001883508470     0.003643765210     0.000603206864
      11       -0.000033949662    -0.000015114279     0.000001675931
      12        0.000044139091     0.000021481725     0.000003733109
      13       -0.001403294357    -0.002400073100    -0.001274493801

  **** Optimization is complete! (in 4 steps) ****
    Final optimized geometry and variables:
    Molecular point group: c1

    Geometry (in Angstrom), charge = 0, multiplicity = 1:

    H           -1.151204849547     2.021996635595     1.397535672280
    O           -1.139102169692     2.028749883916     0.450866649187
    C           -1.063093493858     0.713177177877    -0.029725045328
    C            0.331518085752     0.140506143184     0.150760594671
    H           -1.789624940332     0.066901368222     0.454649704944
    H           -1.304553613815     0.748334179902    -1.082793170828
    O            0.329322234544    -1.157661831903    -0.355740895201
    H            0.602366089107     0.145468911020     1.208429421918
    H            1.052204953357     0.763529769494    -0.374227358880
    C            1.555434656612    -1.821758870419    -0.305843372880
    H            1.575556406866    -2.539590146126    -1.115881613795
    H            2.391464914959    -1.138647643731    -0.425787966875
    H            1.666035321585    -2.366082873766     0.628835658679

  Mulliken Charges: (a.u.)
   Center  Symbol    Alpha    Beta     Spin     Total
       1     H     0.28127  0.28127  0.00000  0.43745
       2     O     4.37094  4.37094  0.00000 -0.74187
       3     C     3.00482  3.00482  0.00000 -0.00964
       4     C     2.99645  2.99645  0.00000  0.00711
       5     H     0.42231  0.42231  0.00000  0.15538
       6     H     0.40848  0.40848  0.00000  0.18304
       7     O     4.30981  4.30981  0.00000 -0.61962
       8     H     0.43786  0.43786  0.00000  0.12428
       9     H     0.42274  0.42274  0.00000  0.15453
      10     C     3.07830  3.07830  0.00000 -0.15659
      11     H     0.41310  0.41310  0.00000  0.17381
      12     H     0.42828  0.42828  0.00000  0.14344
      13     H     0.42565  0.42565  0.00000  0.14869

   Total alpha = 21.00000, Total beta = 21.00000, Total charge =  0.00000
