  ==> Input File <==

--------------------------------------------------------------------------
set {
	reference rhf
	basis 6-31G*
}

set_num_threads( 4 )
memory 2 gb

molecule MOL {
0 1

O	 3.225979	 0.970355	 -0.599647
C	 2.701189	 0.057885	 -0.047330
C	 1.245376	 -0.013843	 0.345420
O	 3.347903	 -1.046386	 0.304773
C	 0.455112	 1.231400	 -0.050772
H	 0.838542	 -0.913825	 -0.103701
H	 1.208210	 -0.175333	 1.419774
C	 -0.998893	 1.219485	 0.433193
H	 0.482531	 1.345121	 -1.130325
H	 0.957290	 2.103070	 0.354729
C	 -1.300412	 0.211660	 1.546066
H	 -1.635859	 0.996222	 -0.419540
H	 -1.278753	 2.218274	 0.765016
C	 -2.783975	 0.160893	 1.916823
H	 -0.974783	 -0.778239	 1.230019
H	 -0.724147	 0.453033	 2.436363
C	 -3.096280	 -0.839089	 3.031558
H	 -3.367081	 -0.093438	 1.033342
H	 -3.112853	 1.152847	 2.222708
C	 -4.580428	 -0.886417	 3.393169
H	 -2.767365	 -1.830695	 2.727952
H	 -2.517637	 -0.583941	 3.916912
H	 -4.769942	 -1.603786	 4.185680
H	 -5.183703	 -1.173168	 2.536414
H	 -4.932090	 0.083372	 3.733928
C	 4.728119	 -1.109107	 -0.004993
H	 4.882018	 -1.033965	 -1.071845
H	 5.068212	 -2.067527	 0.355250
H	 5.265056	 -0.311663	 0.488280

	symmetry c1
}
set optking {
	frozen_dihedral = ("
		11 8 5 9
	")
}

ee = optimize('scf')
oeprop('DIPOLE', 'QUADRUPOLE', 'MULLIKEN_CHARGES')
f=open( 'psi4out.xyz', 'w' )
f.write( "29  " )
f.write( str(ee) + "\n" )
f.write( MOL.save_string_xyz() )
f.close()
--------------------------------------------------------------------------

    Molecular point group: c1
  Charge       = 0
  Multiplicity = 1
  Basis Set: 6-31G*
  Basis Set:
  @DF-RHF Final Energy:  -501.03516993393112
    Total Energy =                       -501.0351699339317975
    Molecular point group: c1
  Basis Set: 6-31G*
  Basis Set:
  Basis Set: 6-31G*
  Basis Set:
  @DF-RHF Final Energy:  -501.03562261863669
    Total Energy =                       -501.0356226186368076
  Basis Set: 6-31G*
  Basis Set:
  Basis Set: 6-31G*
  Basis Set:
  @DF-RHF Final Energy:  -501.03724126946838
    Total Energy =                       -501.0372412694682680
  Basis Set: 6-31G*
  Basis Set:
  Basis Set: 6-31G*
  Basis Set:
  @DF-RHF Final Energy:  -501.03733019878177
    Total Energy =                       -501.0373301987821151
  Basis Set: 6-31G*
  Basis Set:
  @DF-RHF Final Energy:  -501.03711145481270
    Total Energy =                       -501.0371114548129299
  @DF-RHF Final Energy:  -501.03735960431800
    Total Energy =                       -501.0373596043173166
  Basis Set: 6-31G*
  Basis Set:
  @DF-RHF Final Energy:  -501.03735689062353
    Total Energy =                       -501.0373568906236414
  Basis Set: 6-31G*
  Basis Set:
  Basis Set: 6-31G*
  Basis Set:
  @DF-RHF Final Energy:  -501.03736807737664
    Total Energy =                       -501.0373680773768683
  Basis Set: 6-31G*
  Basis Set:
  Basis Set: 6-31G*
  Basis Set:
  @DF-RHF Final Energy:  -501.03736990510902
    Total Energy =                       -501.0373699051093581
  Basis Set: 6-31G*
  Basis Set:
  Charge       = 0
  Multiplicity = 1
  Basis Set: 6-31G*
  Basis Set:

    Orbital Energies (a.u.)
    -----------------------

    Doubly Occupied:

       1A    -20.603066     2A    -20.545019     3A    -11.371640
       4A    -11.280483     5A    -11.234418     6A    -11.219334
       7A    -11.217792     8A    -11.216906     9A    -11.216258
      10A    -11.214792    11A    -11.209354    12A     -1.468808
      13A     -1.362265    14A     -1.096539    15A     -1.066001
      16A     -1.018425    17A     -0.976852    18A     -0.928328
      19A     -0.864618    20A     -0.799011    21A     -0.791327
      22A     -0.759084    23A     -0.698732    24A     -0.683281
      25A     -0.670434    26A     -0.656800    27A     -0.629641
      28A     -0.602882    29A     -0.591385    30A     -0.579930
      31A     -0.566291    32A     -0.553352    33A     -0.531037
      34A     -0.524885    35A     -0.519793    36A     -0.512120
      37A     -0.500342    38A     -0.479579    39A     -0.467725
      40A     -0.460301    41A     -0.457657    42A     -0.451416
      43A     -0.439800    44A     -0.437016

  @DF-RHF Final Energy:  -501.03737004451284

   => Energetics <=

    Nuclear Repulsion Energy =            612.4832761358196649
    One-Electron Energy =               -1896.0918534403035665
    Two-Electron Energy =                 782.5712072599716294
    DFT Exchange-Correlation Energy =       0.0000000000000000
    Empirical Dispersion Energy =           0.0000000000000000
    PCM Polarization Energy =               0.0000000000000000
    EFP Energy =                            0.0000000000000000
    Total Energy =                       -501.0373700445121585
    Molecular point group: c1
  Basis Set: 6-31G*
  Basis Set:

  -Total Gradient:
     Atom            X                  Y                   Z
    ------   -----------------  -----------------  -----------------
       1       -0.000003855801     0.000012327027     0.000023585511
       2       -0.000001199171    -0.000012883730    -0.000031029644
       3       -0.000019660290    -0.000016335868    -0.000031451085
       4        0.000000065430    -0.000007386504     0.000004095862
       5       -0.000457619523     0.005308100409    -0.000691790177
       6        0.000004391802     0.000000756444     0.000015043496
       7        0.000001530671     0.000009388487     0.000010585270
       8        0.000967035582     0.003052669842     0.003953391932
       9        0.000149217478    -0.005409391651    -0.000466958941
      10        0.000001854262    -0.000002555942    -0.000000623444
      11       -0.000642925288    -0.002916569574    -0.002786244547
      12       -0.000001162173    -0.000004918428     0.000012760340
      13       -0.000002817667     0.000004480521    -0.000004601443
      14       -0.000003489022    -0.000015000995    -0.000010935912
      15        0.000010562538    -0.000008407670    -0.000003758068
      16       -0.000009111133    -0.000003762563     0.000001249485
      17        0.000003155200     0.000008661877     0.000013162399
      18        0.000001580554    -0.000004107828    -0.000004399159
      19        0.000003687933    -0.000003846689    -0.000004854784
      20        0.000000243544     0.000001447424    -0.000001684149
      21       -0.000003381511     0.000003597063    -0.000001394744
      22        0.000004840766    -0.000001463456     0.000002511571
      23        0.000001230563    -0.000001167426    -0.000002162547
      24       -0.000000318905     0.000002570678    -0.000001038318
      25       -0.000000524450    -0.000000036806     0.000003439962
      26       -0.000000621380     0.000003822888     0.000001543962
      27       -0.000000832777    -0.000000170791     0.000000229657
      28       -0.000002654549    -0.000000082108     0.000001085927
      29        0.000000777316     0.000000265371     0.000000241590

  **** Optimization is complete! (in 10 steps) ****
    Final optimized geometry and variables:
    Molecular point group: c1

    Geometry (in Angstrom), charge = 0, multiplicity = 1:

    O            2.909511487506     1.015081131937    -1.599428413153
    C            2.455483045179     0.093966545263    -1.000572491309
    C            1.030439477381    -0.028635305809    -0.516070654272
    O            3.166301705857    -0.977442007128    -0.670413476433
    C            0.178408719314     1.188529711149    -0.882616335431
    H            0.627860357294    -0.942883982608    -0.942027178374
    H            1.072999612610    -0.193794104295     0.555138666134
    C           -1.308795894337     1.112110292999    -0.454530121146
    H            0.227454809137     1.283111384797    -1.961054091500
    H            0.646568409820     2.072971172109    -0.467455280021
    C           -1.671329115580     0.127420740216     0.662950103992
    H           -1.904865790607     0.847001946207    -1.324818929514
    H           -1.637221244125     2.107023578535    -0.167799237009
    C           -3.159731422425     0.173903586445     1.015245078760
    H           -1.411294775082    -0.885096036974     0.366261925774
    H           -1.090508491656     0.344630693668     1.557911882079
    C           -3.551334783896    -0.809447634111     2.119770094176
    H           -3.747612950830    -0.036464369122     0.123198206307
    H           -3.425933944267     1.183547985100     1.323265434150
    C           -5.038743621190    -0.756087600854     2.466940496161
    H           -3.289117419478    -1.819642056197     1.812364033010
    H           -2.965229265505    -0.600749697077     3.012289991475
    H           -5.285499910817    -1.464397475225     3.251804419148
    H           -5.651962962166    -0.993753034426     1.602241355461
    H           -5.325470943441     0.233236433842     2.812224482611
    C            4.526109142372    -0.992861534901    -1.064567179191
    H            4.610941707955    -0.932781970760    -2.140090257204
    H            4.925606292650    -1.930188633245    -0.709821559297
    H            5.060362152834    -0.165771419294    -0.619552734344

  Mulliken Charges: (a.u.)
   Center  Symbol    Alpha    Beta     Spin     Total
       1     O     4.28605  4.28605  0.00000 -0.57210
       2     C     2.60431  2.60431  0.00000  0.79138
       3     C     3.21236  3.21236  0.00000 -0.42472
       4     O     4.30762  4.30762  0.00000 -0.61524
       5     C     3.15512  3.15512  0.00000 -0.31024
       6     H     0.40078  0.40078  0.00000  0.19844
       7     H     0.39883  0.39883  0.00000  0.20234
       8     C     3.15689  3.15689  0.00000 -0.31378
       9     H     0.40943  0.40943  0.00000  0.18114
      10     H     0.40991  0.40991  0.00000  0.18018
      11     C     3.15757  3.15757  0.00000 -0.31513
      12     H     0.42117  0.42117  0.00000  0.15766
      13     H     0.41794  0.41794  0.00000  0.16412
      14     C     3.15013  3.15013  0.00000 -0.30026
      15     H     0.42251  0.42251  0.00000  0.15498
      16     H     0.42370  0.42370  0.00000  0.15259
      17     C     3.15137  3.15137  0.00000 -0.30273
      18     H     0.42364  0.42364  0.00000  0.15272
      19     H     0.42326  0.42326  0.00000  0.15348
      20     C     3.23935  3.23935  0.00000 -0.47869
      21     H     0.42330  0.42330  0.00000  0.15340
      22     H     0.42311  0.42311  0.00000  0.15379
      23     H     0.41921  0.41921  0.00000  0.16158
      24     H     0.42168  0.42168  0.00000  0.15665
      25     H     0.42156  0.42156  0.00000  0.15689
      26     C     3.09231  3.09231  0.00000 -0.18463
      27     H     0.40919  0.40919  0.00000  0.18161
      28     H     0.40854  0.40854  0.00000  0.18291
      29     H     0.40917  0.40917  0.00000  0.18166

   Total alpha = 44.00000, Total beta = 44.00000, Total charge =  0.00000
