  ==> Input File <==

--------------------------------------------------------------------------
set {
	reference rhf
	basis 6-31G*
}

set_num_threads( 1 )
memory 2 gb

molecule MOL {
0 1

H	 2.741897	 0.250628	 0.910993
C	 1.951159	 -0.223429	 0.317018
C	 0.692068	 0.589600	 0.160137
O	 2.121299	 -1.302907	 -0.149789
C	 -0.558097	 -0.297372	 0.091132
H	 0.791645	 1.202255	 -0.728243
H	 0.616171	 1.253469	 1.020572
C	 -1.850991	 0.512573	 -0.019058
H	 -0.476753	 -0.965681	 -0.762987
H	 -0.604799	 -0.930658	 0.975228
C	 -3.096943	 -0.368295	 -0.099594
H	 -1.800724	 1.150330	 -0.898172
H	 -1.931651	 1.177355	 0.838044
H	 -3.060452	 -1.020287	 -0.967456
H	 -3.996858	 0.233488	 -0.175704
H	 -3.191959	 -0.995686	 0.782074

	symmetry c1
}
set optking {
	frozen_dihedral = ("
		9 5 8 12,
		6 3 5 9
	")
}

ee = energy('scf')
oeprop('DIPOLE', 'QUADRUPOLE', 'MULLIKEN_CHARGES')
f=open( 'psi4out.xyz', 'w' )
f.write( "16  " )
f.write( str(ee) + "\n" )
f.write( MOL.save_string_xyz() )
f.close()
--------------------------------------------------------------------------

    Molecular point group: c1

    Geometry (in Angstrom), charge = 0, multiplicity = 1:

       Center              X                  Y                   Z               Mass
    ------------   -----------------  -----------------  -----------------  -----------------
           H          2.874604249406     0.447171773530     0.864498978900     1.007825032070
           C          2.083866249406    -0.026885226470     0.270523978900    12.000000000000
           C          0.824775249406     0.786143773530     0.113642978900    12.000000000000
           O          2.254006249406    -1.106363226470    -0.196283021100    15.994914619560
           C         -0.425389750594    -0.100828226470     0.044637978900    12.000000000000
           H          0.924352249406     1.398798773530    -0.774737021100     1.007825032070
           H          0.748878249406     1.450012773530     0.974077978900     1.007825032070
           C         -1.718283750594     0.709116773530    -0.065552021100    12.000000000000
           H         -0.344045750594    -0.769137226470    -0.809481021100     1.007825032070
           H         -0.472091750594    -0.734114226470     0.928733978900     1.007825032070
           C         -2.964235750594    -0.171751226470    -0.146088021100    12.000000000000
           H         -1.668016750594     1.346873773530    -0.944666021100     1.007825032070
           H         -1.798943750594     1.373898773530     0.791549978900     1.007825032070
           H         -2.927744750594    -0.823743226470    -1.013950021100     1.007825032070
           H         -3.864150750594     0.430031773530    -0.222198021100     1.007825032070
           H         -3.059251750594    -0.799142226470     0.735579978900     1.007825032070

  Charge       = 0
  Multiplicity = 1
  Basis Set: 6-31G*
  Basis Set:

    Orbital Energies (a.u.)
    -----------------------

    Doubly Occupied:

       1A    -20.563716     2A    -11.327886     3A    -11.236580
       4A    -11.224737     5A    -11.222504     6A    -11.212940
       7A     -1.404035     8A     -1.088871     9A     -1.015366
      10A     -0.907203    11A     -0.812898    12A     -0.774000
      13A     -0.677341    14A     -0.653540    15A     -0.628375
      16A     -0.600855    17A     -0.581762    18A     -0.538812
      19A     -0.526767    20A     -0.501577    21A     -0.480551
      22A     -0.478153    23A     -0.472333    24A     -0.409662

  @DF-RHF Final Energy:  -270.01927493766965

   => Energetics <=

    Nuclear Repulsion Energy =            231.7531521544481734
    One-Electron Energy =                -824.8639287883095221
    Two-Electron Energy =                 323.0915016961909032
    DFT Exchange-Correlation Energy =       0.0000000000000000
    Empirical Dispersion Energy =           0.0000000000000000
    PCM Polarization Energy =               0.0000000000000000
    EFP Energy =                            0.0000000000000000
    Total Energy =                       -270.0192749376705024

  Mulliken Charges: (a.u.)
   Center  Symbol    Alpha    Beta     Spin     Total
       1     H     0.42740  0.42740  0.00000  0.14521
       2     C     2.83954  2.83954  0.00000  0.32092
       3     C     3.20852  3.20852  0.00000 -0.41704
       4     O     4.23662  4.23662  0.00000 -0.47324
       5     C     3.15255  3.15255  0.00000 -0.30509
       6     H     0.40059  0.40059  0.00000  0.19882
       7     H     0.41446  0.41446  0.00000  0.17107
       8     C     3.15285  3.15285  0.00000 -0.30569
       9     H     0.40657  0.40657  0.00000  0.18687
      10     H     0.41732  0.41732  0.00000  0.16536
      11     C     3.23977  3.23977  0.00000 -0.47953
      12     H     0.42244  0.42244  0.00000  0.15511
      13     H     0.42357  0.42357  0.00000  0.15286
      14     H     0.41916  0.41916  0.00000  0.16168
      15     H     0.41830  0.41830  0.00000  0.16340
      16     H     0.42035  0.42035  0.00000  0.15930

   Total alpha = 24.00000, Total beta = 24.00000, Total charge = -0.00000
