  ==> Input File <==

--------------------------------------------------------------------------
set {
	reference rhf
	basis 6-31G*
}

set_num_threads( 1 )
memory 2 gb

molecule MOL {
0 1

O	 -2.821601	 1.309235	 -0.001213
C	 -2.668563	 0.129746	 -0.000350
C	 -3.801572	 -0.864014	 -0.000442
O	 -1.481751	 -0.454642	 0.000584
H	 -4.417280	 -0.689587	 -0.874708
H	 -3.443784	 -1.883046	 -0.000565
H	 -4.417179	 -0.689832	 0.873954
C	 -0.334255	 0.388708	 0.000906
C	 0.891947	 -0.504646	 0.000751
H	 -0.365390	 1.025305	 -0.873475
H	 -0.365484	 1.024911	 0.875569
C	 2.191998	 0.301789	 0.000897
H	 0.855148	 -1.151283	 -0.871571
H	 0.855132	 -1.151660	 0.872805
C	 3.441114	 -0.581407	 0.000108
H	 2.215074	 0.954890	 -0.869742
H	 2.215465	 0.953923	 0.872248
C	 4.657939	 0.109198	 -0.614114
H	 3.232181	 -1.498645	 -0.545874
H	 3.671266	 -0.879041	 1.020654
H	 4.470374	 0.389088	 -1.646826
H	 5.526747	 -0.541358	 -0.600525
H	 4.912966	 1.013137	 -0.068344

	symmetry c1
}
set optking {
	frozen_dihedral = ("
		13 9 8 10,
		2 4 8 10,
		16 12 9 13,
		1 2 4 8
	")
}

ee = energy('scf')
oeprop('DIPOLE', 'QUADRUPOLE', 'MULLIKEN_CHARGES')
f=open( 'psi4out.xyz', 'w' )
f.write( "23  " )
f.write( str(ee) + "\n" )
f.write( MOL.save_string_xyz() )
f.close()
--------------------------------------------------------------------------

    Molecular point group: c1

    Geometry (in Angstrom), charge = 0, multiplicity = 1:

       Center              X                  Y                   Z               Mass
    ------------   -----------------  -----------------  -----------------  -----------------
           O         -2.812175368073     1.322501835393     0.069561808552    15.994914619560
           C         -2.659137368073     0.143012835393     0.070424808552    12.000000000000
           C         -3.792146368073    -0.850747164607     0.070332808552    12.000000000000
           O         -1.472325368073    -0.441375164607     0.071358808552    15.994914619560
           H         -4.407854368073    -0.676320164607    -0.803933191448     1.007825032070
           H         -3.434358368073    -1.869779164607     0.070209808552     1.007825032070
           H         -4.407753368073    -0.676565164607     0.944728808552     1.007825032070
           C         -0.324829368073     0.401974835393     0.071680808552    12.000000000000
           C          0.901372631927    -0.491379164607     0.071525808552    12.000000000000
           H         -0.355964368073     1.038571835393    -0.802700191448     1.007825032070
           H         -0.356058368073     1.038177835393     0.946343808552     1.007825032070
           C          2.201423631927     0.315055835393     0.071671808552    12.000000000000
           H          0.864573631927    -1.138016164607    -0.800796191448     1.007825032070
           H          0.864557631927    -1.138393164607     0.943579808552     1.007825032070
           C          3.450539631927    -0.568140164607     0.070882808552    12.000000000000
           H          2.224499631927     0.968156835393    -0.798967191448     1.007825032070
           H          2.224890631927     0.967189835393     0.943022808552     1.007825032070
           C          4.667364631927     0.122464835393    -0.543339191448    12.000000000000
           H          3.241606631927    -1.485378164607    -0.475099191448     1.007825032070
           H          3.680691631927    -0.865774164607     1.091428808552     1.007825032070
           H          4.479799631927     0.402354835393    -1.576051191448     1.007825032070
           H          5.536172631927    -0.528091164607    -0.529750191448     1.007825032070
           H          4.922391631927     1.026403835393     0.002430808552     1.007825032070

  Charge       = 0
  Multiplicity = 1
  Basis Set: 6-31G*
  Basis Set:

    Orbital Energies (a.u.)
    -----------------------

    Doubly Occupied:

       1A    -20.602963     2A    -20.540532     3A    -11.374060
       4A    -11.281295     5A    -11.232373     6A    -11.224453
       7A    -11.223299     8A    -11.221042     9A    -11.213082
      10A     -1.467939    11A     -1.360717    12A     -1.094270
      13A     -1.042173    14A     -1.003337    15A     -0.930814
      16A     -0.842186    17A     -0.802548    18A     -0.774288
      19A     -0.691993    20A     -0.685116    21A     -0.668224
      22A     -0.644735    23A     -0.606970    24A     -0.589523
      25A     -0.582438    26A     -0.568705    27A     -0.555979
      28A     -0.536467    29A     -0.524124    30A     -0.504589
      31A     -0.494217    32A     -0.476212    33A     -0.468685
      34A     -0.465240    35A     -0.451240    36A     -0.435261

  @DF-RHF Final Energy:  -422.97722670118833

   => Energetics <=

    Nuclear Repulsion Energy =            449.9334717048454877
    One-Electron Energy =               -1467.4592733059178045
    Two-Electron Energy =                 594.5485748998853524
    DFT Exchange-Correlation Energy =       0.0000000000000000
    Empirical Dispersion Energy =           0.0000000000000000
    PCM Polarization Energy =               0.0000000000000000
    EFP Energy =                            0.0000000000000000
    Total Energy =                       -422.9772267011869644

  Mulliken Charges: (a.u.)
   Center  Symbol    Alpha    Beta     Spin     Total
       1     O     4.28390  4.28390  0.00000 -0.56781
       2     C     2.61532  2.61532  0.00000  0.76935
       3     C     3.28774  3.28774  0.00000 -0.57548
       4     O     4.31271  4.31271  0.00000 -0.62542
       5     H     0.39751  0.39751  0.00000  0.20499
       6     H     0.39987  0.39987  0.00000  0.20026
       7     H     0.39751  0.39751  0.00000  0.20498
       8     C     2.99587  2.99587  0.00000  0.00827
       9     C     3.16591  3.16591  0.00000 -0.33182
      10     H     0.41059  0.41059  0.00000  0.17881
      11     H     0.41072  0.41072  0.00000  0.17856
      12     C     3.16121  3.16121  0.00000 -0.32242
      13     H     0.41401  0.41401  0.00000  0.17197
      14     H     0.41409  0.41409  0.00000  0.17182
      15     C     3.15228  3.15228  0.00000 -0.30457
      16     H     0.42029  0.42029  0.00000  0.15942
      17     H     0.41926  0.41926  0.00000  0.16149
      18     C     3.24040  3.24040  0.00000 -0.48080
      19     H     0.42087  0.42087  0.00000  0.15826
      20     H     0.41989  0.41989  0.00000  0.16021
      21     H     0.42083  0.42083  0.00000  0.15833
      22     H     0.41852  0.41852  0.00000  0.16296
      23     H     0.42068  0.42068  0.00000  0.15864

   Total alpha = 36.00000, Total beta = 36.00000, Total charge = -0.00000
