                              Psi4 1.0.54 Driver

  ==> Input File <==

--------------------------------------------------------------------------
set {
	reference rhf
	basis cc-pvtz
}

set_num_threads( 4 )
memory 2 gb

molecule MOL {
0 1

H	 -2.429082	 -1.777509	 0.389017
C	 -1.660750	 -1.052006	 0.223951
C	 -1.962645	 0.331676	 0.015537
C	 -0.375541	 -1.413862	 0.205768
H	 -2.986565	 0.655203	 0.024202
C	 -0.983045	 1.217848	 -0.188568
H	 -0.070621	 -2.430829	 0.353901
N	 0.640204	 -0.530428	 -0.000115
H	 -1.171539	 2.259519	 -0.347795
C	 0.417096	 0.819759	 -0.207595
C	 2.006991	 -1.033007	 -0.000020
O	 1.324544	 1.585522	 -0.387558
H	 2.182444	 -1.636914	 -0.880881
H	 2.678769	 -0.195442	 -0.002236
H	 2.183828	 -1.633244	 0.883082

	symmetry c1
}
set optking {
	frozen_dihedral = ("
		10 8 11 13
	")
}

ee,wfn = optimize('scf', return_wfn=True)
oeprop( wfn, 'DIPOLE', 'QUADRUPOLE', 'MULLIKEN_CHARGES')
f=open( 'psi4out.xyz', 'w' )
f.write( "15  " )
f.write( str(ee) + "\n" )
f.write( MOL.save_string_xyz() )
f.close()
--------------------------------------------------------------------------

    Molecular point group: c1
  Charge       = 0
  Multiplicity = 1
  Basis Set: CC-PVTZ
  Basis Set:
  @DF-RHF Final Energy:  -360.72255854112382
    Total Energy =                       -360.7225585411235897
    Molecular point group: c1
  Basis Set: CC-PVTZ
  Basis Set:
  Basis Set: CC-PVTZ
  Basis Set:
  @DF-RHF Final Energy:  -360.72257538180662
    Total Energy =                       -360.7225753818066210
  Basis Set: CC-PVTZ
  Basis Set:
  Basis Set: CC-PVTZ
  Basis Set:
  @DF-RHF Final Energy:  -360.72257029508899
    Total Energy =                       -360.7225702950888149
  Basis Set: CC-PVTZ
  Basis Set:
  Charge       = 0
  Multiplicity = 1
  Basis Set: CC-PVTZ
  Basis Set:

    Orbital Energies (a.u.)
    -----------------------

    Doubly Occupied:

       1A    -20.501770     2A    -15.616482     3A    -11.339566
       4A    -11.293218     5A    -11.263538     6A    -11.258211
       7A    -11.230702     8A    -11.228381     9A     -1.390535
      10A     -1.285771    11A     -1.118805    12A     -1.028877
      13A     -0.972312    14A     -0.875757    15A     -0.838564
      16A     -0.719125    17A     -0.703093    18A     -0.663398
      19A     -0.652653    20A     -0.625207    21A     -0.611933
      22A     -0.574096    23A     -0.558061    24A     -0.550524
      25A     -0.529369    26A     -0.482786    27A     -0.420131
      28A     -0.410793    29A     -0.311011

  @DF-RHF Final Energy:  -360.72257937819677

   => Energetics <=

    Nuclear Repulsion Energy =            358.4503319685752558
    One-Electron Energy =               -1200.2364850520561959
    Two-Electron Energy =                 481.0635737052840568
    DFT Exchange-Correlation Energy =       0.0000000000000000
    Empirical Dispersion Energy =           0.0000000000000000
    PCM Polarization Energy =               0.0000000000000000
    EFP Energy =                            0.0000000000000000
    Total Energy =                       -360.7225793781968832
    Molecular point group: c1
  Basis Set: CC-PVTZ
  Basis Set:

  -Total Gradient:
     Atom            X                  Y                   Z
    ------   -----------------  -----------------  -----------------
       1        0.000002804372     0.000002406073     0.000013778601
       2        0.000007382514    -0.000000688718    -0.000010133428
       3        0.000003578753     0.000004613158    -0.000003356701
       4       -0.000008363579    -0.000026392591    -0.000006997782
       5        0.000002779325     0.000005026577     0.000000478441
       6        0.000010910850     0.000011602231     0.000000659758
       7        0.000000541652     0.000004348430     0.000003636906
       8       -0.000077303628    -0.000120806733    -0.000307199127
       9       -0.000006438021     0.000003765039    -0.000008046905
      10        0.000000622507    -0.000018467587     0.000263750608
      11        0.000141398809     0.000316319796    -0.000105987857
      12        0.000010711210     0.000051186471    -0.000002509413
      13       -0.000081686601    -0.000238078469     0.000162763639
      14        0.000010552842    -0.000003068266     0.000003726631
      15       -0.000017491005     0.000008234586    -0.000004563371

  **** Optimization is complete! (in 4 steps) ****
    Final optimized geometry and variables:
    Molecular point group: c1

    Geometry (in Angstrom), charge = 0, multiplicity = 1:

    H           -2.428419175069    -1.773901330346     0.432719051351
    C           -1.659857721616    -1.048213159238     0.269478321007
    C           -1.961321883666     0.336208357205     0.064443500605
    C           -0.374591030611    -1.410263440980     0.254127518935
    H           -2.985146141559     0.660045213057     0.073506375220
    C           -0.981368435670     1.222624529663    -0.136520920935
    H           -0.070391029642    -2.427416680786     0.402040964638
    N            0.641595355999    -0.526148351122     0.053769920791
    H           -1.169210934567     2.264751814379    -0.294063633093
    C            0.418394339399     0.822993853242    -0.159897988576
    C            2.008979592882    -1.026746075196     0.047120961182
    O            1.326116308927     1.586107025447    -0.348746366034
    H            2.185739764986    -1.636641085250    -0.829974097260
    H            2.680940373503    -0.189184822974     0.037011945661
    H            2.185125071090    -1.621886755881     0.933064394574

  Mulliken Charges: (a.u.)
   Center  Symbol    Alpha    Beta     Spin     Total
       1     H     0.41409  0.41409  0.00000  0.17181
       2     C     3.10218  3.10218  0.00000 -0.20437
       3     C     3.06192  3.06192  0.00000 -0.12384
       4     C     3.03296  3.03296  0.00000 -0.06592
       5     H     0.41834  0.41834  0.00000  0.16333
       6     C     3.11616  3.11616  0.00000 -0.23232
       7     H     0.42058  0.42058  0.00000  0.15884
       8     N     3.51261  3.51261  0.00000 -0.02522
       9     H     0.40888  0.40888  0.00000  0.18224
      10     C     2.84551  2.84551  0.00000  0.30899
      11     C     3.10881  3.10881  0.00000 -0.21762
      12     O     4.23660  4.23660  0.00000 -0.47319
      13     H     0.44816  0.44816  0.00000  0.10368
      14     H     0.42126  0.42126  0.00000  0.15748
      15     H     0.45194  0.45194  0.00000  0.09613

   Total alpha = 29.00000, Total beta = 29.00000, Total charge = -0.00000

*** Psi4 exiting successfully. Buy a developer a beer!
