                              Psi4 1.0.54 Driver

  ==> Input File <==

--------------------------------------------------------------------------
set {
	reference rhf
	basis cc-pvtz
}

set_num_threads( 4 )
memory 2 gb

molecule MOL {
0 1

O	 -1.656828	 -1.852412	 1.380397
C	 -0.722910	 -1.523268	 0.731314
C	 0.573766	 -2.285640	 0.625109
O	 -0.695554	 -0.422406	 0.000602
C	 0.593159	 -3.563271	 1.448672
H	 1.368190	 -1.610854	 0.924282
H	 0.740035	 -2.491155	 -0.426582
H	 0.443427	 -3.351949	 2.498977
H	 1.545800	 -4.065737	 1.333122
H	 -0.190447	 -4.240270	 1.135846
C	 -1.852370	 0.402254	 0.000718
C	 -3.063338	 -0.501097	 -0.000437
H	 -1.831732	 1.039442	 -0.872158
H	 -1.832493	 1.038301	 0.874430
H	 -3.071944	 -1.133732	 -0.879113
H	 -3.966302	 0.097976	 -0.000483
H	 -3.072764	 -1.134834	 0.877435

	symmetry c1
}
set optking {
	frozen_dihedral = ("
		2 4 11 13
	")
}

ee,wfn = optimize('scf', return_wfn=True)
oeprop( wfn, 'DIPOLE', 'QUADRUPOLE', 'MULLIKEN_CHARGES')
f=open( 'psi4out.xyz', 'w' )
f.write( "17  " )
f.write( str(ee) + "\n" )
f.write( MOL.save_string_xyz() )
f.close()
--------------------------------------------------------------------------

    Molecular point group: c1
  Charge       = 0
  Multiplicity = 1
  Basis Set: CC-PVTZ
  Basis Set:
  @DF-RHF Final Energy:  -345.00345377751819
    Total Energy =                       -345.0034537775184731
    Molecular point group: c1
  Basis Set: CC-PVTZ
  Basis Set:
  Basis Set: CC-PVTZ
  Basis Set:
  @DF-RHF Final Energy:  -344.62079414142073
    Total Energy =                       -344.6207941414206744
  Basis Set: CC-PVTZ
  Basis Set:
  Basis Set: CC-PVTZ
  Basis Set:
  @DF-RHF Final Energy:  -344.80532803082195
    Total Energy =                       -344.8053280308216131
  Basis Set: CC-PVTZ
  Basis Set:
  Basis Set: CC-PVTZ
  Basis Set:
  @DF-RHF Final Energy:  -344.94139168832515
    Total Energy =                       -344.9413916883253819
  Basis Set: CC-PVTZ
  Basis Set:
  @DF-RHF Final Energy:  -345.01075757492396
    Total Energy =                       -345.0107575749240709
  @DF-RHF Final Energy:  -345.03016715645163
    Total Energy =                       -345.0301671564515686
  @DF-RHF Final Energy:  -345.03258355636433
    Total Energy =                       -345.0325835563643295
  @DF-RHF Final Energy:  -345.02730375553796
    Total Energy =                       -345.0273037555379005
  @DF-RHF Final Energy:  -345.02532859583675
    Total Energy =                       -345.0253285958366405
  @DF-RHF Final Energy:  -345.03309148025141
    Total Energy =                       -345.0330914802513007
  Basis Set: CC-PVTZ
  Basis Set:
  @DF-RHF Final Energy:  -345.03320407600933
    Total Energy =                       -345.0332040760093264
  Basis Set: CC-PVTZ
  Basis Set:
  Basis Set: CC-PVTZ
  Basis Set:
  @DF-RHF Final Energy:  -345.03324652890097
    Total Energy =                       -345.0332465289014863
  Basis Set: CC-PVTZ
  Basis Set:
  Basis Set: CC-PVTZ
  Basis Set:
  @DF-RHF Final Energy:  -345.03325489996377
    Total Energy =                       -345.0332548999639357
  Basis Set: CC-PVTZ
  Basis Set:
  Charge       = 0
  Multiplicity = 1
  Basis Set: CC-PVTZ
  Basis Set:

    Orbital Energies (a.u.)
    -----------------------

    Doubly Occupied:

       1A    -20.591068     2A    -20.531245     3A    -11.364241
       4A    -11.287271     5A    -11.234447     6A    -11.213756
       7A    -11.212859     8A     -1.466100     9A     -1.364668
      10A     -1.068733    11A     -1.028518    12A     -0.919159
      13A     -0.857550    14A     -0.748044    15A     -0.701356
      16A     -0.682623    17A     -0.667290    18A     -0.629760
      19A     -0.608587    20A     -0.567860    21A     -0.545609
      22A     -0.529111    23A     -0.522225    24A     -0.517978
      25A     -0.494715    26A     -0.492384    27A     -0.452995
      28A     -0.432909

  @DF-RHF Final Energy:  -345.03325546398599

   => Energetics <=

    Nuclear Repulsion Energy =            319.8781951667386352
    One-Electron Energy =               -1104.3567809602207035
    Two-Electron Energy =                 439.4453303294957323
    DFT Exchange-Correlation Energy =       0.0000000000000000
    Empirical Dispersion Energy =           0.0000000000000000
    PCM Polarization Energy =               0.0000000000000000
    EFP Energy =                            0.0000000000000000
    Total Energy =                       -345.0332554639863929
    Molecular point group: c1
  Basis Set: CC-PVTZ
  Basis Set:

  -Total Gradient:
     Atom            X                  Y                   Z
    ------   -----------------  -----------------  -----------------
       1        0.000027432636     0.000040967932    -0.000013947461
       2        0.004495784624    -0.001867353143    -0.003587799915
       3        0.000020059728    -0.000029805673    -0.000030310119
       4       -0.006165861148     0.002071808438     0.004769760921
       5       -0.000005794408     0.000010773481    -0.000008845033
       6       -0.000011936837     0.000016224660     0.000017098711
       7        0.000002581308     0.000014532712     0.000013935188
       8       -0.000003030014    -0.000000901306    -0.000000229111
       9       -0.000001824178     0.000011450856    -0.000007575395
      10       -0.000002283458    -0.000012799855    -0.000004837549
      11       -0.001750401565     0.003471560137     0.002834656189
      12       -0.000038675771    -0.000011422410     0.000024854214
      13        0.003421668081    -0.003734634268    -0.003960609546
      14       -0.000011360087     0.000002423506    -0.000044377825
      15        0.000011942805     0.000001108414     0.000001647130
      16        0.000006397295     0.000003927940    -0.000008540162
      17        0.000005300984     0.000012138577     0.000005119762

  **** Optimization is complete! (in 14 steps) ****
    Final optimized geometry and variables:
    Molecular point group: c1

    Geometry (in Angstrom), charge = 0, multiplicity = 1:

    O           -0.869478020019    -0.861552921465    -0.034270757789
    C           -0.004740781652    -0.155507180882     0.359095738545
    C            1.010494115123    -0.541657691188     1.407053407992
    O            0.185864192751     1.088233108711    -0.041650087870
    C            0.789271293148    -1.931746938856     1.980997239040
    H            0.979208526929     0.216289870612     2.181451558140
    H            1.990047018268    -0.456405729881     0.948985479568
    H           -0.181771933852    -2.008873238198     2.451813367681
    H            1.547153501606    -2.152584983006     2.722823864222
    H            0.838548248303    -2.685552016675     1.206807598806
    C           -0.483731922045     1.647165227563    -1.169123597913
    C           -0.574972916995     0.757927981974    -2.398612432070
    H            0.137703048835     2.490565957827    -1.429281745537
    H           -1.460729880387     1.991610559560    -0.859333466656
    H            0.396336665792     0.341942458110    -2.641538485557
    H           -0.886368487645     1.378863112352    -3.231769340933
    H           -1.277912749903    -0.048465317096    -2.281248282851

  Mulliken Charges: (a.u.)
   Center  Symbol    Alpha    Beta     Spin     Total
       1     O     4.19923  4.19923  0.00000 -0.39845
       2     C     2.80125  2.80125  0.00000  0.39750
       3     C     3.09416  3.09416  0.00000 -0.18833
       4     O     4.15559  4.15559  0.00000 -0.31119
       5     C     3.13988  3.13988  0.00000 -0.27975
       6     H     0.44016  0.44016  0.00000  0.11967
       7     H     0.44353  0.44353  0.00000  0.11295
       8     H     0.44894  0.44894  0.00000  0.10212
       9     H     0.45073  0.45073  0.00000  0.09855
      10     H     0.44851  0.44851  0.00000  0.10298
      11     C     2.98160  2.98160  0.00000  0.03680
      12     C     3.15749  3.15749  0.00000 -0.31498
      13     H     0.44804  0.44804  0.00000  0.10392
      14     H     0.45428  0.45428  0.00000  0.09143
      15     H     0.45370  0.45370  0.00000  0.09260
      16     H     0.45056  0.45056  0.00000  0.09889
      17     H     0.43236  0.43236  0.00000  0.13528

   Total alpha = 28.00000, Total beta = 28.00000, Total charge =  0.00000

*** Psi4 exiting successfully. Buy a developer a beer!
