  ==> Input File <==

--------------------------------------------------------------------------
set {
	reference rhf
	basis 6-31G*
}

set_num_threads( 4 )
memory 2 gb

molecule MOL {
0 1

H	 -3.258670	 1.012254	 -0.444739
C	 -2.746953	 1.893537	 -0.063126
O	 -1.384465	 1.851103	 -0.340911
H	 -3.151569	 2.770894	 -0.548587
H	 -2.935645	 1.965604	 1.007215
C	 -0.719715	 0.768384	 0.229244
C	 0.719720	 0.768376	 -0.229267
H	 -0.749291	 0.836954	 1.317416
H	 -1.188373	 -0.169873	 -0.060647
O	 1.392611	 -0.295398	 0.366430
H	 0.750534	 0.687200	 -1.313918
H	 1.185043	 1.714359	 0.050526
C	 2.706965	 -0.449871	 -0.062409
H	 2.756559	 -0.644779	 -1.131878
H	 3.305899	 0.433456	 0.155466
H	 3.125548	 -1.294566	 0.467107

	symmetry c1
}
set optking {
	frozen_dihedral = ("
		3 6 7 11
	")
}

ee = optimize('scf')
oeprop('DIPOLE', 'QUADRUPOLE', 'MULLIKEN_CHARGES')
f=open( 'psi4out.xyz', 'w' )
f.write( "16  " )
f.write( str(ee) + "\n" )
f.write( MOL.save_string_xyz() )
f.close()
--------------------------------------------------------------------------

    Molecular point group: c1
  Charge       = 0
  Multiplicity = 1
  Basis Set: 6-31G*
  Basis Set:
  @DF-RHF Final Energy:  -306.97952794065242
    Total Energy =                       -306.9795279406523605
    Molecular point group: c1
  Basis Set: 6-31G*
  Basis Set:
  Basis Set: 6-31G*
  Basis Set:
  @DF-RHF Final Energy:  -306.97990297294456
    Total Energy =                       -306.9799029729443873
  Basis Set: 6-31G*
  Basis Set:
  Basis Set: 6-31G*
  Basis Set:
  @DF-RHF Final Energy:  -306.97996465287912
    Total Energy =                       -306.9799646528791754
  Basis Set: 6-31G*
  Basis Set:
  Charge       = 0
  Multiplicity = 1
  Basis Set: 6-31G*
  Basis Set:

    Orbital Energies (a.u.)
    -----------------------

    Doubly Occupied:

       1A    -20.558764     2A    -20.558739     3A    -11.267189
       4A    -11.267151     5A    -11.267145     6A    -11.266539
       7A     -1.389083     8A     -1.377721     9A     -1.030562
      10A     -0.941619    11A     -0.883271    12A     -0.831095
      13A     -0.691557    14A     -0.674381    15A     -0.659482
      16A     -0.647686    17A     -0.619233    18A     -0.600265
      19A     -0.577334    20A     -0.517507    21A     -0.508313
      22A     -0.483117    23A     -0.466337    24A     -0.418556
      25A     -0.417959

  @DF-RHF Final Energy:  -306.97996700145904

   => Energetics <=

    Nuclear Repulsion Energy =            254.7633551868259758
    One-Electron Energy =                -923.6454302178902935
    Two-Electron Energy =                 361.9021080296054151
    DFT Exchange-Correlation Energy =       0.0000000000000000
    Empirical Dispersion Energy =           0.0000000000000000
    PCM Polarization Energy =               0.0000000000000000
    EFP Energy =                            0.0000000000000000
    Total Energy =                       -306.9799670014589310
    Molecular point group: c1
  Basis Set: 6-31G*
  Basis Set:

  -Total Gradient:
     Atom            X                  Y                   Z
    ------   -----------------  -----------------  -----------------
       1       -0.000023647066     0.000004339258    -0.000008399664
       2        0.000021722913    -0.000091823547     0.000047883706
       3        0.000047700255     0.000102051392     0.000106247292
       4        0.000070189840    -0.000006413477    -0.000011744052
       5       -0.000010109182     0.000018999185     0.000006406916
       6       -0.000094087927    -0.000100281578    -0.000149445080
       7        0.000076789099     0.000219313910     0.000087108959
       8        0.000005334401     0.000000937800    -0.000016319007
       9        0.000002005601    -0.000015494365    -0.000010453087
      10       -0.000024721147     0.000004455414    -0.000008050472
      11       -0.000004876991    -0.000206647572    -0.000000496602
      12       -0.000009119663    -0.000000893478    -0.000004444442
      13       -0.000021918707     0.000078343194    -0.000066344748
      14        0.000017773135    -0.000015742550    -0.000005799103
      15        0.000015519602    -0.000003096250     0.000014764110
      16       -0.000068554165     0.000011952665     0.000019085275

  **** Optimization is complete! (in 4 steps) ****
    Final optimized geometry and variables:
    Molecular point group: c1

    Geometry (in Angstrom), charge = 0, multiplicity = 1:

    H           -3.284723218996     0.294201231294    -0.308628584094
    C           -2.722590849826     1.173097362332     0.000941780370
    O           -1.378913783415     1.066678508579    -0.347642624726
    H           -3.122933654518     2.041273257349    -0.504193136853
    H           -2.845922597481     1.301372206722     1.074544147394
    C           -0.719943991491    -0.016368886024     0.232984962576
    C            0.717041453438     0.009298272888    -0.243233185153
    H           -0.746379787515     0.048055947643     1.318869316287
    H           -1.185626712556    -0.956630142049    -0.055383659631
    O            1.380400338193    -1.062726652185     0.352774727551
    H            0.745617587503    -0.070567959194    -1.328106556812
    H            1.177570022523     0.955537564550     0.033259012782
    C            2.723911763508    -1.170059570807     0.003854538552
    H            2.846268521688    -1.315167345114    -1.067717289421
    H            3.283271683035    -0.284270645563     0.298438845501
    H            3.128097583667    -2.028504828376     0.522382591553

  Mulliken Charges: (a.u.)
   Center  Symbol    Alpha    Beta     Spin     Total
       1     H     0.42855  0.42855  0.00000  0.14290
       2     C     3.07949  3.07949  0.00000 -0.15898
       3     O     4.30992  4.30992  0.00000 -0.61985
       4     H     0.41155  0.41155  0.00000  0.17689
       5     H     0.42852  0.42852  0.00000  0.14295
       6     C     2.99356  2.99356  0.00000  0.01288
       7     C     2.99355  2.99355  0.00000  0.01289
       8     H     0.42408  0.42408  0.00000  0.15185
       9     H     0.42432  0.42432  0.00000  0.15136
      10     O     4.30995  4.30995  0.00000 -0.61990
      11     H     0.42435  0.42435  0.00000  0.15129
      12     H     0.42402  0.42402  0.00000  0.15195
      13     C     3.07948  3.07948  0.00000 -0.15896
      14     H     0.42856  0.42856  0.00000  0.14288
      15     H     0.42853  0.42853  0.00000  0.14294
      16     H     0.41156  0.41156  0.00000  0.17689

   Total alpha = 25.00000, Total beta = 25.00000, Total charge = -0.00000
