  ==> Input File <==

--------------------------------------------------------------------------
set {
	reference rhf
	basis 6-31G*
}

set_num_threads( 1 )
memory 2 gb

molecule MOL {
0 1

H	 -2.798360	 -0.862255	 -0.071053
N	 -1.863561	 -0.715187	 0.256814
C	 -1.344686	 0.554728	 -0.219830
H	 -1.300452	 -1.461917	 -0.101532
C	 -0.038054	 0.873317	 0.476122
H	 -1.176307	 0.583517	 -1.297244
H	 -2.062002	 1.334078	 0.018609
O	 0.904264	 -0.090834	 0.102573
H	 0.308646	 1.866123	 0.190164
H	 -0.184926	 0.859666	 1.553840
C	 2.135683	 0.032620	 0.739704
H	 2.775454	 -0.758629	 0.373215
H	 2.602506	 0.991426	 0.521189
H	 2.036544	 -0.064960	 1.818805

	symmetry c1
}
set optking {
	frozen_dihedral = ("
		8 5 3 6,
		5 8 11 13,
		11 8 5 3
	")
}

ee = energy('scf')
oeprop('DIPOLE', 'QUADRUPOLE', 'MULLIKEN_CHARGES')
f=open( 'psi4out.xyz', 'w' )
f.write( "14  " )
f.write( str(ee) + "\n" )
f.write( MOL.save_string_xyz() )
f.close()
--------------------------------------------------------------------------

    Molecular point group: c1

    Geometry (in Angstrom), charge = 0, multiplicity = 1:

       Center              X                  Y                   Z               Mass
    ------------   -----------------  -----------------  -----------------  -----------------
           H         -2.766469563535    -0.976374790586    -0.340384637136     1.007825032070
           N         -1.831670563535    -0.829306790586    -0.012517637136    14.003074004780
           C         -1.312795563535     0.440608209414    -0.489161637136    12.000000000000
           H         -1.268561563535    -1.576036790586    -0.370863637136     1.007825032070
           C         -0.006163563535     0.759197209414     0.206790362864    12.000000000000
           H         -1.144416563535     0.469397209414    -1.566575637136     1.007825032070
           H         -2.030111563535     1.219958209414    -0.250722637136     1.007825032070
           O          0.936154436465    -0.204953790586    -0.166758637136    15.994914619560
           H          0.340536436465     1.752003209414    -0.079167637136     1.007825032070
           H         -0.153035563535     0.745546209414     1.284508362864     1.007825032070
           C          2.167573436465    -0.081499790586     0.470372362864    12.000000000000
           H          2.807344436465    -0.872748790586     0.103883362864     1.007825032070
           H          2.634396436465     0.877306209414     0.251857362864     1.007825032070
           H          2.068434436465    -0.179079790586     1.549473362864     1.007825032070

  Charge       = 0
  Multiplicity = 1
  Basis Set: 6-31G*
  Basis Set:

    Orbital Energies (a.u.)
    -----------------------

    Doubly Occupied:

       1A    -20.554930     2A    -15.529547     3A    -11.264389
       4A    -11.263275     5A    -11.241178     6A     -1.378854
       7A     -1.174191     8A     -0.998078     9A     -0.905685
      10A     -0.813851    11A     -0.682019    12A     -0.674115
      13A     -0.642433    14A     -0.611079    15A     -0.606691
      16A     -0.536907    17A     -0.527740    18A     -0.496959
      19A     -0.472060    20A     -0.415274    21A     -0.380910

  @DF-RHF Final Energy:  -248.12481252099604

   => Energetics <=

    Nuclear Repulsion Energy =            194.5071087855135943
    One-Electron Energy =                -722.9234542847997318
    Two-Electron Energy =                 280.2915329782899221
    DFT Exchange-Correlation Energy =       0.0000000000000000
    Empirical Dispersion Energy =           0.0000000000000000
    PCM Polarization Energy =               0.0000000000000000
    EFP Energy =                            0.0000000000000000
    Total Energy =                       -248.1248125209961586

  Mulliken Charges: (a.u.)
   Center  Symbol    Alpha    Beta     Spin     Total
       1     H     0.33270  0.33270  0.00000  0.33460
       2     N     3.92240  3.92240  0.00000 -0.84480
       3     C     3.07333  3.07333  0.00000 -0.14666
       4     H     0.32480  0.32480  0.00000  0.35040
       5     C     2.98487  2.98487  0.00000  0.03026
       6     H     0.42579  0.42579  0.00000  0.14841
       7     H     0.42088  0.42088  0.00000  0.15824
       8     O     4.30954  4.30954  0.00000 -0.61908
       9     H     0.43282  0.43282  0.00000  0.13435
      10     H     0.42332  0.42332  0.00000  0.15337
      11     C     3.07853  3.07853  0.00000 -0.15706
      12     H     0.41292  0.41292  0.00000  0.17416
      13     H     0.43054  0.43054  0.00000  0.13891
      14     H     0.42755  0.42755  0.00000  0.14490

   Total alpha = 21.00000, Total beta = 21.00000, Total charge =  0.00000
