                              Psi4 1.0.54 Driver

  ==> Input File <==

--------------------------------------------------------------------------
set {
	reference rhf
	basis cc-pvtz
}

set_num_threads( 4 )
memory 2 gb

molecule MOL {
0 1

H	 2.182352	 2.487145	 2.896522
N	 1.351157	 1.936156	 2.862721
C	 0.970943	 1.645240	 1.489307
H	 0.635444	 2.453973	 3.328520
C	 -0.248517	 0.736599	 1.444437
H	 1.807406	 1.145040	 1.012824
H	 0.770109	 2.544361	 0.905181
C	 -0.678115	 0.376691	 0.025731
H	 -0.028459	 -0.164517	 2.007439
H	 -1.074374	 1.225817	 1.957379
C	 -1.900706	 -0.535531	 -0.022488
H	 0.148674	 -0.108452	 -0.488089
H	 -0.889956	 1.286173	 -0.531797
C	 -3.220513	 0.226854	 0.028039
H	 -1.865036	 -1.134397	 -0.928236
H	 -1.857948	 -1.236381	 0.806820
H	 -3.309098	 0.911849	 -0.808725
H	 -4.066838	 -0.449485	 -0.008086
H	 -3.301685	 0.809374	 0.939860

	symmetry c1
}
set optking {
	frozen_dihedral = ("
		12 8 11 15
	")
}

ee,wfn = optimize('scf', return_wfn=True)
oeprop( wfn, 'DIPOLE', 'QUADRUPOLE', 'MULLIKEN_CHARGES')
f=open( 'psi4out.xyz', 'w' )
f.write( "19  " )
f.write( str(ee) + "\n" )
f.write( MOL.save_string_xyz() )
f.close()
--------------------------------------------------------------------------

    Molecular point group: c1
  Charge       = 0
  Multiplicity = 1
  Basis Set: CC-PVTZ
  Basis Set:
  @DF-RHF Final Energy:  -251.44512901990623
    Total Energy =                       -251.4451290199060622
    Molecular point group: c1
  Basis Set: CC-PVTZ
  Basis Set:
  Basis Set: CC-PVTZ
  Basis Set:
  @DF-RHF Final Energy:  -251.44531918113239
    Total Energy =                       -251.4453191811323904
  Basis Set: CC-PVTZ
  Basis Set:
  Basis Set: CC-PVTZ
  Basis Set:
  @DF-RHF Final Energy:  -251.44535622698990
    Total Energy =                       -251.4453562269900431
  Basis Set: CC-PVTZ
  Basis Set:
  Charge       = 0
  Multiplicity = 1
  Basis Set: CC-PVTZ
  Basis Set:

    Orbital Energies (a.u.)
    -----------------------

    Doubly Occupied:

       1A    -15.526450     2A    -11.237902     3A    -11.211958
       4A    -11.210458     5A    -11.207778     6A    -11.205854
       7A     -1.178174     8A     -1.073304     9A     -0.997494
      10A     -0.903220    11A     -0.820524    12A     -0.782805
      13A     -0.664991    14A     -0.636604    15A     -0.612741
      16A     -0.603971    17A     -0.563452    18A     -0.556700
      19A     -0.520056    20A     -0.496974    21A     -0.493708
      22A     -0.462588    23A     -0.453973    24A     -0.451573
      25A     -0.383822

  @DF-RHF Final Energy:  -251.44535682122617

   => Energetics <=

    Nuclear Repulsion Energy =            248.4666288805541114
    One-Electron Energy =                -831.3098228301253130
    Two-Electron Energy =                 331.3978371283449178
    DFT Exchange-Correlation Energy =       0.0000000000000000
    Empirical Dispersion Energy =           0.0000000000000000
    PCM Polarization Energy =               0.0000000000000000
    EFP Energy =                            0.0000000000000000
    Total Energy =                       -251.4453568212262553
    Molecular point group: c1
  Basis Set: CC-PVTZ
  Basis Set:

  -Total Gradient:
     Atom            X                  Y                   Z
    ------   -----------------  -----------------  -----------------
       1        0.000000283652     0.000006959825     0.000015706904
       2        0.000021305772     0.000020594152     0.000015991924
       3       -0.000021802223    -0.000028613312    -0.000002268689
       4        0.000002247256     0.000004416536     0.000005375147
       5       -0.000002438026    -0.000004897396     0.000005500255
       6        0.000000047662     0.000000425852    -0.000006078226
       7        0.000002162178     0.000000324540    -0.000005482324
       8        0.001151430051    -0.002058219136     0.003282883160
       9        0.000006357819     0.000002265265    -0.000015845379
      10       -0.000000199672    -0.000000997507    -0.000007009533
      11       -0.001785683106     0.002838506197    -0.002296460422
      12       -0.000674828491     0.001268983910    -0.002392117465
      13       -0.000017250538    -0.000012895535     0.000004949416
      14       -0.000017978326     0.000021659263     0.000018470744
      15        0.001310287211    -0.002061787186     0.001370920167
      16        0.000003551882     0.000031151195    -0.000001967450
      17        0.000022598212    -0.000017486391     0.000004501329
      18       -0.000001824851    -0.000008927354     0.000002547474
      19        0.000001733534    -0.000001462920     0.000000382970

  **** Optimization is complete! (in 4 steps) ****
    Final optimized geometry and variables:
    Molecular point group: c1

    Geometry (in Angstrom), charge = 0, multiplicity = 1:

    H            2.767898348674     1.682476537635     1.973610651892
    N            1.938294948311     1.130612598789     1.920000442660
    C            1.573619024234     0.865622167388     0.537111998278
    H            1.216643753117     1.638358065461     2.387770013646
    C            0.357451378503    -0.045466468827     0.461010827301
    H            2.416449680319     0.376954851914     0.059707009491
    H            1.376437912345     1.775399054273    -0.031457066409
    C           -0.041409080646    -0.392894446112    -0.970374158072
    H            0.571062528480    -0.953417098785     1.015100833645
    H           -0.475386766825     0.436286440671     0.968220694160
    C           -1.299795429215    -1.263229829802    -1.076014545498
    H            0.785002140220    -0.893628915969    -1.466198980197
    H           -0.200510090687     0.524372118456    -1.533508135493
    C           -2.606274593841    -0.476870333833    -1.028917507877
    H           -1.258408778314    -1.845449128161    -1.990741800845
    H           -1.292734554282    -1.993283196323    -0.270882479378
    H           -2.674158859298     0.213425584482    -1.863121626534
    H           -3.462686506394    -1.139756543662    -1.077694979109
    H           -2.691924783831     0.100882769438    -0.115296080412

  Mulliken Charges: (a.u.)
   Center  Symbol    Alpha    Beta     Spin     Total
       1     H     0.43023  0.43023  0.00000  0.13954
       2     N     3.68908  3.68908  0.00000 -0.37816
       3     C     3.02686  3.02686  0.00000 -0.05371
       4     H     0.43109  0.43109  0.00000  0.13783
       5     C     3.08212  3.08212  0.00000 -0.16423
       6     H     0.45694  0.45694  0.00000  0.08612
       7     H     0.46797  0.46797  0.00000  0.06406
       8     C     3.09975  3.09975  0.00000 -0.19949
       9     H     0.44865  0.44865  0.00000  0.10269
      10     H     0.45988  0.45988  0.00000  0.08024
      11     C     3.09009  3.09009  0.00000 -0.18018
      12     H     0.44831  0.44831  0.00000  0.10339
      13     H     0.45860  0.45860  0.00000  0.08281
      14     C     3.14791  3.14791  0.00000 -0.29582
      15     H     0.44811  0.44811  0.00000  0.10377
      16     H     0.45542  0.45542  0.00000  0.08915
      17     H     0.45556  0.45556  0.00000  0.08889
      18     H     0.44797  0.44797  0.00000  0.10405
      19     H     0.45547  0.45547  0.00000  0.08906

   Total alpha = 25.00000, Total beta = 25.00000, Total charge = -0.00000

*** Psi4 exiting successfully. Buy a developer a beer!
