                              Psi4 1.0.54 Driver

  ==> Input File <==

--------------------------------------------------------------------------
set {
	reference rhf
	basis cc-pvtz
}

set_num_threads( 4 )
memory 2 gb

molecule MOL {
0 1

H	 -3.512753	 -0.003713	 0.727103
O	 -3.101481	 -0.255066	 -0.080383
C	 -1.771634	 -0.090851	 -0.022605
C	 -1.136527	 0.393628	 1.114213
C	 -1.036116	 -0.423683	 -1.147957
H	 -1.713961	 0.649681	 1.983370
C	 0.230017	 0.542691	 1.119816
H	 -1.545456	 -0.795566	 -2.014153
C	 0.331539	 -0.268545	 -1.126084
H	 0.731905	 0.915452	 1.990602
C	 0.981121	 0.213562	 0.000000
H	 0.903155	 -0.526448	 -1.998586
C	 2.447402	 0.371303	 0.000000
O	 3.227427	 -0.521847	 0.000000
H	 2.796538	 1.409525	 0.000000

	symmetry c1
}
set optking {
	frozen_dihedral = ("
		7 11 13 14
	")
}

ee,wfn = optimize('scf', return_wfn=True)
oeprop( wfn, 'DIPOLE', 'QUADRUPOLE', 'MULLIKEN_CHARGES')
f=open( 'psi4out.xyz', 'w' )
f.write( "15  " )
f.write( str(ee) + "\n" )
f.write( MOL.save_string_xyz() )
f.close()
--------------------------------------------------------------------------

    Molecular point group: c1
  Charge       = 0
  Multiplicity = 1
  Basis Set: CC-PVTZ
  Basis Set:
  @DF-RHF Final Energy:  -418.42833324441870
    Total Energy =                       -418.4283332444186954
    Molecular point group: c1
  Basis Set: CC-PVTZ
  Basis Set:
  Basis Set: CC-PVTZ
  Basis Set:
  @DF-RHF Final Energy:  -418.42828182654966
    Total Energy =                       -418.4282818265498918
  Basis Set: CC-PVTZ
  Basis Set:
  Basis Set: CC-PVTZ
  Basis Set:
  @DF-RHF Final Energy:  -418.42852650985316
    Total Energy =                       -418.4285265098534410
  Basis Set: CC-PVTZ
  Basis Set:
  Basis Set: CC-PVTZ
  Basis Set:
  @DF-RHF Final Energy:  -418.42928830194489
    Total Energy =                       -418.4292883019450073
  Basis Set: CC-PVTZ
  Basis Set:
  Basis Set: CC-PVTZ
  Basis Set:
  @DF-RHF Final Energy:  -418.42930080841558
    Total Energy =                       -418.4293008084157464
  Basis Set: CC-PVTZ
  Basis Set:
  Basis Set: CC-PVTZ
  Basis Set:
  @DF-RHF Final Energy:  -418.42930197483184
    Total Energy =                       -418.4293019748317874
  Basis Set: CC-PVTZ
  Basis Set:
  Charge       = 0
  Multiplicity = 1
  Basis Set: CC-PVTZ
  Basis Set:

    Orbital Energies (a.u.)
    -----------------------

    Doubly Occupied:

       1A    -20.597469     2A    -20.559360     3A    -11.329623
       4A    -11.312836     5A    -11.254566     6A    -11.250402
       7A    -11.241271     8A    -11.240817     9A    -11.234287
      10A     -1.429388    11A     -1.413655    12A     -1.172667
      13A     -1.042179    14A     -1.038185    15A     -0.891897
      16A     -0.861242    17A     -0.805399    18A     -0.757365
      19A     -0.706170    20A     -0.685237    21A     -0.654777
      22A     -0.631078    23A     -0.608388    24A     -0.608048
      25A     -0.594208    26A     -0.564133    27A     -0.536906
      28A     -0.505924    29A     -0.496833    30A     -0.425113
      31A     -0.358474    32A     -0.328575

  @DF-RHF Final Energy:  -418.42930223393131

   => Energetics <=

    Nuclear Repulsion Energy =            401.6036754964091529
    One-Electron Energy =               -1365.7930093015083912
    Two-Electron Energy =                 545.7600315711678149
    DFT Exchange-Correlation Energy =       0.0000000000000000
    Empirical Dispersion Energy =           0.0000000000000000
    PCM Polarization Energy =               0.0000000000000000
    EFP Energy =                            0.0000000000000000
    Total Energy =                       -418.4293022339314803
    Molecular point group: c1
  Basis Set: CC-PVTZ
  Basis Set:

  -Total Gradient:
     Atom            X                  Y                   Z
    ------   -----------------  -----------------  -----------------
       1        0.000008549551    -0.000000093378    -0.000000730244
       2       -0.000014826821    -0.000031331541     0.000007753166
       3        0.000016286747     0.000074063848    -0.000043348495
       4        0.000014647153    -0.000013015992     0.000028349797
       5       -0.000019812720    -0.000034258174     0.000024238712
       6        0.000000585181     0.000000889626     0.000000209960
       7        0.000297885238    -0.005121148617     0.001689865242
       8        0.000009460030     0.000001549913    -0.000004118888
       9       -0.000004027444     0.000057856673     0.000006240888
      10       -0.000005518596     0.000029468311     0.000000864401
      11       -0.000549429237     0.007238625743     0.000432593584
      12       -0.000002726655     0.000013806476    -0.000018311103
      13        0.000295352539    -0.001949405232    -0.008743455006
      14       -0.000092684997    -0.000292883679     0.006609527532
      15        0.000046260033     0.000025876025     0.000010320455

  **** Optimization is complete! (in 7 steps) ****
    Final optimized geometry and variables:
    Molecular point group: c1

    Geometry (in Angstrom), charge = 0, multiplicity = 1:

    H           -3.511875048289    -0.021723887346     0.762541498772
    O           -3.104606775570    -0.263639635511    -0.049635476973
    C           -1.772801004063    -0.078039544392    -0.000280257185
    C           -1.133330322553     0.417789185727     1.120847601196
    C           -1.037960646949    -0.408685933456    -1.127617810746
    H           -1.698218258968     0.661801328985     2.001726711640
    C            0.236721642278     0.595693444284     1.105945275587
    H           -1.547100012685    -0.800318514633    -1.985671861801
    C            0.328371266374    -0.246057454785    -1.122269533986
    H            0.722466884037     0.984202270265     1.982083835644
    C            0.978278791160     0.277870042195    -0.014593302732
    H            0.897297940706    -0.529810123276    -1.986891754981
    C            2.469070478322     0.382965669228     0.022597385995
    O            3.195745490624    -0.549104058451     0.004283271374
    H            2.877156773267     1.393980330502     0.128999584393

  Mulliken Charges: (a.u.)
   Center  Symbol    Alpha    Beta     Spin     Total
       1     H     0.38657  0.38657  0.00000  0.22686
       2     O     4.16979  4.16979  0.00000 -0.33958
       3     C     2.85472  2.85472  0.00000  0.29056
       4     C     3.12634  3.12634  0.00000 -0.25267
       5     C     3.09813  3.09813  0.00000 -0.19625
       6     H     0.43229  0.43229  0.00000  0.13541
       7     C     3.08317  3.08317  0.00000 -0.16635
       8     H     0.41714  0.41714  0.00000  0.16572
       9     C     3.07439  3.07439  0.00000 -0.14878
      10     H     0.42303  0.42303  0.00000  0.15393
      11     C     2.96579  2.96579  0.00000  0.06842
      12     H     0.41821  0.41821  0.00000  0.16359
      13     C     2.93528  2.93528  0.00000  0.12944
      14     O     4.15800  4.15800  0.00000 -0.31599
      15     H     0.45715  0.45715  0.00000  0.08570

   Total alpha = 32.00000, Total beta = 32.00000, Total charge =  0.00000

*** Psi4 exiting successfully. Buy a developer a beer!
