  ==> Input File <==

--------------------------------------------------------------------------
set {
	reference rhf
	basis 6-31G*
}

set_num_threads( 1 )
memory 2 gb

molecule MOL {
0 1

H	 3.463771	 0.168298	 -0.756243
C	 2.752674	 -0.045734	 0.033351
C	 1.322923	 0.120767	 -0.479465
H	 2.934561	 -1.059086	 0.377456
H	 2.958358	 0.631174	 0.856809
C	 0.306652	 -0.176050	 0.621399
H	 1.144658	 -0.551717	 -1.312180
H	 1.166477	 1.131798	 -0.836680
N	 -1.068537	 -0.011044	 0.085269
H	 0.372515	 -1.192590	 0.973735
H	 0.391664	 0.520566	 1.441230
O	 -1.431628	 1.095740	 -0.168831
O	 -1.728680	 -0.999100	 -0.024183

	symmetry c1
}
set optking {
	frozen_dihedral = ("
		7 3 6 9
	")
}

ee = energy('scf')
oeprop('DIPOLE', 'QUADRUPOLE', 'MULLIKEN_CHARGES')
f=open( 'psi4out.xyz', 'w' )
f.write( "13  " )
f.write( str(ee) + "\n" )
f.write( MOL.save_string_xyz() )
f.close()
--------------------------------------------------------------------------

    Molecular point group: c1

    Geometry (in Angstrom), charge = 0, multiplicity = 1:

       Center              X                  Y                   Z               Mass
    ------------   -----------------  -----------------  -----------------  -----------------
           H          3.468211166169     0.170267881173    -0.767025487551     1.007825032070
           C          2.757114166169    -0.043764118827     0.022568512449    12.000000000000
           C          1.327363166169     0.122736881173    -0.490247487551    12.000000000000
           H          2.939001166169    -1.057116118827     0.366673512449     1.007825032070
           H          2.962798166169     0.633143881173     0.846026512449     1.007825032070
           C          0.311092166169    -0.174080118827     0.610616512449    12.000000000000
           H          1.149098166169    -0.549747118827    -1.322962487551     1.007825032070
           H          1.170917166169     1.133767881173    -0.847462487551     1.007825032070
           N         -1.064096833831    -0.009074118827     0.074486512449    14.003074004780
           H          0.376955166169    -1.190620118827     0.962952512449     1.007825032070
           H          0.396104166169     0.522535881173     1.430447512449     1.007825032070
           O         -1.427187833831     1.097709881173    -0.179613487551    15.994914619560
           O         -1.724239833831    -0.997130118827    -0.034965487551    15.994914619560

  Charge       = 0
  Multiplicity = 1
  Basis Set: 6-31G*
  Basis Set:

    Orbital Energies (a.u.)
    -----------------------

    Doubly Occupied:

       1A    -20.601701     2A    -20.599966     3A    -15.847115
       4A    -11.299169     5A    -11.256073     6A    -11.239544
       7A     -1.630723     8A     -1.416309     9A     -1.135375
      10A     -1.028140    11A     -0.883715    12A     -0.833016
      13A     -0.758943    14A     -0.735875    15A     -0.723173
      16A     -0.671043    17A     -0.604585    18A     -0.588069
      19A     -0.550949    20A     -0.521918    21A     -0.514002
      22A     -0.484217    23A     -0.472949    24A     -0.448171

  @DF-RHF Final Energy:  -321.73533836921956

   => Energetics <=

    Nuclear Repulsion Energy =            247.3662994263970916
    One-Electron Energy =                -928.5138513749993763
    Two-Electron Energy =                 359.4122135793827510
    DFT Exchange-Correlation Energy =       0.0000000000000000
    Empirical Dispersion Energy =           0.0000000000000000
    PCM Polarization Energy =               0.0000000000000000
    EFP Energy =                            0.0000000000000000
    Total Energy =                       -321.7353383692195621

  Mulliken Charges: (a.u.)
   Center  Symbol    Alpha    Beta     Spin     Total
       1     H     0.40747  0.40747  0.00000  0.18507
       2     C     3.24807  3.24807  0.00000 -0.49613
       3     C     3.17369  3.17369  0.00000 -0.34738
       4     H     0.41499  0.41499  0.00000  0.17002
       5     H     0.41487  0.41487  0.00000  0.17026
       6     C     3.08485  3.08485  0.00000 -0.16970
       7     H     0.40313  0.40313  0.00000  0.19375
       8     H     0.39542  0.39542  0.00000  0.20915
       9     N     3.22226  3.22226  0.00000  0.55548
      10     H     0.38600  0.38600  0.00000  0.22801
      11     H     0.38842  0.38842  0.00000  0.22316
      12     O     4.23155  4.23155  0.00000 -0.46311
      13     O     4.22929  4.22929  0.00000 -0.45858

   Total alpha = 24.00000, Total beta = 24.00000, Total charge = -0.00000
