  ==> Input File <==

--------------------------------------------------------------------------
set {
	reference rhf
	basis 6-31G*
}

set_num_threads( 1 )
memory 2 gb

molecule MOL {
0 1

H	 -2.741486	 0.816831	 -1.294971
O	 -3.452007	 0.283848	 -0.965577
C	 -3.181085	 -0.079926	 0.364119
C	 -1.765924	 0.277073	 0.805136
H	 -3.327791	 -1.152017	 0.410903
H	 -3.905698	 0.375695	 1.036898
C	 -0.677594	 -0.417312	 -0.014550
H	 -1.637766	 1.358238	 0.744969
H	 -1.659588	 0.017670	 1.857098
C	 0.738335	 -0.034840	 0.421385
H	 -0.814977	 -0.178223	 -1.064632
H	 -0.802730	 -1.495410	 0.071702
C	 1.822265	 -0.738362	 -0.399735
H	 0.853533	 1.043532	 0.342250
H	 0.871597	 -0.279636	 1.474438
C	 3.258060	 -0.455774	 0.057203
H	 1.718003	 -0.459167	 -1.447053
H	 1.651028	 -1.811884	 -0.354513
C	 3.709143	 0.994797	 -0.123830
H	 3.930637	 -1.101717	 -0.501982
H	 3.365259	 -0.739518	 1.102287
H	 3.601178	 1.310569	 -1.158127
H	 4.753787	 1.110486	 0.148516
H	 3.135362	 1.678896	 0.492569

	symmetry c1
}
set optking {
	frozen_dihedral = ("
		20 16 13 17,
		17 13 10 7,
		13 10 7 11,
		11 7 4 3,
		7 4 3 2
	")
}

ee = energy('scf')
oeprop('DIPOLE', 'QUADRUPOLE', 'MULLIKEN_CHARGES')
f=open( 'psi4out.xyz', 'w' )
f.write( "24  " )
f.write( str(ee) + "\n" )
f.write( MOL.save_string_xyz() )
f.close()
--------------------------------------------------------------------------

    Molecular point group: c1

    Geometry (in Angstrom), charge = 0, multiplicity = 1:

       Center              X                  Y                   Z               Mass
    ------------   -----------------  -----------------  -----------------  -----------------
           H         -2.747381107230     0.820394467097    -1.292795008706     1.007825032070
           O         -3.457902107230     0.287411467097    -0.963401008706    15.994914619560
           C         -3.186980107230    -0.076362532903     0.366294991294    12.000000000000
           C         -1.771819107230     0.280636467097     0.807311991294    12.000000000000
           H         -3.333686107230    -1.148453532903     0.413078991294     1.007825032070
           H         -3.911593107230     0.379258467097     1.039073991294     1.007825032070
           C         -0.683489107230    -0.413748532903    -0.012374008706    12.000000000000
           H         -1.643661107230     1.361801467097     0.747144991294     1.007825032070
           H         -1.665483107230     0.021233467097     1.859273991294     1.007825032070
           C          0.732439892770    -0.031276532903     0.423560991294    12.000000000000
           H         -0.820872107230    -0.174659532903    -1.062456008706     1.007825032070
           H         -0.808625107230    -1.491846532903     0.073877991294     1.007825032070
           C          1.816369892770    -0.734798532903    -0.397559008706    12.000000000000
           H          0.847637892770     1.047095467097     0.344425991294     1.007825032070
           H          0.865701892770    -0.276072532903     1.476613991294     1.007825032070
           C          3.252164892770    -0.452210532903     0.059378991294    12.000000000000
           H          1.712107892770    -0.455603532903    -1.444877008706     1.007825032070
           H          1.645132892770    -1.808320532903    -0.352337008706     1.007825032070
           C          3.703247892770     0.998360467097    -0.121654008706    12.000000000000
           H          3.924741892770    -1.098153532903    -0.499806008706     1.007825032070
           H          3.359363892770    -0.735954532903     1.104462991294     1.007825032070
           H          3.595282892770     1.314132467097    -1.155951008706     1.007825032070
           H          4.747891892770     1.114049467097     0.150691991294     1.007825032070
           H          3.129466892770     1.682459467097     0.494744991294     1.007825032070

  Charge       = 0
  Multiplicity = 1
  Basis Set: 6-31G*
  Basis Set:

    Orbital Energies (a.u.)
    -----------------------

    Doubly Occupied:

       1A    -20.549492     2A    -11.266012     3A    -11.224839
       4A    -11.222500     5A    -11.219350     6A    -11.218152
       7A    -11.217009     8A    -11.210786     9A     -1.357884
      10A     -1.095350    11A     -1.053323    12A     -0.989365
      13A     -0.919989    14A     -0.856660    15A     -0.805839
      16A     -0.781954    17A     -0.662844    18A     -0.659458
      19A     -0.637220    20A     -0.625373    21A     -0.606110
      22A     -0.589664    23A     -0.561766    24A     -0.541191
      25A     -0.523948    26A     -0.515493    27A     -0.498096
      28A     -0.479520    29A     -0.476871    30A     -0.464955
      31A     -0.457913    32A     -0.445078    33A     -0.424749

  @DF-RHF Final Energy:  -349.24401486598362

   => Energetics <=

    Nuclear Repulsion Energy =            385.3000928323754692
    One-Electron Energy =               -1236.7706863818089005
    Two-Electron Energy =                 502.2265786834499295
    DFT Exchange-Correlation Energy =       0.0000000000000000
    Empirical Dispersion Energy =           0.0000000000000000
    PCM Polarization Energy =               0.0000000000000000
    EFP Energy =                            0.0000000000000000
    Total Energy =                       -349.2440148659835586

  Mulliken Charges: (a.u.)
   Center  Symbol    Alpha    Beta     Spin     Total
       1     H     0.27913  0.27913  0.00000  0.44174
       2     O     4.37678  4.37678  0.00000 -0.75356
       3     C     2.97599  2.97599  0.00000  0.04802
       4     C     3.19028  3.19028  0.00000 -0.38056
       5     H     0.42390  0.42390  0.00000  0.15221
       6     H     0.42445  0.42445  0.00000  0.15110
       7     C     3.15312  3.15312  0.00000 -0.30624
       8     H     0.42174  0.42174  0.00000  0.15652
       9     H     0.41659  0.41659  0.00000  0.16682
      10     C     3.15327  3.15327  0.00000 -0.30654
      11     H     0.42492  0.42492  0.00000  0.15017
      12     H     0.41858  0.41858  0.00000  0.16284
      13     C     3.15264  3.15264  0.00000 -0.30529
      14     H     0.42189  0.42189  0.00000  0.15621
      15     H     0.42298  0.42298  0.00000  0.15405
      16     C     3.15267  3.15267  0.00000 -0.30534
      17     H     0.42388  0.42388  0.00000  0.15223
      18     H     0.42126  0.42126  0.00000  0.15748
      19     C     3.24138  3.24138  0.00000 -0.48276
      20     H     0.42021  0.42021  0.00000  0.15957
      21     H     0.42311  0.42311  0.00000  0.15378
      22     H     0.42219  0.42219  0.00000  0.15562
      23     H     0.41862  0.41862  0.00000  0.16276
      24     H     0.42041  0.42041  0.00000  0.15917

   Total alpha = 33.00000, Total beta = 33.00000, Total charge = -0.00000
