  ==> Input File <==

--------------------------------------------------------------------------
set {
	reference rhf
	basis 6-31G*
}

set_num_threads( 1 )
memory 2 gb

molecule MOL {
0 1

H	 0.572572	 4.776128	 0.184161
N	 -0.223952	 4.176433	 0.086897
C	 0.182041	 2.778473	 0.066824
H	 -0.669676	 4.424979	 -0.775881
C	 -1.038622	 1.865654	 0.016852
H	 0.738279	 2.583703	 0.978703
H	 0.849310	 2.537265	 -0.764421
C	 -0.679275	 0.379305	 0.025956
H	 -1.678719	 2.102381	 0.861879
H	 -1.615339	 2.091471	 -0.879665
C	 -1.903357	 -0.536963	 -0.023547
H	 -0.100339	 0.153584	 0.920233
H	 -0.031356	 0.155767	 -0.820258
C	 -3.225172	 0.228290	 0.028445
H	 -1.867824	 -1.134999	 -0.931459
H	 -1.860449	 -1.239604	 0.805977
H	 -3.313397	 0.915643	 -0.808262
H	 -4.073500	 -0.448134	 -0.008893
H	 -3.306061	 0.809945	 0.942516

	symmetry c1
}
set optking {
	frozen_dihedral = ("
		6 3 5 9,
		12 8 5 9,
		1 2 3 6
	")
}

ee = energy('scf')
oeprop('DIPOLE', 'QUADRUPOLE', 'MULLIKEN_CHARGES')
f=open( 'psi4out.xyz', 'w' )
f.write( "19  " )
f.write( str(ee) + "\n" )
f.write( MOL.save_string_xyz() )
f.close()
--------------------------------------------------------------------------

    Molecular point group: c1

    Geometry (in Angstrom), charge = 0, multiplicity = 1:

       Center              X                  Y                   Z               Mass
    ------------   -----------------  -----------------  -----------------  -----------------
           H          1.715943274832     3.250071325333     0.157830604232     1.007825032070
           N          0.919419274832     2.650376325333     0.060566604232    14.003074004780
           C          1.325412274832     1.252416325333     0.040493604232    12.000000000000
           H          0.473695274832     2.898922325333    -0.802211395768     1.007825032070
           C          0.104749274832     0.339597325333    -0.009478395768    12.000000000000
           H          1.881650274832     1.057646325333     0.952372604232     1.007825032070
           H          1.992681274832     1.011208325333    -0.790751395768     1.007825032070
           C          0.464096274832    -1.146751674667    -0.000374395768    12.000000000000
           H         -0.535347725168     0.576324325333     0.835548604232     1.007825032070
           H         -0.471967725168     0.565414325333    -0.905995395768     1.007825032070
           C         -0.759985725168    -2.063019674667    -0.049877395768    12.000000000000
           H          1.043032274832    -1.372472674667     0.893902604232     1.007825032070
           H          1.112015274832    -1.370289674667    -0.846588395768     1.007825032070
           C         -2.081800725168    -1.297766674667     0.002114604232    12.000000000000
           H         -0.724452725168    -2.661055674667    -0.957789395768     1.007825032070
           H         -0.717077725168    -2.765660674667     0.779646604232     1.007825032070
           H         -2.170025725168    -0.610413674667    -0.834592395768     1.007825032070
           H         -2.930128725168    -1.974190674667    -0.035223395768     1.007825032070
           H         -2.162689725168    -0.716111674667     0.916185604232     1.007825032070

  Charge       = 0
  Multiplicity = 1
  Basis Set: 6-31G*
  Basis Set:

    Orbital Energies (a.u.)
    -----------------------

    Doubly Occupied:

       1A    -15.531836     2A    -11.238361     3A    -11.212156
       4A    -11.211010     5A    -11.207674     6A    -11.204280
       7A     -1.175867     8A     -1.076291     9A     -0.989278
      10A     -0.905479    11A     -0.829637    12A     -0.765464
      13A     -0.665093    14A     -0.642778    15A     -0.611082
      16A     -0.601030    17A     -0.572097    18A     -0.535868
      19A     -0.529842    20A     -0.503556    21A     -0.488791
      22A     -0.458288    23A     -0.452798    24A     -0.440382
      25A     -0.380361

  @DF-RHF Final Energy:  -251.33748655206705

   => Energetics <=

    Nuclear Repulsion Energy =            252.3083822991963530
    One-Electron Energy =                -838.8331216109495472
    Two-Electron Energy =                 335.1872527596862028
    DFT Exchange-Correlation Energy =       0.0000000000000000
    Empirical Dispersion Energy =           0.0000000000000000
    PCM Polarization Energy =               0.0000000000000000
    EFP Energy =                            0.0000000000000000
    Total Energy =                       -251.3374865520669346

  Mulliken Charges: (a.u.)
   Center  Symbol    Alpha    Beta     Spin     Total
       1     H     0.33254  0.33254  0.00000  0.33492
       2     N     3.92204  3.92204  0.00000 -0.84407
       3     C     3.05812  3.05812  0.00000 -0.11624
       4     H     0.33560  0.33560  0.00000  0.32880
       5     C     3.15781  3.15781  0.00000 -0.31561
       6     H     0.42147  0.42147  0.00000  0.15706
       7     H     0.43538  0.43538  0.00000  0.12924
       8     C     3.15907  3.15907  0.00000 -0.31813
       9     H     0.41043  0.41043  0.00000  0.17913
      10     H     0.42631  0.42631  0.00000  0.14737
      11     C     3.15412  3.15412  0.00000 -0.30824
      12     H     0.42102  0.42102  0.00000  0.15797
      13     H     0.42190  0.42190  0.00000  0.15620
      14     C     3.24538  3.24538  0.00000 -0.49077
      15     H     0.42104  0.42104  0.00000  0.15792
      16     H     0.42008  0.42008  0.00000  0.15984
      17     H     0.42032  0.42032  0.00000  0.15935
      18     H     0.41866  0.41866  0.00000  0.16267
      19     H     0.41870  0.41870  0.00000  0.16260

   Total alpha = 25.00000, Total beta = 25.00000, Total charge = -0.00000
