  ==> Input File <==

--------------------------------------------------------------------------
set {
	reference rhf
	basis 6-31G*
}

set_num_threads( 4 )
memory 2 gb

molecule MOL {
0 1

H	 -0.944757	 -0.000069	 1.678017
O	 -0.042387	 -0.000390	 1.388199
C	 -0.001487	 0.000018	 -0.026623
C	 -0.480185	 -1.354350	 -0.553099
C	 -0.877275	 1.133582	 -0.563906
C	 1.462569	 0.232136	 -0.383109
H	 -0.421310	 -1.401701	 -1.635776
H	 -1.514792	 -1.534916	 -0.270450
H	 0.125274	 -2.153106	 -0.139062
H	 -0.836286	 1.186296	 -1.647249
H	 -1.916721	 0.986553	 -0.279537
H	 -0.549746	 2.084831	 -0.159276
H	 1.602816	 0.249299	 -1.459111
H	 2.079114	 -0.556286	 0.033725
H	 1.802173	 1.177281	 0.025257

	symmetry c1
}
set optking {
	frozen_dihedral = ("
		4 3 2 1
	")
}

ee = optimize('scf')
oeprop('DIPOLE', 'QUADRUPOLE', 'MULLIKEN_CHARGES')
f=open( 'psi4out.xyz', 'w' )
f.write( "15  " )
f.write( str(ee) + "\n" )
f.write( MOL.save_string_xyz() )
f.close()
--------------------------------------------------------------------------

    Molecular point group: c1
  Charge       = 0
  Multiplicity = 1
  Basis Set: 6-31G*
  Basis Set:
  @DF-RHF Final Energy:  -232.15322124579419
    Total Energy =                       -232.1532212457942705
    Molecular point group: c1
  Basis Set: 6-31G*
  Basis Set:
  Basis Set: 6-31G*
  Basis Set:
  @DF-RHF Final Energy:  -232.15322719854038
    Total Energy =                       -232.1532271985406624
  Basis Set: 6-31G*
  Basis Set:
  Basis Set: 6-31G*
  Basis Set:
  @DF-RHF Final Energy:  -232.15322896622027
    Total Energy =                       -232.1532289662201265
  Basis Set: 6-31G*
  Basis Set:
  Charge       = 0
  Multiplicity = 1
  Basis Set: 6-31G*
  Basis Set:

    Orbital Energies (a.u.)
    -----------------------

    Doubly Occupied:

       1A    -20.549034     2A    -11.281799     3A    -11.212861
       4A    -11.209388     5A    -11.205106     6A     -1.360569
       7A     -1.063286     8A     -0.942124     9A     -0.938622
      10A     -0.775603    11A     -0.670169    12A     -0.622421
      13A     -0.621148    14A     -0.574680    15A     -0.556817
      16A     -0.531427    17A     -0.516787    18A     -0.508911
      19A     -0.502999    20A     -0.457067    21A     -0.425214

  @DF-RHF Final Energy:  -232.15322955594519

   => Energetics <=

    Nuclear Repulsion Energy =            200.3578752043914051
    One-Electron Energy =                -711.9701466360165796
    Two-Electron Energy =                 279.4590418756797590
    DFT Exchange-Correlation Energy =       0.0000000000000000
    Empirical Dispersion Energy =           0.0000000000000000
    PCM Polarization Energy =               0.0000000000000000
    EFP Energy =                            0.0000000000000000
    Total Energy =                       -232.1532295559454155
    Molecular point group: c1
  Basis Set: 6-31G*
  Basis Set:

  -Total Gradient:
     Atom            X                  Y                   Z
    ------   -----------------  -----------------  -----------------
       1        0.000006815425     0.000988008979     0.000015502616
       2        0.000166844024    -0.001320510758    -0.000032496647
       3       -0.000840434436     0.000521534529    -0.000058341376
       4        0.000527568298    -0.000250261310     0.000045355534
       5        0.000039146214    -0.000030498110     0.000025500653
       6        0.000010287059     0.000092250371    -0.000006894638
       7        0.000010754175    -0.000002789518    -0.000048820743
       8        0.000045913616    -0.000018936692     0.000031775709
       9       -0.000009069588     0.000035130686     0.000003193111
      10       -0.000002005887    -0.000030578185     0.000047794609
      11       -0.000053000801    -0.000001264867    -0.000012588915
      12        0.000056164844     0.000023300386    -0.000022177801
      13        0.000004237746    -0.000005085191     0.000007217261
      14       -0.000039733151    -0.000014705629    -0.000004154150
      15        0.000076512462     0.000014405309     0.000009134778

  **** Optimization is complete! (in 4 steps) ****
    Final optimized geometry and variables:
    Molecular point group: c1

    Geometry (in Angstrom), charge = 0, multiplicity = 1:

    H           -0.944726208696    -0.009776092413     1.679761765785
    O           -0.042923977997    -0.006864075883     1.388400921982
    C           -0.002618473385    -0.000696413384    -0.026636005202
    C           -0.479147730644    -1.355663268853    -0.553745808483
    C           -0.875971455408     1.134195104382    -0.563590055312
    C            1.462153375309     0.229933276164    -0.383075406954
    H           -0.425473977549    -1.401687873048    -1.637100900304
    H           -1.510588753971    -1.540944179077    -0.263898839021
    H            0.131927456795    -2.151518165157    -0.143048204633
    H           -0.832697559227     1.186723257875    -1.646565212688
    H           -1.916957467891     0.988285047230    -0.282947153531
    H           -0.547587108020     2.085535532509    -0.159166227354
    H            1.604525912827     0.236633282885    -1.458956954002
    H            2.077661470161    -0.555175472289     0.041567693621
    H            1.801890874765     1.178361967030     0.017714169188

  Mulliken Charges: (a.u.)
   Center  Symbol    Alpha    Beta     Spin     Total
       1     H     0.28376  0.28376  0.00000  0.43248
       2     O     4.37616  4.37616  0.00000 -0.75231
       3     C     2.85319  2.85319  0.00000  0.29363
       4     C     3.23816  3.23816  0.00000 -0.47631
       5     C     3.24479  3.24479  0.00000 -0.48958
       6     C     3.23361  3.23361  0.00000 -0.46722
       7     H     0.42236  0.42236  0.00000  0.15528
       8     H     0.42641  0.42641  0.00000  0.14718
       9     H     0.41235  0.41235  0.00000  0.17530
      10     H     0.41949  0.41949  0.00000  0.16102
      11     H     0.42645  0.42645  0.00000  0.14711
      12     H     0.41218  0.41218  0.00000  0.17564
      13     H     0.42414  0.42414  0.00000  0.15171
      14     H     0.41303  0.41303  0.00000  0.17394
      15     H     0.41393  0.41393  0.00000  0.17213

   Total alpha = 21.00000, Total beta = 21.00000, Total charge =  0.00000
