  ==> Input File <==

--------------------------------------------------------------------------
set {
	reference rhf
	basis cc-pvtz
}

set_num_threads( 4 )
memory 2 gb

molecule MOL {
0 1

H	 -1.801642	 -0.953422	 -0.063223
O	 -2.041679	 -0.058866	 0.103463
C	 -0.959304	 0.780994	 -0.094939
C	 0.354905	 0.037902	 -0.006215
H	 -0.985899	 1.279578	 -1.057596
H	 -0.969809	 1.529522	 0.682889
F	 0.412060	 -0.931028	 -0.902708
F	 1.359641	 0.856111	 -0.239961
F	 0.545380	 -0.506387	 1.171682

	symmetry c1
}
set optking {
	frozen_dihedral = ("
		1 2 3 5
	")
}

ee = optimize('scf')
oeprop('DIPOLE', 'QUADRUPOLE', 'MULLIKEN_CHARGES')
f=open( 'psi4out.xyz', 'w' )
f.write( "9  " )
f.write( str(ee) + "\n" )
f.write( MOL.save_string_xyz() )
f.close()
--------------------------------------------------------------------------

    Molecular point group: c1
  Charge       = 0
  Multiplicity = 1
  Basis Set: CC-PVTZ
  Basis Set:
  @DF-RHF Final Energy:  -450.84401149239193
    Total Energy =                       -450.8440114923916440
    Molecular point group: c1
  Basis Set: CC-PVTZ
  Basis Set:
  Basis Set: CC-PVTZ
  Basis Set:
  @DF-RHF Final Energy:  -450.84424360727871
    Total Energy =                       -450.8442436072788837
  Basis Set: CC-PVTZ
  Basis Set:
  Basis Set: CC-PVTZ
  Basis Set:
  @DF-RHF Final Energy:  -450.84431410726586
    Total Energy =                       -450.8443141072655180
  Basis Set: CC-PVTZ
  Basis Set:
  Basis Set: CC-PVTZ
  Basis Set:
  @DF-RHF Final Energy:  -450.84431682213540
    Total Energy =                       -450.8443168221354540
  Basis Set: CC-PVTZ
  Basis Set:
  Charge       = 0
  Multiplicity = 1
  Basis Set: CC-PVTZ
  Basis Set:

    Orbital Energies (a.u.)
    -----------------------

    Doubly Occupied:

       1A    -26.346008     2A    -26.345726     3A    -26.342549
       4A    -20.581071     5A    -11.501423     6A    -11.309803
       7A     -1.754595     8A     -1.652014     9A     -1.648850
      10A     -1.404035    11A     -1.053785    12A     -0.934735
      13A     -0.843884    14A     -0.843020    15A     -0.821666
      16A     -0.727843    17A     -0.725430    18A     -0.689772
      19A     -0.677523    20A     -0.675402    21A     -0.655813
      22A     -0.644172    23A     -0.626422    24A     -0.529250
      25A     -0.481764

  @DF-RHF Final Energy:  -450.84431734331991

   => Energetics <=

    Nuclear Repulsion Energy =            277.9450009169088958
    One-Electron Energy =               -1177.9455249923389601
    Two-Electron Energy =                 449.1562067321099221
    DFT Exchange-Correlation Energy =       0.0000000000000000
    Empirical Dispersion Energy =           0.0000000000000000
    PCM Polarization Energy =               0.0000000000000000
    EFP Energy =                            0.0000000000000000
    Total Energy =                       -450.8443173433201991
    Molecular point group: c1
  Basis Set: CC-PVTZ
  Basis Set:

  -Total Gradient:
     Atom            X                  Y                   Z
    ------   -----------------  -----------------  -----------------
       1        0.000764653108    -0.000395692501     0.002776091748
       2       -0.001334641811     0.001007115121    -0.003154212092
       3        0.001822992055    -0.002520234013    -0.000702077717
       4       -0.000065763204    -0.000057214075     0.000098114581
       5       -0.001240388687     0.001901538946     0.001075875841
       6        0.000011560102     0.000003588118     0.000005671624
       7        0.000007117661    -0.000016126053    -0.000007802748
       8        0.000045483862     0.000044374778    -0.000012825485
       9       -0.000011013089     0.000032649682    -0.000078835755

  **** Optimization is complete! (in 5 steps) ****
    Final optimized geometry and variables:
    Molecular point group: c1

    Geometry (in Angstrom), charge = 0, multiplicity = 1:

    H           -1.848945066417    -0.956549408169    -0.094449971853
    O           -2.058711251949    -0.057698160303     0.087190028610
    C           -0.962914752540     0.774366431717    -0.095683201580
    C            0.355557731194     0.044118880848    -0.013203968758
    H           -1.005866836321     1.281855264723    -1.052229177930
    H           -0.962718371798     1.525168961021     0.682492645665
    F            0.414005354883    -0.940596609474    -0.892514589906
    F            1.351781940870     0.863274801543    -0.259753590166
    F            0.553596970873    -0.489246935689     1.172262900401

  Mulliken Charges: (a.u.)
   Center  Symbol    Alpha    Beta     Spin     Total
       1     H     0.38654  0.38654  0.00000  0.22692
       2     O     4.19513  4.19513  0.00000 -0.39026
       3     C     2.97194  2.97194  0.00000  0.05613
       4     C     2.68908  2.68908  0.00000  0.62183
       5     H     0.46499  0.46499  0.00000  0.07002
       6     H     0.45767  0.45767  0.00000  0.08466
       7     F     4.61675  4.61675  0.00000 -0.23351
       8     F     4.60792  4.60792  0.00000 -0.21585
       9     F     4.60997  4.60997  0.00000 -0.21994

   Total alpha = 25.00000, Total beta = 25.00000, Total charge = -0.00000
