  ==> Input File <==

--------------------------------------------------------------------------
set {
	reference rhf
	basis cc-pvtz
}

set_num_threads( 4 )
memory 2 gb

molecule MOL {
0 1

H	 2.705061	 -0.855994	 0.469216
N	 2.326826	 -0.066186	 0.000000
C	 0.934676	 -0.005420	 0.000000
H	 2.776134	 0.772288	 0.286541
C	 0.226436	 -0.001077	 -1.195129
C	 0.226436	 -0.001077	 1.195129
H	 0.759091	 -0.011439	 -2.128123
C	 -1.153391	 0.009141	 -1.189028
H	 0.759091	 -0.011439	 2.128123
C	 -1.153391	 0.009141	 1.189028
H	 -1.680905	 0.012964	 -2.124348
C	 -1.857876	 0.014675	 0.000000
H	 -1.680905	 0.012964	 2.124348
H	 -2.930222	 0.022904	 0.000000

	symmetry c1
}
set optking {
	frozen_dihedral = ("
		1 2 3 5
	")
}

ee = optimize('scf')
oeprop('DIPOLE', 'QUADRUPOLE', 'MULLIKEN_CHARGES')
f=open( 'psi4out.xyz', 'w' )
f.write( "14  " )
f.write( str(ee) + "\n" )
f.write( MOL.save_string_xyz() )
f.close()
--------------------------------------------------------------------------

    Molecular point group: c1
  Charge       = 0
  Multiplicity = 1
  Basis Set: CC-PVTZ
  Basis Set:
  @DF-RHF Final Energy:  -285.82517602149846
    Total Energy =                       -285.8251760214985779
    Molecular point group: c1
  Basis Set: CC-PVTZ
  Basis Set:
  Basis Set: CC-PVTZ
  Basis Set:
  @DF-RHF Final Energy:  -285.82668581416175
    Total Energy =                       -285.8266858141619196
  Basis Set: CC-PVTZ
  Basis Set:
  Basis Set: CC-PVTZ
  Basis Set:
  @DF-RHF Final Energy:  -285.82706870292918
    Total Energy =                       -285.8270687029294663
  Basis Set: CC-PVTZ
  Basis Set:
  Basis Set: CC-PVTZ
  Basis Set:
  @DF-RHF Final Energy:  -285.82710819375978
    Total Energy =                       -285.8271081937598979
  Basis Set: CC-PVTZ
  Basis Set:
  Basis Set: CC-PVTZ
  Basis Set:
  @DF-RHF Final Energy:  -285.82710997371981
    Total Energy =                       -285.8271099737198142
  Basis Set: CC-PVTZ
  Basis Set:
  Charge       = 0
  Multiplicity = 1
  Basis Set: CC-PVTZ
  Basis Set:

    Orbital Energies (a.u.)
    -----------------------

    Doubly Occupied:

       1A    -15.541905     2A    -11.259259     3A    -11.228600
       4A    -11.226943     5A    -11.224340     6A    -11.224139
       7A    -11.219707     8A     -1.209193     9A     -1.131784
      10A     -1.016046    11A     -0.990377    12A     -0.830641
      13A     -0.810813    14A     -0.705921    15A     -0.663108
      16A     -0.648900    17A     -0.631790    18A     -0.593953
      19A     -0.585893    20A     -0.508932    21A     -0.499176
      22A     -0.497395    23A     -0.411119    24A     -0.336386
      25A     -0.329968

  @DF-RHF Final Energy:  -285.82711014232802

   => Energetics <=

    Nuclear Repulsion Energy =            272.9240635694073944
    One-Electron Energy =                -926.8497744100958471
    Two-Electron Energy =                 368.0986006983603147
    DFT Exchange-Correlation Energy =       0.0000000000000000
    Empirical Dispersion Energy =           0.0000000000000000
    PCM Polarization Energy =               0.0000000000000000
    EFP Energy =                            0.0000000000000000
    Total Energy =                       -285.8271101423281380
    Molecular point group: c1
  Basis Set: CC-PVTZ
  Basis Set:

  -Total Gradient:
     Atom            X                  Y                   Z
    ------   -----------------  -----------------  -----------------
       1        0.000001255209     0.000000696527     0.000000151813
       2       -0.000017818394    -0.000003071035     0.000006620580
       3       -0.000009429545     0.000015703707    -0.000026978165
       4       -0.000000498562     0.000000158941    -0.000000112568
       5        0.000002816221    -0.000027700853    -0.000004509597
       6        0.000019990442     0.000005063884     0.000026236415
       7       -0.000005062671    -0.000000997800     0.000001472985
       8        0.000032684994     0.000040656386     0.000012354413
       9       -0.000007628279    -0.000005935872    -0.000010902984
      10        0.000007266278     0.000000002251    -0.000009811387
      11       -0.000002880351    -0.000004739599    -0.000007785274
      12       -0.000020418254    -0.000022843872     0.000004806864
      13       -0.000008791342     0.000004548728     0.000006900531
      14        0.000008514253    -0.000001541393     0.000001556373

  **** Optimization is complete! (in 6 steps) ****
    Final optimized geometry and variables:
    Molecular point group: c1

    Geometry (in Angstrom), charge = 0, multiplicity = 1:

    H            2.722193197482    -0.842037610736     0.403393066824
    N            2.355450051001    -0.034081764636    -0.053601339664
    C            0.925352889448    -0.013244792281    -0.003614247384
    H            2.745307561355     0.768314400384     0.393955318274
    C            0.222166856926    -0.010460321655    -1.194296072029
    C            0.222150429731     0.004081990699     1.191667287695
    H            0.770859380698    -0.023939212274    -2.115442113690
    C           -1.160971775277     0.009500919768    -1.193218409373
    H            0.760493924176     0.001943921840     2.121486396159
    C           -1.158990490662     0.023820928609     1.194234689086
    H           -1.693378522977     0.011430514884    -2.125357391648
    C           -1.855997744397     0.026522033668     0.000048929690
    H           -1.689897731416     0.037088104896     2.127193408302
    H           -2.929013564506     0.041842171966     0.001178547200

  Mulliken Charges: (a.u.)
   Center  Symbol    Alpha    Beta     Spin     Total
       1     H     0.42272  0.42272  0.00000  0.15455
       2     N     3.70089  3.70089  0.00000 -0.40178
       3     C     2.90899  2.90899  0.00000  0.18202
       4     H     0.42272  0.42272  0.00000  0.15456
       5     C     3.09418  3.09418  0.00000 -0.18837
       6     C     3.11442  3.11442  0.00000 -0.22884
       7     H     0.41653  0.41653  0.00000  0.16695
       8     C     3.06628  3.06628  0.00000 -0.13257
       9     H     0.42563  0.42563  0.00000  0.14873
      10     C     3.07325  3.07325  0.00000 -0.14651
      11     H     0.42305  0.42305  0.00000  0.15389
      12     C     3.08411  3.08411  0.00000 -0.16822
      13     H     0.42359  0.42359  0.00000  0.15283
      14     H     0.42363  0.42363  0.00000  0.15275

   Total alpha = 25.00000, Total beta = 25.00000, Total charge =  0.00000
