  ==> Input File <==

--------------------------------------------------------------------------
set {
	reference rhf
	basis 6-31G*
}

set_num_threads( 1 )
memory 2 gb

molecule MOL {
0 1

O	 0.625848	 1.349995	 -0.000749
C	 0.486307	 0.169203	 0.000779
C	 1.608116	 -0.841643	 0.000302
O	 -0.698257	 -0.426125	 0.001050
C	 2.990107	 -0.200498	 -0.000684
H	 1.468623	 -1.481519	 -0.865924
H	 1.469683	 -1.481289	 0.866878
H	 3.129736	 0.423364	 -0.875135
H	 3.757882	 -0.966877	 -0.001197
H	 3.130964	 0.423383	 0.873533
C	 -1.844554	 0.389669	 -0.217774
C	 -3.059200	 -0.513094	 -0.173431
H	 -1.748256	 0.883450	 -1.175109
H	 -1.885461	 1.152875	 0.547363
H	 -3.000434	 -1.275174	 -0.942158
H	 -3.959425	 0.070563	 -0.336489
H	 -3.138521	 -1.004286	 0.789738

	symmetry c1
}
set optking {
	frozen_dihedral = ("
		2 4 11 13,
		4 2 3 6
	")
}

ee = energy('scf')
oeprop('DIPOLE', 'QUADRUPOLE', 'MULLIKEN_CHARGES')
f=open( 'psi4out.xyz', 'w' )
f.write( "17  " )
f.write( str(ee) + "\n" )
f.write( MOL.save_string_xyz() )
f.close()
--------------------------------------------------------------------------

    Molecular point group: c1

    Geometry (in Angstrom), charge = 0, multiplicity = 1:

       Center              X                  Y                   Z               Mass
    ------------   -----------------  -----------------  -----------------  -----------------
           O          0.623595962017     1.354502958831     0.056194697326    15.994914619560
           C          0.484054962017     0.173710958831     0.057722697326    12.000000000000
           C          1.605863962017    -0.837135041169     0.057245697326    12.000000000000
           O         -0.700509037983    -0.421617041169     0.057993697326    15.994914619560
           C          2.987854962017    -0.195990041169     0.056259697326    12.000000000000
           H          1.466370962017    -1.477011041169    -0.808980302674     1.007825032070
           H          1.467430962017    -1.476781041169     0.923821697326     1.007825032070
           H          3.127483962017     0.427871958831    -0.818191302674     1.007825032070
           H          3.755629962017    -0.962369041169     0.055746697326     1.007825032070
           H          3.128711962017     0.427890958831     0.930476697326     1.007825032070
           C         -1.846806037983     0.394176958831    -0.160830302674    12.000000000000
           C         -3.061452037983    -0.508586041169    -0.116487302674    12.000000000000
           H         -1.750508037983     0.887957958831    -1.118165302674     1.007825032070
           H         -1.887713037983     1.157382958831     0.604306697326     1.007825032070
           H         -3.002686037983    -1.270666041169    -0.885214302674     1.007825032070
           H         -3.961677037983     0.075070958831    -0.279545302674     1.007825032070
           H         -3.140773037983    -0.999778041169     0.846681697326     1.007825032070

  Charge       = 0
  Multiplicity = 1
  Basis Set: 6-31G*
  Basis Set:

    Orbital Energies (a.u.)
    -----------------------

    Doubly Occupied:

       1A    -20.600297     2A    -20.544501     3A    -11.371341
       4A    -11.285044     5A    -11.237547     6A    -11.222418
       7A    -11.215758     8A     -1.467360     9A     -1.361937
      10A     -1.069912    11A     -1.031909    12A     -0.910623
      13A     -0.847657    14A     -0.772750    15A     -0.696086
      16A     -0.688935    17A     -0.664209    18A     -0.629955
      19A     -0.583451    20A     -0.571103    21A     -0.558469
      22A     -0.523506    23A     -0.518970    24A     -0.515043
      25A     -0.504570    26A     -0.492698    27A     -0.452473
      28A     -0.435817

  @DF-RHF Final Energy:  -344.91135973443573

   => Energetics <=

    Nuclear Repulsion Energy =            314.6834676681184533
    One-Electron Energy =               -1093.6410552500312861
    Two-Electron Energy =                 434.0462278474767572
    DFT Exchange-Correlation Energy =       0.0000000000000000
    Empirical Dispersion Energy =           0.0000000000000000
    PCM Polarization Energy =               0.0000000000000000
    EFP Energy =                            0.0000000000000000
    Total Energy =                       -344.9113597344360187

  Mulliken Charges: (a.u.)
   Center  Symbol    Alpha    Beta     Spin     Total
       1     O     4.28583  4.28583  0.00000 -0.57166
       2     C     2.60557  2.60557  0.00000  0.78886
       3     C     3.20511  3.20511  0.00000 -0.41023
       4     O     4.31339  4.31339  0.00000 -0.62677
       5     C     3.23882  3.23882  0.00000 -0.47763
       6     H     0.40129  0.40129  0.00000  0.19742
       7     H     0.40039  0.40039  0.00000  0.19923
       8     H     0.41016  0.41016  0.00000  0.17969
       9     H     0.41824  0.41824  0.00000  0.16352
      10     H     0.40981  0.40981  0.00000  0.18038
      11     C     3.00241  3.00241  0.00000 -0.00481
      12     C     3.24843  3.24843  0.00000 -0.49686
      13     H     0.41259  0.41259  0.00000  0.17481
      14     H     0.40804  0.40804  0.00000  0.18392
      15     H     0.41228  0.41228  0.00000  0.17545
      16     H     0.41632  0.41632  0.00000  0.16736
      17     H     0.41133  0.41133  0.00000  0.17734

   Total alpha = 28.00000, Total beta = 28.00000, Total charge = -0.00000
