  ==> Input File <==

--------------------------------------------------------------------------
set {
	reference rhf
	basis cc-pvtz
}

set_num_threads( 4 )
memory 2 gb

molecule MOL {
0 1

H	 -2.149496	 -2.244167	 0.000000
O	 -2.454378	 -1.354528	 0.000000
C	 -1.430628	 -0.482077	 0.000000
C	 -0.145388	 -1.004407	 -0.000000
C	 -1.618925	 0.883853	 0.000000
H	 -0.020093	 -2.068987	 -0.000000
C	 0.940080	 -0.158493	 -0.000000
H	 -2.607654	 1.301420	 0.000000
C	 -0.513176	 1.723466	 0.000000
H	 1.930356	 -0.570426	 -0.000000
C	 0.770197	 1.215140	 -0.000000
C	 -0.719407	 3.151324	 0.000000
H	 1.613123	 1.875784	 -0.000000
N	 -0.884285	 4.267343	 0.000000

	symmetry c1
}
set optking {
	frozen_dihedral = ("
		5 3 2 1
	")
}

ee = optimize('scf')
oeprop('DIPOLE', 'QUADRUPOLE', 'MULLIKEN_CHARGES')
f=open( 'psi4out.xyz', 'w' )
f.write( "14  " )
f.write( str(ee) + "\n" )
f.write( MOL.save_string_xyz() )
f.close()
--------------------------------------------------------------------------

    Molecular point group: c1
  Charge       = 0
  Multiplicity = 1
  Basis Set: CC-PVTZ
  Basis Set:
  @DF-RHF Final Energy:  -397.43033688118123
    Total Energy =                       -397.4303368811815744
    Molecular point group: c1
  Basis Set: CC-PVTZ
  Basis Set:
  Basis Set: CC-PVTZ
  Basis Set:
  @DF-RHF Final Energy:  -397.43245098873888
    Total Energy =                       -397.4324509887388786
  Basis Set: CC-PVTZ
  Basis Set:
  Basis Set: CC-PVTZ
  Basis Set:
  @DF-RHF Final Energy:  -397.43263361990381
    Total Energy =                       -397.4326336199045500
  Basis Set: CC-PVTZ
  Basis Set:
  Basis Set: CC-PVTZ
  Basis Set:
  @DF-RHF Final Energy:  -397.43257630871159
    Total Energy =                       -397.4325763087115320
  Basis Set: CC-PVTZ
  Basis Set:
  @DF-RHF Final Energy:  -397.43189652743683
    Total Energy =                       -397.4318965274368338
  @DF-RHF Final Energy:  -397.43259889722168
    Total Energy =                       -397.4325988972216237
  @DF-RHF Final Energy:  -397.43266808130238
    Total Energy =                       -397.4326680813022676
  @DF-RHF Final Energy:  -397.43263989072932
    Total Energy =                       -397.4326398907290923
  @DF-RHF Final Energy:  -397.43266548464521
    Total Energy =                       -397.4326654846450992
  @DF-RHF Final Energy:  -397.43259351993788
    Total Energy =                       -397.4325935199378819
  @DF-RHF Final Energy:  -397.43264922268247
    Total Energy =                       -397.4326492226825849
  @DF-RHF Final Energy:  -397.43264796400337
    Total Energy =                       -397.4326479640038770
  @DF-RHF Final Energy:  -397.43265819988966
    Total Energy =                       -397.4326581998900565
  @DF-RHF Final Energy:  -397.43266741062337
    Total Energy =                       -397.4326674106233668
  @DF-RHF Final Energy:  -397.43260717766776
    Total Energy =                       -397.4326071776677054
  @DF-RHF Final Energy:  -397.43266541739354
    Total Energy =                       -397.4326654173937641
  @DF-RHF Final Energy:  -397.43266946407033
    Total Energy =                       -397.4326694640699316
  @DF-RHF Final Energy:  -397.43266822400983
    Total Energy =                       -397.4326682240096034
  @DF-RHF Final Energy:  -397.43266701236524
    Total Energy =                       -397.4326670123650729
  @DF-RHF Final Energy:  -397.43263088269282
    Total Energy =                       -397.4326308826930472
  @DF-RHF Final Energy:  -397.43266858701827
    Total Energy =                       -397.4326685870181564
  @DF-RHF Final Energy:  -397.43266612435480
    Total Energy =                       -397.4326661243547960
  @DF-RHF Final Energy:  -397.43266275619857
    Total Energy =                       -397.4326627561989653
  @DF-RHF Final Energy:  -397.43265426680136
    Total Energy =                       -397.4326542668013644
  @DF-RHF Final Energy:  -397.43266077918236
    Total Energy =                       -397.4326607791826973
  @DF-RHF Final Energy:  -397.43266624277823
    Total Energy =                       -397.4326662427781685
  @DF-RHF Final Energy:  -397.43266682515360
    Total Energy =                       -397.4326668251537740
  @DF-RHF Final Energy:  -397.43259297525532
    Total Energy =                       -397.4325929752551474
  @DF-RHF Final Energy:  -397.43244601121415
    Total Energy =                       -397.4324460112136421
  @DF-RHF Final Energy:  -397.43262796788673
    Total Energy =                       -397.4326279678872424
  @DF-RHF Final Energy:  -397.43266789536665
    Total Energy =                       -397.4326678953665350
  @DF-RHF Final Energy:  -397.43263141148896
    Total Energy =                       -397.4326314114896377
  @DF-RHF Final Energy:  -397.43266682543731
    Total Energy =                       -397.4326668254375363
  @DF-RHF Final Energy:  -397.43265956733705
    Total Energy =                       -397.4326595673373959
  @DF-RHF Final Energy:  -397.43266966823023
    Total Energy =                       -397.4326696682301190
  @DF-RHF Final Energy:  -397.43266671199950
    Total Energy =                       -397.4326667119992180
  Basis Set: CC-PVTZ
  Basis Set:
  @DF-RHF Final Energy:  -397.43266124773106
    Total Energy =                       -397.4326612477310618
  Basis Set: CC-PVTZ
  Basis Set:
  Basis Set: CC-PVTZ
  Basis Set:
  @DF-RHF Final Energy:  -397.43266269701201
    Total Energy =                       -397.4326626970117786
  Basis Set: CC-PVTZ
  Basis Set:
  Basis Set: CC-PVTZ
  Basis Set:
  @DF-RHF Final Energy:  -397.43266650363296
    Total Energy =                       -397.4326665036334134
  Basis Set: CC-PVTZ
  Basis Set:
  Charge       = 0
  Multiplicity = 1
  Basis Set: CC-PVTZ
  Basis Set:

    Orbital Energies (a.u.)
    -----------------------

    Doubly Occupied:

       1A    -20.607190     2A    -15.563706     3A    -11.325160
       4A    -11.291627     5A    -11.266960     6A    -11.262038
       7A    -11.256740     8A    -11.256474     9A    -11.254819
      10A     -1.439869    11A     -1.236389    12A     -1.186639
      13A     -1.066387    14A     -1.043449    15A     -0.903135
      16A     -0.861643    17A     -0.799584    18A     -0.718196
      19A     -0.695901    20A     -0.675463    21A     -0.631084
      22A     -0.621113    23A     -0.600285    24A     -0.567726
      25A     -0.551193    26A     -0.543708    27A     -0.529102
      28A     -0.479642    29A     -0.477491    30A     -0.367550
      31A     -0.341607

  @DF-RHF Final Energy:  -397.43266659431879

   => Energetics <=

    Nuclear Repulsion Energy =            380.5241685352291370
    One-Electron Energy =               -1293.0699411369923837
    Two-Electron Energy =                 515.1131060074444576
    DFT Exchange-Correlation Energy =       0.0000000000000000
    Empirical Dispersion Energy =           0.0000000000000000
    PCM Polarization Energy =               0.0000000000000000
    EFP Energy =                            0.0000000000000000
    Total Energy =                       -397.4326665943187891
    Molecular point group: c1
  Basis Set: CC-PVTZ
  Basis Set:

  -Total Gradient:
     Atom            X                  Y                   Z
    ------   -----------------  -----------------  -----------------
       1        0.000014833330     0.000047577111     0.000001724482
       2        0.000034696302    -0.000300554735    -0.000018933373
       3        0.000251253378     0.000335379048     0.000025091587
       4       -0.000416989078    -0.000330798060     0.000017172907
       5       -0.000355345651    -0.000722219056    -0.000058067188
       6        0.000200747873     0.000017482749    -0.000004262874
       7        0.000195610180     0.000497268594    -0.000008565091
       8        0.000113365699     0.000187026956    -0.000016421822
       9        0.000353318638     0.001184190240     0.000221792916
      10       -0.000154255599    -0.000166768607     0.000003640091
      11       -0.000277114343    -0.000506565360    -0.000075650665
      12       -0.000777237110    -0.000897465992    -0.000117830683
      13       -0.000023653211     0.000229357476    -0.000010685867
      14        0.000840769590     0.000426089640     0.000040995581

    Molecular point group: c1

    Geometry (in Angstrom), charge = 0, multiplicity = 1:

    H           -3.044953865170     1.543587935112     0.001241814439
    O           -2.134161945009     1.777276815405     0.000246659972
    C           -1.347467469824     0.686773614645     0.000337619738
    C           -1.853563378811    -0.600287714761     0.001325506499
    C            0.020469750158     0.891456538805    -0.001057140686
    H           -2.916114198053    -0.758949342784     0.002326810224
    C           -0.992592546110    -1.681678385450     0.000478841222
    H            0.405974177484     1.890952946984    -0.002168531549
    C            0.867182189981    -0.199886654642    -0.001050776752
    H           -1.395861644886    -2.675744873827     0.000888318184
    C            0.372126916599    -1.495950022089    -0.000972375744
    C            2.294306650051     0.014515818638    -0.003317384021
    H            1.044220415295    -2.329540339872    -0.001871424004
    N            3.410904508606     0.181475463299     0.003335193509

  Mulliken Charges: (a.u.)
   Center  Symbol    Alpha    Beta     Spin     Total
       1     H     0.38572  0.38572  0.00000  0.22856
       2     O     4.16824  4.16824  0.00000 -0.33648
       3     C     2.83978  2.83978  0.00000  0.32044
       4     C     3.13161  3.13161  0.00000 -0.26322
       5     C     3.12227  3.12227  0.00000 -0.24455
       6     H     0.42951  0.42951  0.00000  0.14099
       7     C     3.05623  3.05623  0.00000 -0.11247
       8     H     0.40987  0.40987  0.00000  0.18027
       9     C     2.92033  2.92033  0.00000  0.15935
      10     H     0.41681  0.41681  0.00000  0.16638
      11     C     3.10660  3.10660  0.00000 -0.21319
      12     C     3.02414  3.02414  0.00000 -0.04829
      13     H     0.41456  0.41456  0.00000  0.17088
      14     N     3.57432  3.57432  0.00000 -0.14864

   Total alpha = 31.00000, Total beta = 31.00000, Total charge =  0.00000
