  ==> Input File <==

--------------------------------------------------------------------------
set {
	reference rhf
	basis 6-31G*
}

set_num_threads( 4 )
memory 2 gb

molecule MOL {
0 1

O	 3.594395	 0.154676	 -0.926915
C	 2.843464	 0.164689	 -0.000222
C	 1.546494	 -0.624492	 -0.000609
C	 3.139491	 0.972896	 1.246504
C	 0.291004	 0.242674	 0.000989
H	 1.557904	 -1.283758	 -0.867573
H	 1.558622	 -1.285963	 0.864672
C	 -0.994322	 -0.586602	 0.000262
H	 0.309117	 0.896430	 -0.865270
H	 0.309661	 0.894078	 0.869017
C	 -2.259874	 0.272531	 0.000494
H	 -1.004862	 -1.240012	 -0.870939
H	 -1.005220	 -1.241071	 0.870675
C	 -3.549786	 -0.549746	 -0.000374
H	 -2.250389	 0.926680	 -0.869574
H	 -2.250838	 0.925513	 0.871430
C	 -4.809590	 0.315458	 -0.000369
H	 -3.560515	 -1.202009	 -0.871156
H	 -3.561123	 -1.202955	 0.869711
H	 -4.844746	 0.956611	 -0.876632
H	 -5.706986	 -0.295590	 -0.001609
H	 -4.845960	 0.954827	 0.877144
H	 3.182768	 0.324759	 2.116943
H	 4.083507	 1.487292	 1.132199
H	 2.350680	 1.698143	 1.423784

	symmetry c1
}
set optking {
	frozen_dihedral = ("
		1 2 3 6
	")
}

ee = optimize('scf')
oeprop('DIPOLE', 'QUADRUPOLE', 'MULLIKEN_CHARGES')
f=open( 'psi4out.xyz', 'w' )
f.write( "25  " )
f.write( str(ee) + "\n" )
f.write( MOL.save_string_xyz() )
f.close()
--------------------------------------------------------------------------

    Molecular point group: c1
  Charge       = 0
  Multiplicity = 1
  Basis Set: 6-31G*
  Basis Set:
  @DF-RHF Final Energy:  -387.13338737785028
    Total Energy =                       -387.1333873778512498
    Molecular point group: c1
  Basis Set: 6-31G*
  Basis Set:
  Basis Set: 6-31G*
  Basis Set:
  @DF-RHF Final Energy:  -387.13314364031652
    Total Energy =                       -387.1331436403169164
  Basis Set: 6-31G*
  Basis Set:
  Basis Set: 6-31G*
  Basis Set:
  @DF-RHF Final Energy:  -387.13278003147190
    Total Energy =                       -387.1327800314717251
  Basis Set: 6-31G*
  Basis Set:
  Basis Set: 6-31G*
  Basis Set:
  @DF-RHF Final Energy:  -387.13404833875512
    Total Energy =                       -387.1340483387550648
  Basis Set: 6-31G*
  Basis Set:
  @DF-RHF Final Energy:  -387.13406431326752
    Total Energy =                       -387.1340643132680270
  @DF-RHF Final Energy:  -387.13407590891370
    Total Energy =                       -387.1340759089137009
  @DF-RHF Final Energy:  -387.13408202064045
    Total Energy =                       -387.1340820206412445
  Basis Set: 6-31G*
  Basis Set:
  @DF-RHF Final Energy:  -387.13408842912952
    Total Energy =                       -387.1340884291298607
  Basis Set: 6-31G*
  Basis Set:
  Basis Set: 6-31G*
  Basis Set:
  @DF-RHF Final Energy:  -387.13409221765778
    Total Energy =                       -387.1340922176583490
  Basis Set: 6-31G*
  Basis Set:
  Basis Set: 6-31G*
  Basis Set:
  @DF-RHF Final Energy:  -387.13409398156949
    Total Energy =                       -387.1340939815702313
  Basis Set: 6-31G*
  Basis Set:
  Charge       = 0
  Multiplicity = 1
  Basis Set: 6-31G*
  Basis Set:

    Orbital Energies (a.u.)
    -----------------------

    Doubly Occupied:

       1A    -20.547835     2A    -11.324023     3A    -11.232729
       4A    -11.229217     5A    -11.227140     6A    -11.223888
       7A    -11.220139     8A    -11.219506     9A    -11.212095
      10A     -1.392926    11A     -1.100990    12A     -1.060620
      13A     -1.011276    14A     -0.970767    15A     -0.896468
      16A     -0.820451    17A     -0.797106    18A     -0.732397
      19A     -0.668867    20A     -0.647079    21A     -0.638168
      22A     -0.613138    23A     -0.604798    24A     -0.588229
      25A     -0.565452    26A     -0.559448    27A     -0.544061
      28A     -0.536842    29A     -0.510431    30A     -0.501610
      31A     -0.487265    32A     -0.480761    33A     -0.469227
      34A     -0.468478    35A     -0.455488    36A     -0.395860

  @DF-RHF Final Energy:  -387.13409458226647

   => Energetics <=

    Nuclear Repulsion Energy =            438.8818020863384390
    One-Electron Energy =               -1394.1222414647684218
    Two-Electron Energy =                 568.1063447961641941
    DFT Exchange-Correlation Energy =       0.0000000000000000
    Empirical Dispersion Energy =           0.0000000000000000
    PCM Polarization Energy =               0.0000000000000000
    EFP Energy =                            0.0000000000000000
    Total Energy =                       -387.1340945822657886
    Molecular point group: c1
  Basis Set: 6-31G*
  Basis Set:

  -Total Gradient:
     Atom            X                  Y                   Z
    ------   -----------------  -----------------  -----------------
       1        0.000004121052    -0.000005606554    -0.000012306122
       2        0.000036239764     0.000001586449     0.000005046435
       3       -0.000005154819     0.000025284947     0.000031862911
       4        0.000005264980    -0.000013226714     0.000008766823
       5       -0.000000206667    -0.000004570846    -0.000024460363
       6       -0.000016133771     0.000019798325     0.000006359124
       7       -0.000007564812    -0.000001843723    -0.000007096359
       8       -0.000017462231    -0.000009758972     0.000007298394
       9        0.000009868391     0.000001664736     0.000007338407
      10        0.000022958852    -0.000014317106    -0.000008851438
      11       -0.000002750749    -0.000004639151     0.000020743563
      12       -0.000011284720    -0.000000323065    -0.000000989062
      13       -0.000003568902    -0.000002121640     0.000002942684
      14        0.000001816252    -0.000003009428    -0.000031017297
      15        0.000006528482    -0.000011316567     0.000000189641
      16        0.000000002602     0.000010493741     0.000001713866
      17        0.000003624466     0.000001405446     0.000016771885
      18       -0.000004007635    -0.000002250122    -0.000008195361
      19        0.000002520088     0.000001128470    -0.000006786704
      20       -0.000000658486    -0.000006503247    -0.000002533206
      21        0.000001630449    -0.000001730986     0.000006956068
      22        0.000000449140     0.000007439996    -0.000001817980
      23       -0.000006551491     0.000007450698    -0.000009963299
      24       -0.000006426458    -0.000002355579    -0.000009365400
      25       -0.000013253781     0.000007320890     0.000007392793

  **** Optimization is complete! (in 11 steps) ****
    Final optimized geometry and variables:
    Molecular point group: c1

    Geometry (in Angstrom), charge = 0, multiplicity = 1:

    O            3.566089698792     0.104493037830    -1.008688363163
    C            2.867872951707     0.115707591375    -0.040829459959
    C            1.581298268831    -0.688426754817     0.009925501975
    C            3.229864163403     0.945844511400     1.174269561900
    C            0.321184887590     0.190833105242     0.021300255597
    H            1.576144947016    -1.335600524358    -0.858746865477
    H            1.590325323768    -1.317140007617     0.897853476647
    C           -0.964890489774    -0.636323752678    -0.026995825108
    H            0.349605361405     0.865082830607    -0.831560033779
    H            0.310754376508     0.814409151190     0.911675033686
    C           -2.230845486689     0.222061334281    -0.015305407489
    H           -0.957687824274    -1.256849245834    -0.920626691579
    H           -0.984241933120    -1.319842488739     0.820071203171
    C           -3.518779894066    -0.601760482918    -0.068738053211
    H           -2.208455051248     0.907857324766    -0.860423619874
    H           -2.238558830235     0.841833398900     0.879906812686
    C           -4.779985589047     0.261165402583    -0.054626754580
    H           -3.513998449268    -1.219031924643    -0.964458881102
    H           -3.542089256637    -1.288466024381     0.774767859652
    H           -4.803790173104     0.934626294441    -0.906653711563
    H           -5.675615328653    -0.351048256345    -0.092195946813
    H           -4.830919202245     0.866759143853     0.845867907321
    H            3.136030754657     0.366610860573     2.087390836136
    H            4.242834783684     1.309646910537     1.072055350148
    H            2.559036613097     1.795774448996     1.258773879887

  Mulliken Charges: (a.u.)
   Center  Symbol    Alpha    Beta     Spin     Total
       1     O     4.26025  4.26025  0.00000 -0.52049
       2     C     2.73549  2.73549  0.00000  0.52903
       3     C     3.20293  3.20293  0.00000 -0.40587
       4     C     3.28992  3.28992  0.00000 -0.57984
       5     C     3.16485  3.16485  0.00000 -0.32970
       6     H     0.39954  0.39954  0.00000  0.20092
       7     H     0.41441  0.41441  0.00000  0.17117
       8     C     3.15187  3.15187  0.00000 -0.30373
       9     H     0.41230  0.41230  0.00000  0.17541
      10     H     0.41940  0.41940  0.00000  0.16121
      11     C     3.15159  3.15159  0.00000 -0.30319
      12     H     0.41909  0.41909  0.00000  0.16182
      13     H     0.42237  0.42237  0.00000  0.15525
      14     C     3.15200  3.15200  0.00000 -0.30399
      15     H     0.42201  0.42201  0.00000  0.15597
      16     H     0.42386  0.42386  0.00000  0.15227
      17     C     3.23959  3.23959  0.00000 -0.47919
      18     H     0.42183  0.42183  0.00000  0.15634
      19     H     0.42279  0.42279  0.00000  0.15441
      20     H     0.42103  0.42103  0.00000  0.15793
      21     H     0.41844  0.41844  0.00000  0.16312
      22     H     0.42170  0.42170  0.00000  0.15660
      23     H     0.41138  0.41138  0.00000  0.17725
      24     H     0.39628  0.39628  0.00000  0.20744
      25     H     0.40508  0.40508  0.00000  0.18985

   Total alpha = 36.00000, Total beta = 36.00000, Total charge =  0.00000
