  ==> Input File <==

--------------------------------------------------------------------------
set {
	reference rhf
	basis 6-31G*
}

set_num_threads( 1 )
memory 2 gb

molecule MOL {
0 1

H	 -2.646374	 -0.642757	 1.268656
C	 -2.083525	 -0.384536	 0.393091
O	 -0.807605	 -0.127164	 0.768327
F	 -2.118945	 -1.383102	 -0.486752
F	 -2.621877	 0.670592	 -0.209486
C	 0.135928	 -1.118349	 0.568365
C	 0.940099	 -1.233268	 1.856876
Cl	 1.194364	 -0.716785	 -0.793867
H	 -0.312080	 -2.074792	 0.362749
F	 1.855096	 -2.172665	 1.745280
F	 0.125435	 -1.569868	 2.836907
F	 1.528711	 -0.106160	 2.174899

	symmetry c1
}
set optking {
	frozen_dihedral = ("
		10 7 6 9,
		9 6 3 2
	")
}

ee = energy('scf')
oeprop('DIPOLE', 'QUADRUPOLE', 'MULLIKEN_CHARGES')
f=open( 'psi4out.xyz', 'w' )
f.write( "12  " )
f.write( str(ee) + "\n" )
f.write( MOL.save_string_xyz() )
f.close()
--------------------------------------------------------------------------

    Molecular point group: c1

    Geometry (in Angstrom), charge = 0, multiplicity = 1:

       Center              X                  Y                   Z               Mass
    ------------   -----------------  -----------------  -----------------  -----------------
           H         -2.594074208047     0.168930702007     0.534089263131     1.007825032070
           C         -2.031225208047     0.427151702007    -0.341475736869    12.000000000000
           O         -0.755305208047     0.684523702007     0.033760263131    15.994914619560
           F         -2.066645208047    -0.571414297993    -1.221318736869    18.998403224000
           F         -2.569577208047     1.482279702007    -0.944052736869    18.998403224000
           C          0.188227791953    -0.306661297993    -0.166201736869    12.000000000000
           C          0.992398791953    -0.421580297993     1.122309263131    12.000000000000
          CL          1.246663791953     0.094902702007    -1.528433736869    34.968852682000
           H         -0.259780208047    -1.263104297993    -0.371817736869     1.007825032070
           F          1.907395791953    -1.360977297993     1.010713263131    18.998403224000
           F          0.177734791953    -0.758180297993     2.102340263131    18.998403224000
           F          1.581010791953     0.705527702007     1.440332263131    18.998403224000

  Charge       = 0
  Multiplicity = 1
  Basis Set: 6-31G*
  Basis Set:

    Orbital Energies (a.u.)
    -----------------------

    Doubly Occupied:

       1A   -104.844022     2A    -26.364797     3A    -26.362795
       4A    -26.359160     5A    -26.354992     6A    -26.342775
       7A    -20.648236     8A    -11.529971     9A    -11.491515
      10A    -11.402634    11A    -10.578767    12A     -8.048120
      13A     -8.044582    14A     -8.044476    15A     -1.764507
      16A     -1.719514    17A     -1.661401    18A     -1.659410
      19A     -1.639953    20A     -1.487280    21A     -1.180396
      22A     -1.052197    23A     -0.987398    24A     -0.924240
      25A     -0.861427    26A     -0.851848    27A     -0.846145
      28A     -0.832332    29A     -0.822670    30A     -0.790272
      31A     -0.731233    32A     -0.728855    33A     -0.700259
      34A     -0.697632    35A     -0.682836    36A     -0.677913
      37A     -0.661514    38A     -0.661406    39A     -0.645977
      40A     -0.633425    41A     -0.613195    42A     -0.580495
      43A     -0.514046    44A     -0.475930    45A     -0.469366

  @DF-RHF Final Energy: -1146.30602213346606

   => Energetics <=

    Nuclear Repulsion Energy =            732.1525875887966777
    One-Electron Energy =               -3046.9731798966549832
    Two-Electron Energy =                1168.5145701743940663
    DFT Exchange-Correlation Energy =       0.0000000000000000
    Empirical Dispersion Energy =           0.0000000000000000
    PCM Polarization Energy =               0.0000000000000000
    EFP Energy =                            0.0000000000000000
    Total Energy =                      -1146.3060221334644666

  Mulliken Charges: (a.u.)
   Center  Symbol    Alpha    Beta     Spin     Total
       1     H     0.41285  0.41285  0.00000  0.17431
       2     C     2.56357  2.56357  0.00000  0.87286
       3     O     4.30339  4.30339  0.00000 -0.60677
       4     F     4.68390  4.68390  0.00000 -0.36779
       5     F     4.67412  4.67412  0.00000 -0.34823
       6     C     3.04538  3.04538  0.00000 -0.09076
       7     C     2.43234  2.43234  0.00000  1.13533
       8    CL     8.49914  8.49914  0.00000  0.00173
       9     H     0.36489  0.36489  0.00000  0.27021
      10     F     4.67382  4.67382  0.00000 -0.34764
      11     F     4.67876  4.67876  0.00000 -0.35753
      12     F     4.66785  4.66785  0.00000 -0.33570

   Total alpha = 45.00000, Total beta = 45.00000, Total charge = -0.00000
