  ==> Input File <==

--------------------------------------------------------------------------
set {
	reference rhf
	basis 6-31G*
}

set_num_threads( 1 )
memory 2 gb

molecule MOL {
0 1

H	 0.951936	 0.089842	 -1.865366
O	 1.198033	 0.831406	 -1.329295
C	 0.709265	 0.639550	 -0.033818
C	 -0.793441	 0.596080	 0.058728
H	 1.086731	 1.466170	 0.557301
H	 1.120478	 -0.269284	 0.404303
C	 -1.530462	 -0.493172	 -0.025500
H	 -1.268471	 1.554324	 0.202247
H	 -1.092586	 -1.461565	 -0.186463
H	 -2.602122	 -0.450675	 0.050101

	symmetry c1
}
set optking {
	frozen_dihedral = ("
		5 3 2 1,
		3 4 7 9
	")
}

ee = energy('scf')
oeprop('DIPOLE', 'QUADRUPOLE', 'MULLIKEN_CHARGES')
f=open( 'psi4out.xyz', 'w' )
f.write( "10  " )
f.write( str(ee) + "\n" )
f.write( MOL.save_string_xyz() )
f.close()
--------------------------------------------------------------------------

    Molecular point group: c1

    Geometry (in Angstrom), charge = 0, multiplicity = 1:

       Center              X                  Y                   Z               Mass
    ------------   -----------------  -----------------  -----------------  -----------------
           H          0.986934377190    -0.308901976315    -1.484374219063     1.007825032070
           O          1.233031377190     0.432662023685    -0.948303219063    15.994914619560
           C          0.744263377190     0.240806023685     0.347173780937    12.000000000000
           C         -0.758442622810     0.197336023685     0.439719780937    12.000000000000
           H          1.121729377190     1.067426023685     0.938292780937     1.007825032070
           H          1.155476377190    -0.668027976315     0.785294780937     1.007825032070
           C         -1.495463622810    -0.891915976315     0.355491780937    12.000000000000
           H         -1.233472622810     1.155580023685     0.583238780937     1.007825032070
           H         -1.057587622810    -1.860308976315     0.194528780937     1.007825032070
           H         -2.567123622810    -0.849418976315     0.431092780937     1.007825032070

  Charge       = 0
  Multiplicity = 1
  Basis Set: 6-31G*
  Basis Set:

    Orbital Energies (a.u.)
    -----------------------

    Doubly Occupied:

       1A    -20.556811     2A    -11.275324     3A    -11.232107
       4A    -11.229011     5A     -1.365478     6A     -1.063741
       7A     -0.924327     8A     -0.772630     9A     -0.703146
      10A     -0.633699    11A     -0.621150    12A     -0.591614
      13A     -0.530794    14A     -0.490379    15A     -0.436851
      16A     -0.376671

  @DF-RHF Final Energy:  -191.91398379550597

   => Energetics <=

    Nuclear Repulsion Energy =            117.8808509309788803
    One-Electron Energy =                -493.9821251581409456
    Two-Electron Energy =                 184.1872904316563222
    DFT Exchange-Correlation Energy =       0.0000000000000000
    Empirical Dispersion Energy =           0.0000000000000000
    PCM Polarization Energy =               0.0000000000000000
    EFP Energy =                            0.0000000000000000
    Total Energy =                       -191.9139837955057715

  Mulliken Charges: (a.u.)
   Center  Symbol    Alpha    Beta     Spin     Total
       1     H     0.28247  0.28247  0.00000  0.43506
       2     O     4.36293  4.36293  0.00000 -0.72587
       3     C     3.00976  3.00976  0.00000 -0.01952
       4     C     3.08330  3.08330  0.00000 -0.16659
       5     H     0.41290  0.41290  0.00000  0.17421
       6     H     0.42638  0.42638  0.00000  0.14724
       7     C     3.19518  3.19518  0.00000 -0.39036
       8     H     0.40586  0.40586  0.00000  0.18829
       9     H     0.41388  0.41388  0.00000  0.17223
      10     H     0.40734  0.40734  0.00000  0.18531

   Total alpha = 16.00000, Total beta = 16.00000, Total charge =  0.00000
