  ==> Input File <==

--------------------------------------------------------------------------
set {
	reference rhf
	basis 6-31G*
}

set_num_threads( 4 )
memory 2 gb

molecule MOL {
0 1

O	 -2.821601	 1.309235	 -0.001213
C	 -2.668563	 0.129746	 -0.000350
C	 -3.801572	 -0.864014	 -0.000442
O	 -1.481751	 -0.454642	 0.000584
H	 -4.417280	 -0.689587	 -0.874708
H	 -3.443784	 -1.883046	 -0.000565
H	 -4.417179	 -0.689832	 0.873954
C	 -0.334255	 0.388708	 0.000906
C	 0.891947	 -0.504646	 0.000751
H	 -0.365390	 1.025305	 -0.873475
H	 -0.365484	 1.024911	 0.875569
C	 1.663791	 -0.422991	 -1.317604
H	 0.580307	 -1.528709	 0.186802
H	 1.535774	 -0.217416	 0.827460
C	 2.904470	 -1.317763	 -1.338180
H	 1.008181	 -0.701450	 -2.140843
H	 1.962837	 0.607581	 -1.500841
C	 3.674607	 -1.237186	 -2.655474
H	 2.607404	 -2.348048	 -1.155585
H	 3.561820	 -1.039341	 -0.517545
H	 3.053134	 -1.542464	 -3.492488
H	 4.547715	 -1.881907	 -2.639608
H	 4.015009	 -0.224025	 -2.849487

	symmetry c1
}
set optking {
	frozen_dihedral = ("
		13 9 8 10
	")
}

ee = optimize('scf')
oeprop('DIPOLE', 'QUADRUPOLE', 'MULLIKEN_CHARGES')
f=open( 'psi4out.xyz', 'w' )
f.write( "23  " )
f.write( str(ee) + "\n" )
f.write( MOL.save_string_xyz() )
f.close()
--------------------------------------------------------------------------

    Molecular point group: c1
  Charge       = 0
  Multiplicity = 1
  Basis Set: 6-31G*
  Basis Set:
  @DF-RHF Final Energy:  -422.97369731047667
    Total Energy =                       -422.9736973104770641
    Molecular point group: c1
  Basis Set: 6-31G*
  Basis Set:
  Basis Set: 6-31G*
  Basis Set:
  @DF-RHF Final Energy:  -422.97402084361909
    Total Energy =                       -422.9740208436197690
  Basis Set: 6-31G*
  Basis Set:
  Basis Set: 6-31G*
  Basis Set:
  @DF-RHF Final Energy:  -422.97413425885168
    Total Energy =                       -422.9741342588514499
  Basis Set: 6-31G*
  Basis Set:
  Basis Set: 6-31G*
  Basis Set:
  @DF-RHF Final Energy:  -422.97380156881235
    Total Energy =                       -422.9738015688124051
  Basis Set: 6-31G*
  Basis Set:
  Basis Set: 6-31G*
  Basis Set:
  @DF-RHF Final Energy:  -422.97415907194278
    Total Energy =                       -422.9741590719422675
  Basis Set: 6-31G*
  Basis Set:
  Charge       = 0
  Multiplicity = 1
  Basis Set: 6-31G*
  Basis Set:

    Orbital Energies (a.u.)
    -----------------------

    Doubly Occupied:

       1A    -20.602565     2A    -20.540211     3A    -11.373579
       4A    -11.282037     5A    -11.232323     6A    -11.224255
       7A    -11.221749     8A    -11.220317     9A    -11.212329
      10A     -1.467185    11A     -1.359997    12A     -1.091602
      13A     -1.040721    14A     -1.002231    15A     -0.930538
      16A     -0.842562    17A     -0.799902    18A     -0.779618
      19A     -0.687688    20A     -0.681146    21A     -0.666300
      22A     -0.645031    23A     -0.607658    24A     -0.582797
      25A     -0.579875    26A     -0.572992    27A     -0.558364
      28A     -0.534036    29A     -0.526270    30A     -0.500982
      31A     -0.500678    32A     -0.473863    33A     -0.470856
      34A     -0.464324    35A     -0.444851    36A     -0.435302

  @DF-RHF Final Energy:  -422.97415829496845

   => Energetics <=

    Nuclear Repulsion Energy =            452.7063480632672281
    One-Electron Energy =               -1473.0475405129341198
    Two-Electron Energy =                 597.3670341546983309
    DFT Exchange-Correlation Energy =       0.0000000000000000
    Empirical Dispersion Energy =           0.0000000000000000
    PCM Polarization Energy =               0.0000000000000000
    EFP Energy =                            0.0000000000000000
    Total Energy =                       -422.9741582949685608
    Molecular point group: c1
  Basis Set: 6-31G*
  Basis Set:

  -Total Gradient:
     Atom            X                  Y                   Z
    ------   -----------------  -----------------  -----------------
       1        0.000035942907    -0.000047913199    -0.000048810867
       2       -0.000069624641     0.000068696320     0.000013552682
       3        0.000010315457    -0.000009515502     0.000027923078
       4        0.000171866945     0.000003941004    -0.000084859148
       5        0.000005788035    -0.000001231469    -0.000001540745
       6        0.000001121660     0.000005638667    -0.000001996934
       7       -0.000011773793    -0.000001135868    -0.000002342455
       8        0.001273276103     0.002036627314     0.001365638713
       9        0.000057296371    -0.000104620921     0.002449453563
      10       -0.001249781317    -0.001715129346    -0.001325180635
      11        0.000110698792    -0.000013235736    -0.000075863375
      12        0.000038861529     0.000055459636     0.000017341369
      13       -0.000308135664    -0.000364431410    -0.002341873223
      14       -0.000045715455     0.000059669215    -0.000006818112
      15       -0.000052586951    -0.000004255537     0.000021692477
      16        0.000002556164     0.000045175387    -0.000008910170
      17        0.000043886517     0.000011978961     0.000009569621
      18       -0.000028556942    -0.000019802229    -0.000015424344
      19        0.000011971429    -0.000008168396     0.000025281061
      20        0.000006230826     0.000012388243    -0.000015175680
      21        0.000004359619     0.000001884662    -0.000007892697
      22       -0.000001325475    -0.000005722895    -0.000004645546
      23       -0.000006672101    -0.000006296902     0.000010881363

  **** Optimization is complete! (in 6 steps) ****
    Final optimized geometry and variables:
    Molecular point group: c1

    Geometry (in Angstrom), charge = 0, multiplicity = 1:

    O           -2.597573602966     1.626753400044     0.580963481826
    C           -2.432609881404     0.448585488204     0.583909850774
    C           -3.556437868195    -0.555557816932     0.562267358699
    O           -1.241184597492    -0.124620630095     0.606943343543
    H           -4.158125674355    -0.385435396296    -0.322544896594
    H           -3.189538737585    -1.571354371450     0.567202969882
    H           -4.189082016022    -0.388421394534     1.425823318609
    C           -0.099645543890     0.733866342662     0.630836372951
    C            1.153524014474    -0.146456047643     0.609958053428
    H           -0.153867193483     1.376839759468    -0.236917236340
    H           -0.155726670567     1.354107397834     1.513609564341
    C            1.914182006525    -0.082136807989    -0.717594229193
    H            0.848668161623    -1.171040516165     0.792426719595
    H            1.816055618026     0.140203552015     1.421305996367
    C            3.138429775452    -0.997266381961    -0.751039503614
    H            1.238665903371    -0.351526339906    -1.527561238637
    H            2.226615721768     0.943329848920    -0.907885895779
    C            3.892436109836    -0.936112877778    -2.078871406859
    H            2.826554127055    -2.021727173417    -0.559535187183
    H            3.812220100846    -0.727154532474     0.059451092789
    H            3.254371137607    -1.233958224100    -2.905999888577
    H            4.754304449401    -1.595967340173    -2.071937240623
    H            4.247825746779     0.070079570206    -2.282107827583

  Mulliken Charges: (a.u.)
   Center  Symbol    Alpha    Beta     Spin     Total
       1     O     4.28454  4.28454  0.00000 -0.56907
       2     C     2.61523  2.61523  0.00000  0.76954
       3     C     3.28747  3.28747  0.00000 -0.57494
       4     O     4.31175  4.31175  0.00000 -0.62350
       5     H     0.39761  0.39761  0.00000  0.20478
       6     H     0.40030  0.40030  0.00000  0.19939
       7     H     0.39751  0.39751  0.00000  0.20499
       8     C     3.00428  3.00428  0.00000 -0.00855
       9     C     3.17008  3.17008  0.00000 -0.34016
      10     H     0.40673  0.40673  0.00000  0.18654
      11     H     0.40771  0.40771  0.00000  0.18458
      12     C     3.15763  3.15763  0.00000 -0.31525
      13     H     0.40511  0.40511  0.00000  0.18978
      14     H     0.41633  0.41633  0.00000  0.16734
      15     C     3.15283  3.15283  0.00000 -0.30567
      16     H     0.41929  0.41929  0.00000  0.16141
      17     H     0.42194  0.42194  0.00000  0.15612
      18     C     3.23957  3.23957  0.00000 -0.47914
      19     H     0.42154  0.42154  0.00000  0.15693
      20     H     0.42232  0.42232  0.00000  0.15537
      21     H     0.42086  0.42086  0.00000  0.15828
      22     H     0.41832  0.41832  0.00000  0.16335
      23     H     0.42105  0.42105  0.00000  0.15790

   Total alpha = 36.00000, Total beta = 36.00000, Total charge = -0.00000
