  ==> Input File <==

--------------------------------------------------------------------------
set {
	reference rhf
	basis 6-31G*
}

set_num_threads( 1 )
memory 2 gb

molecule MOL {
0 1

O	 -1.276010	 1.052711	 -0.768302
C	 -1.204840	 0.067374	 -0.106123
C	 -2.388195	 -0.672128	 0.458071
O	 -0.067104	 -0.527208	 0.221609
H	 -2.388023	 -1.694060	 0.097175
H	 -3.300579	 -0.174919	 0.164318
H	 -2.315377	 -0.706351	 1.539059
C	 0.709063	 0.003084	 1.305252
C	 2.141833	 -0.423945	 1.039913
C	 0.167703	 -0.517184	 2.627710
H	 0.628137	 1.079687	 1.275540
H	 2.482798	 -0.046563	 0.082535
H	 2.796578	 -0.037019	 1.813819
H	 2.224022	 -1.505518	 1.030017
H	 0.765134	 -0.137788	 3.450602
H	 -0.855233	 -0.195764	 2.776925
H	 0.202774	 -1.601720	 2.651386

	symmetry c1
}
set optking {
	frozen_dihedral = ("
		11 8 4 2
	")
}

ee = energy('scf')
oeprop('DIPOLE', 'QUADRUPOLE', 'MULLIKEN_CHARGES')
f=open( 'psi4out.xyz', 'w' )
f.write( "17  " )
f.write( str(ee) + "\n" )
f.write( MOL.save_string_xyz() )
f.close()
--------------------------------------------------------------------------

    Molecular point group: c1

    Geometry (in Angstrom), charge = 0, multiplicity = 1:

       Center              X                  Y                   Z               Mass
    ------------   -----------------  -----------------  -----------------  -----------------
           O         -1.000369319188     1.201312886373    -1.455602002987    15.994914619560
           C         -0.929199319188     0.215975886373    -0.793423002987    12.000000000000
           C         -2.112554319188    -0.523526113627    -0.229229002987    12.000000000000
           O          0.208536680812    -0.378606113627    -0.465691002987    15.994914619560
           H         -2.112382319188    -1.545458113627    -0.590125002987     1.007825032070
           H         -3.024938319188    -0.026317113627    -0.522982002987     1.007825032070
           H         -2.039736319188    -0.557749113627     0.851758997013     1.007825032070
           C          0.984703680812     0.151685886373     0.617951997013    12.000000000000
           C          2.417473680812    -0.275343113627     0.352612997013    12.000000000000
           C          0.443343680812    -0.368582113627     1.940409997013    12.000000000000
           H          0.903777680812     1.228288886373     0.588239997013     1.007825032070
           H          2.758438680812     0.102038886373    -0.604765002987     1.007825032070
           H          3.072218680812     0.111582886373     1.126518997013     1.007825032070
           H          2.499662680812    -1.356916113627     0.342716997013     1.007825032070
           H          1.040774680812     0.010813886373     2.763301997013     1.007825032070
           H         -0.579592319188    -0.047162113627     2.089624997013     1.007825032070
           H          0.478414680812    -1.453118113627     1.964085997013     1.007825032070

  Charge       = 0
  Multiplicity = 1
  Basis Set: 6-31G*
  Basis Set:

    Orbital Energies (a.u.)
    -----------------------

    Doubly Occupied:

       1A    -20.581842     2A    -20.551815     3A    -11.374337
       4A    -11.303516     5A    -11.230748     6A    -11.229029
       7A    -11.222537     8A     -1.459895     9A     -1.364408
      10A     -1.079710    11A     -1.010936    12A     -0.955714
      13A     -0.850718    14A     -0.772217    15A     -0.695328
      16A     -0.670671    17A     -0.661739    18A     -0.621179
      19A     -0.588456    20A     -0.577594    21A     -0.571426
      22A     -0.555083    23A     -0.552670    24A     -0.521915
      25A     -0.495823    26A     -0.484158    27A     -0.447765
      28A     -0.435292

  @DF-RHF Final Energy:  -344.89183061959909

   => Energetics <=

    Nuclear Repulsion Energy =            323.8515633166960015
    One-Electron Energy =               -1111.7537542093366483
    Two-Electron Energy =                 443.0103602730421812
    DFT Exchange-Correlation Energy =       0.0000000000000000
    Empirical Dispersion Energy =           0.0000000000000000
    PCM Polarization Energy =               0.0000000000000000
    EFP Energy =                            0.0000000000000000
    Total Energy =                       -344.8918306195984655

  Mulliken Charges: (a.u.)
   Center  Symbol    Alpha    Beta     Spin     Total
       1     O     4.26054  4.26054  0.00000 -0.52108
       2     C     2.62628  2.62628  0.00000  0.74743
       3     C     3.28525  3.28525  0.00000 -0.57050
       4     O     4.31762  4.31762  0.00000 -0.63524
       5     H     0.39963  0.39963  0.00000  0.20073
       6     H     0.40000  0.40000  0.00000  0.20000
       7     H     0.40646  0.40646  0.00000  0.18707
       8     C     2.92811  2.92811  0.00000  0.14377
       9     C     3.24128  3.24128  0.00000 -0.48256
      10     C     3.24890  3.24890  0.00000 -0.49781
      11     H     0.40730  0.40730  0.00000  0.18541
      12     H     0.40452  0.40452  0.00000  0.19096
      13     H     0.41917  0.41917  0.00000  0.16167
      14     H     0.41263  0.41263  0.00000  0.17474
      15     H     0.41420  0.41420  0.00000  0.17160
      16     H     0.41703  0.41703  0.00000  0.16594
      17     H     0.41106  0.41106  0.00000  0.17788

   Total alpha = 28.00000, Total beta = 28.00000, Total charge = -0.00000
