                              Psi4 1.0.54 Driver

  ==> Input File <==

--------------------------------------------------------------------------
set {
	reference rhf
	basis cc-pvtz
}

set_num_threads( 4 )
memory 2 gb

molecule MOL {
0 1

H	 1.651322	 -0.822465	 0.000000
O	 0.729993	 -1.034364	 0.000000
C	 0.037305	 0.100061	 0.000000
C	 -0.661385	 0.332065	 -1.306171
O	 -0.001174	 0.818134	 0.937916
H	 0.067915	 0.364306	 -2.105265
H	 -1.208958	 1.258906	 -1.263114
H	 -1.333977	 -0.491700	 -1.507417

	symmetry c1
}
set optking {
	frozen_dihedral = ("
		4 3 2 1
	")
}

ee,wfn = optimize('scf', return_wfn=True)
oeprop( wfn, 'DIPOLE', 'QUADRUPOLE', 'MULLIKEN_CHARGES')
f=open( 'psi4out.xyz', 'w' )
f.write( "8  " )
f.write( str(ee) + "\n" )
f.write( MOL.save_string_xyz() )
f.close()
--------------------------------------------------------------------------

    Molecular point group: c1
  Charge       = 0
  Multiplicity = 1
  Basis Set: CC-PVTZ
  Basis Set:
  @DF-RHF Final Energy:  -227.88626931997402
    Total Energy =                       -227.8862693199739340
    Molecular point group: c1
  Basis Set: CC-PVTZ
  Basis Set:
  Basis Set: CC-PVTZ
  Basis Set:
  @DF-RHF Final Energy:  -227.88653445795313
    Total Energy =                       -227.8865344579531325
  Basis Set: CC-PVTZ
  Basis Set:
  Basis Set: CC-PVTZ
  Basis Set:
  @DF-RHF Final Energy:  -227.88730939448294
    Total Energy =                       -227.8873093944829407
  Basis Set: CC-PVTZ
  Basis Set:
  Basis Set: CC-PVTZ
  Basis Set:
  @DF-RHF Final Energy:  -227.88746874075858
    Total Energy =                       -227.8874687407584929
  Basis Set: CC-PVTZ
  Basis Set:
  Basis Set: CC-PVTZ
  Basis Set:
  @DF-RHF Final Energy:  -227.88748882146248
    Total Energy =                       -227.8874888214624264
  Basis Set: CC-PVTZ
  Basis Set:
  Basis Set: CC-PVTZ
  Basis Set:
  @DF-RHF Final Energy:  -227.88749874379852
    Total Energy =                       -227.8874987437986306
  Basis Set: CC-PVTZ
  Basis Set:
  Charge       = 0
  Multiplicity = 1
  Basis Set: CC-PVTZ
  Basis Set:

    Orbital Energies (a.u.)
    -----------------------

    Doubly Occupied:

       1A    -20.590164     2A    -20.551633     3A    -11.379432
       4A    -11.240650     5A     -1.467635     6A     -1.372682
       7A     -1.025124     8A     -0.829244     9A     -0.710063
      10A     -0.677065    11A     -0.662988    12A     -0.587863
      13A     -0.580633    14A     -0.524413    15A     -0.499078
      16A     -0.453726

  @DF-RHF Final Energy:  -227.88750027359958

   => Energetics <=

    Nuclear Repulsion Energy =            122.1567600919324121
    One-Electron Energy =                -553.7837377881747898
    Two-Electron Energy =                 203.7394774226427501
    DFT Exchange-Correlation Energy =       0.0000000000000000
    Empirical Dispersion Energy =           0.0000000000000000
    PCM Polarization Energy =               0.0000000000000000
    EFP Energy =                            0.0000000000000000
    Total Energy =                       -227.8875002735996134
    Molecular point group: c1
  Basis Set: CC-PVTZ
  Basis Set:

  -Total Gradient:
     Atom            X                  Y                   Z
    ------   -----------------  -----------------  -----------------
       1       -0.000078391383    -0.000250989470    -0.008377324400
       2        0.001758176125     0.001145739655     0.009629257829
       3       -0.005718530610    -0.002928468382     0.000504391889
       4        0.004224342091     0.002292443034    -0.001843764245
       5       -0.000203168747    -0.000209164540     0.000097335252
       6        0.000006497237     0.000003301490    -0.000020228033
       7        0.000009293710    -0.000003694087    -0.000002635431
       8        0.000001781580    -0.000049167700     0.000012967142

  **** Optimization is complete! (in 7 steps) ****
    Final optimized geometry and variables:
    Molecular point group: c1

    Geometry (in Angstrom), charge = 0, multiplicity = 1:

    H            1.584833081107    -0.954215259225     0.113484972606
    O            0.653561512907    -1.102649048386     0.128168702482
    C           -0.026493598163     0.070294771092     0.093501529825
    C           -0.740390162038     0.290243415302    -1.207500681104
    O           -0.008418487551     0.829118278802     0.990024266548
    H            0.002476880246     0.399184020694    -1.989192303778
    H           -1.351015460776     1.176925424918    -1.153582431130
    H           -1.344028928726    -0.573628796028    -1.453047060797

  Mulliken Charges: (a.u.)
   Center  Symbol    Alpha    Beta     Spin     Total
       1     H     0.38215  0.38215  0.00000  0.23570
       2     O     4.17782  4.17782  0.00000 -0.35565
       3     C     2.80468  2.80468  0.00000  0.39063
       4     C     3.13585  3.13585  0.00000 -0.27169
       5     O     4.16627  4.16627  0.00000 -0.33254
       6     H     0.45132  0.45132  0.00000  0.09737
       7     H     0.43870  0.43870  0.00000  0.12261
       8     H     0.44321  0.44321  0.00000  0.11358

   Total alpha = 16.00000, Total beta = 16.00000, Total charge =  0.00000

*** Psi4 exiting successfully. Buy a developer a beer!
