  ==> Input File <==

--------------------------------------------------------------------------
set {
	reference rhf
	basis cc-pvtz
}

set_num_threads( 4 )
memory 2 gb

molecule MOL {
0 1

H	 -0.319138	 0.002557	 -2.345276
C	 0.101808	 0.890907	 -1.854890
C	 0.062554	 0.862911	 -0.350953
O	 0.546652	 1.771306	 -2.506170
C	 -1.339253	 0.577611	 0.196911
H	 0.451169	 1.801924	 0.021509
H	 0.738018	 0.070945	 -0.035337
C	 -1.813142	 -0.849710	 -0.061612
H	 -2.032833	 1.276441	 -0.256032
H	 -1.357249	 0.782269	 1.263793
H	 -1.839268	 -1.063526	 -1.124230
H	 -2.810118	 -1.001930	 0.334000
H	 -1.159274	 -1.579980	 0.402282

	symmetry c1
}
set optking {
	frozen_dihedral = ("
		6 3 5 9
	")
}

ee = optimize('scf')
oeprop('DIPOLE', 'QUADRUPOLE', 'MULLIKEN_CHARGES')
f=open( 'psi4out.xyz', 'w' )
f.write( "13  " )
f.write( str(ee) + "\n" )
f.write( MOL.save_string_xyz() )
f.close()
--------------------------------------------------------------------------

    Molecular point group: c1
  Charge       = 0
  Multiplicity = 1
  Basis Set: CC-PVTZ
  Basis Set:
  @DF-RHF Final Energy:  -231.06839984524620
    Total Energy =                       -231.0683998452461481
    Molecular point group: c1
  Basis Set: CC-PVTZ
  Basis Set:
  Basis Set: CC-PVTZ
  Basis Set:
  @DF-RHF Final Energy:  -231.06881952875344
    Total Energy =                       -231.0688195287532949
  Basis Set: CC-PVTZ
  Basis Set:
  Basis Set: CC-PVTZ
  Basis Set:
  @DF-RHF Final Energy:  -231.06877058437414
    Total Energy =                       -231.0687705843740503
  Basis Set: CC-PVTZ
  Basis Set:
  Basis Set: CC-PVTZ
  Basis Set:
  @DF-RHF Final Energy:  -231.06892795773169
    Total Energy =                       -231.0689279577317166
  Basis Set: CC-PVTZ
  Basis Set:
  Basis Set: CC-PVTZ
  Basis Set:
  @DF-RHF Final Energy:  -231.06895473481904
    Total Energy =                       -231.0689547348189592
  Basis Set: CC-PVTZ
  Basis Set:
  Basis Set: CC-PVTZ
  Basis Set:
  @DF-RHF Final Energy:  -231.06895932512265
    Total Energy =                       -231.0689593251228189
  Basis Set: CC-PVTZ
  Basis Set:
  Charge       = 0
  Multiplicity = 1
  Basis Set: CC-PVTZ
  Basis Set:

    Orbital Energies (a.u.)
    -----------------------

    Doubly Occupied:

       1A    -20.551881     2A    -11.320937     3A    -11.237552
       4A    -11.234545     5A    -11.223798     6A     -1.406381
       7A     -1.087152     8A     -0.975073     9A     -0.853632
      10A     -0.785295    11A     -0.679712    12A     -0.651371
      13A     -0.604812    14A     -0.601747    15A     -0.579556
      16A     -0.532543    17A     -0.507221    18A     -0.496158
      19A     -0.485405    20A     -0.411332

  @DF-RHF Final Energy:  -231.06895995946053

   => Energetics <=

    Nuclear Repulsion Energy =            172.6656157823212538
    One-Electron Energy =                -655.0169474243854211
    Two-Electron Energy =                 251.2823716826036389
    DFT Exchange-Correlation Energy =       0.0000000000000000
    Empirical Dispersion Energy =           0.0000000000000000
    PCM Polarization Energy =               0.0000000000000000
    EFP Energy =                            0.0000000000000000
    Total Energy =                       -231.0689599594605284
    Molecular point group: c1
  Basis Set: CC-PVTZ
  Basis Set:

  -Total Gradient:
     Atom            X                  Y                   Z
    ------   -----------------  -----------------  -----------------
       1       -0.000047857653     0.000032888372    -0.000003244682
       2        0.000050542075    -0.000033397272     0.000007456532
       3       -0.000381028614     0.000239734449    -0.000599142823
       4        0.000033309943    -0.000002851833    -0.000005309706
       5        0.000198489103     0.000346832818     0.000586659335
       6        0.000202134703    -0.000248589237     0.000408857651
       7        0.000046222409     0.000012401028    -0.000006051637
       8       -0.000005262829    -0.000005651155     0.000004253210
       9       -0.000096274170    -0.000333369782    -0.000385560263
      10        0.000000771513     0.000000166525    -0.000008695399
      11       -0.000001217925    -0.000003343673     0.000004428286
      12        0.000001307900    -0.000003628450    -0.000004224389
      13       -0.000001136451    -0.000001191792     0.000000573884

  **** Optimization is complete! (in 7 steps) ****
    Final optimized geometry and variables:
    Molecular point group: c1

    Geometry (in Angstrom), charge = 0, multiplicity = 1:

    H            0.264914983853    -0.630421108473    -1.479532173213
    C            0.625526076357     0.254904669994    -0.943890416240
    C            0.557917441954     0.192958496195     0.558213238049
    O            1.036982180796     1.181667543206    -1.553352863280
    C           -0.852410761843    -0.086314362094     1.098026975428
    H            0.936932497547     1.130241970203     0.942348845251
    H            1.231232699411    -0.596798519844     0.885297864669
    C           -1.344455711230    -1.515949673123     0.882861198471
    H           -1.552629034075     0.611968774369     0.649884456485
    H           -0.848691690299     0.127397388256     2.160411166842
    H           -1.425179258663    -1.768379093046    -0.167775606088
    H           -2.324754581965    -1.650874645150     1.323753272178
    H           -0.672831837994    -2.231802812173     1.344545314265

  Mulliken Charges: (a.u.)
   Center  Symbol    Alpha    Beta     Spin     Total
       1     H     0.46336  0.46336  0.00000  0.07327
       2     C     2.90345  2.90345  0.00000  0.19309
       3     C     3.08726  3.08726  0.00000 -0.17451
       4     O     4.16545  4.16545  0.00000 -0.33090
       5     C     3.09912  3.09912  0.00000 -0.19825
       6     H     0.43754  0.43754  0.00000  0.12492
       7     H     0.45168  0.45168  0.00000  0.09665
       8     C     3.14992  3.14992  0.00000 -0.29984
       9     H     0.44692  0.44692  0.00000  0.10615
      10     H     0.44407  0.44407  0.00000  0.11187
      11     H     0.45391  0.45391  0.00000  0.09218
      12     H     0.44396  0.44396  0.00000  0.11207
      13     H     0.45335  0.45335  0.00000  0.09330

   Total alpha = 20.00000, Total beta = 20.00000, Total charge =  0.00000
