  ==> Input File <==

--------------------------------------------------------------------------
set {
	reference rhf
	basis 6-31G*
}

set_num_threads( 4 )
memory 2 gb

molecule MOL {
0 1

O	 1.135347	 -0.355088	 0.054221
C	 0.028650	 0.075053	 -0.000277
C	 -1.233602	 -0.752807	 0.000328
O	 -0.245665	 1.371057	 -0.071175
C	 -2.501530	 0.091881	 0.000126
H	 -1.193807	 -1.406641	 -0.865785
H	 -1.193516	 -1.405779	 0.867015
H	 -2.545121	 0.729328	 -0.874513
H	 -3.377167	 -0.548497	 0.000561
H	 -2.544818	 0.730135	 0.874258
C	 0.855593	 2.261408	 -0.080787
H	 1.437094	 2.155920	 0.823725
H	 0.433281	 3.252339	 -0.140549
H	 1.489655	 2.072220	 -0.934980

	symmetry c1
}
set optking {
	frozen_dihedral = ("
		4 2 3 6
	")
}

ee = optimize('scf')
oeprop('DIPOLE', 'QUADRUPOLE', 'MULLIKEN_CHARGES')
f=open( 'psi4out.xyz', 'w' )
f.write( "14  " )
f.write( str(ee) + "\n" )
f.write( MOL.save_string_xyz() )
f.close()
--------------------------------------------------------------------------

    Molecular point group: c1
  Charge       = 0
  Multiplicity = 1
  Basis Set: 6-31G*
  Basis Set:
  @DF-RHF Final Energy:  -305.86823314857213
    Total Energy =                       -305.8682331485717896
    Molecular point group: c1
  Basis Set: 6-31G*
  Basis Set:
  Basis Set: 6-31G*
  Basis Set:
  @DF-RHF Final Energy:  -305.86915691988202
    Total Energy =                       -305.8691569198819593
  Basis Set: 6-31G*
  Basis Set:
  Basis Set: 6-31G*
  Basis Set:
  @DF-RHF Final Energy:  -305.86939281771708
    Total Energy =                       -305.8693928177171983
  Basis Set: 6-31G*
  Basis Set:
  Basis Set: 6-31G*
  Basis Set:
  @DF-RHF Final Energy:  -305.86951131840453
    Total Energy =                       -305.8695113184045340
  Basis Set: 6-31G*
  Basis Set:
  Basis Set: 6-31G*
  Basis Set:
  @DF-RHF Final Energy:  -305.86956763983699
    Total Energy =                       -305.8695676398371006
  Basis Set: 6-31G*
  Basis Set:
  Basis Set: 6-31G*
  Basis Set:
  @DF-RHF Final Energy:  -305.86958433628655
    Total Energy =                       -305.8695843362864935
  Basis Set: 6-31G*
  Basis Set:
  Basis Set: 6-31G*
  Basis Set:
  @DF-RHF Final Energy:  -305.86958155437242
    Total Energy =                       -305.8695815543724166
  Basis Set: 6-31G*
  Basis Set:
  Charge       = 0
  Multiplicity = 1
  Basis Set: 6-31G*
  Basis Set:

    Orbital Energies (a.u.)
    -----------------------

    Doubly Occupied:

       1A    -20.607626     2A    -20.540941     3A    -11.373243
       4A    -11.282338     5A    -11.239097     6A    -11.220627
       7A     -1.471240     8A     -1.361704     9A     -1.065976
      10A     -0.975230    11A     -0.887325    12A     -0.775425
      13A     -0.695125    14A     -0.683309    15A     -0.670517
      16A     -0.621656    17A     -0.585824    18A     -0.557232
      19A     -0.547313    20A     -0.522239    21A     -0.517034
      22A     -0.499488    23A     -0.453256    24A     -0.433467

  @DF-RHF Final Energy:  -305.86958642606339

   => Energetics <=

    Nuclear Repulsion Energy =            248.4704203606680721
    One-Electron Energy =                -909.5055478800209130
    Two-Electron Energy =                 355.1655410932892210
    DFT Exchange-Correlation Energy =       0.0000000000000000
    Empirical Dispersion Energy =           0.0000000000000000
    PCM Polarization Energy =               0.0000000000000000
    EFP Energy =                            0.0000000000000000
    Total Energy =                       -305.8695864260636199
    Molecular point group: c1
  Basis Set: 6-31G*
  Basis Set:

  -Total Gradient:
     Atom            X                  Y                   Z
    ------   -----------------  -----------------  -----------------
       1        0.000005476102     0.000007547533    -0.000002605641
       2        0.000006872513    -0.000026765467    -0.000127736002
       3       -0.000096615933     0.000142879127    -0.000055427110
       4        0.000001289076    -0.000008310908     0.000116824547
       5        0.000018916188    -0.000015354823    -0.000005098102
       6        0.000066191625    -0.000101614470     0.000070390657
       7        0.000003350060    -0.000010872918     0.000003292497
       8       -0.000004534407    -0.000000594648     0.000002299937
       9       -0.000001811303     0.000004542078     0.000001264800
      10       -0.000003105281     0.000004275322     0.000002667644
      11        0.000001899369     0.000003462725    -0.000008671941
      12       -0.000001105543    -0.000001469351     0.000000819797
      13        0.000001600866    -0.000000019840     0.000001010572
      14        0.000001576667     0.000002295640     0.000000968344

  **** Optimization is complete! (in 8 steps) ****
    Final optimized geometry and variables:
    Molecular point group: c1

    Geometry (in Angstrom), charge = 0, multiplicity = 1:

    O            1.421599163279    -0.838824411321     0.077618589958
    C            0.329702492081    -0.370237747054     0.017706899450
    C           -0.931123005221    -1.207655682497     0.014647468028
    O            0.104261867503     0.931575864917    -0.058217879803
    C           -2.255294708539    -0.450020575444     0.019283521259
    H           -0.858562582216    -1.853732577987    -0.854969193991
    H           -0.855764069197    -1.864507753736     0.874925285641
    H           -2.354167542071     0.181021900740    -0.855448099908
    H           -3.080297517831    -1.154525298248     0.023035041609
    H           -2.347521147204     0.180991314472     0.895264202932
    C            1.239470721810     1.779235467420    -0.066859071225
    H            1.812966693681     1.652820741117     0.839835282616
    H            0.855333547763     2.785265275117    -0.131029530429
    H            1.867743968087     1.561606266125    -0.918280325128

  Mulliken Charges: (a.u.)
   Center  Symbol    Alpha    Beta     Spin     Total
       1     O     4.28835  4.28835  0.00000 -0.57670
       2     C     2.60702  2.60702  0.00000  0.78596
       3     C     3.20913  3.20913  0.00000 -0.41826
       4     O     4.30409  4.30409  0.00000 -0.60819
       5     C     3.23766  3.23766  0.00000 -0.47532
       6     H     0.39763  0.39763  0.00000  0.20473
       7     H     0.39727  0.39727  0.00000  0.20546
       8     H     0.41177  0.41177  0.00000  0.17645
       9     H     0.41689  0.41689  0.00000  0.16622
      10     H     0.41287  0.41287  0.00000  0.17425
      11     C     3.09291  3.09291  0.00000 -0.18582
      12     H     0.40792  0.40792  0.00000  0.18416
      13     H     0.40846  0.40846  0.00000  0.18308
      14     H     0.40801  0.40801  0.00000  0.18398

   Total alpha = 24.00000, Total beta = 24.00000, Total charge = -0.00000
