  ==> Input File <==

--------------------------------------------------------------------------
set {
	reference rhf
	basis 6-31G*
}

set_num_threads( 4 )
memory 2 gb

molecule MOL {
0 1

H	 3.089270	 -1.380733	 0.000000
O	 2.178328	 -1.639175	 0.000000
C	 1.368216	 -0.558384	 0.000000
C	 0.040020	 -0.623917	 0.401128
C	 1.905653	 0.646048	 -0.419448
H	 -0.376268	 -1.562222	 0.727198
C	 -0.749153	 0.513859	 0.382590
H	 2.931426	 0.698049	 -0.729545
C	 1.108751	 1.780405	 -0.434989
H	 -1.775608	 0.450784	 0.695302
C	 -0.220318	 1.721748	 -0.035108
C	 1.679800	 3.077607	 -0.884478
H	 -0.831499	 2.606752	 -0.050305
O	 2.802707	 3.231262	 -1.245055
H	 0.981674	 3.919919	 -0.865034

	symmetry c1
}
set optking {
	frozen_dihedral = ("
		4 3 2 1
	")
}

ee = optimize('scf')
oeprop('DIPOLE', 'QUADRUPOLE', 'MULLIKEN_CHARGES')
f=open( 'psi4out.xyz', 'w' )
f.write( "15  " )
f.write( str(ee) + "\n" )
f.write( MOL.save_string_xyz() )
f.close()
--------------------------------------------------------------------------

    Molecular point group: c1
  Charge       = 0
  Multiplicity = 1
  Basis Set: 6-31G*
  Basis Set:
  @DF-RHF Final Energy:  -418.28488886684408
    Total Energy =                       -418.2848888668439713
    Molecular point group: c1
  Basis Set: 6-31G*
  Basis Set:
  Basis Set: 6-31G*
  Basis Set:
  @DF-RHF Final Energy:  -418.28685142928714
    Total Energy =                       -418.2868514292866848
  Basis Set: 6-31G*
  Basis Set:
  Basis Set: 6-31G*
  Basis Set:
  @DF-RHF Final Energy:  -418.28674843339076
    Total Energy =                       -418.2867484333912671
  Basis Set: 6-31G*
  Basis Set:
  Basis Set: 6-31G*
  Basis Set:
  @DF-RHF Final Energy:  -418.28649680944420
    Total Energy =                       -418.2864968094438609
  Basis Set: 6-31G*
  Basis Set:
  Basis Set: 6-31G*
  Basis Set:
  @DF-RHF Final Energy:  -418.28705215956762
    Total Energy =                       -418.2870521595675655
  Basis Set: 6-31G*
  Basis Set:
  Charge       = 0
  Multiplicity = 1
  Basis Set: 6-31G*
  Basis Set:

    Orbital Energies (a.u.)
    -----------------------

    Doubly Occupied:

       1A    -20.599651     2A    -20.566893     3A    -11.335221
       4A    -11.311490     5A    -11.253364     6A    -11.251212
       7A    -11.248153     8A    -11.244951     9A    -11.244228
      10A     -1.418952    11A     -1.407413    12A     -1.169955
      13A     -1.049594    14A     -1.026127    15A     -0.900957
      16A     -0.852747    17A     -0.796853    18A     -0.753439
      19A     -0.700443    20A     -0.667327    21A     -0.661408
      22A     -0.628599    23A     -0.614388    24A     -0.604980
      25A     -0.568958    26A     -0.552626    27A     -0.535392
      28A     -0.517229    29A     -0.486113    30A     -0.426160
      31A     -0.353248    32A     -0.328198

  @DF-RHF Final Energy:  -418.28705582012111

   => Energetics <=

    Nuclear Repulsion Energy =            403.2630612284143012
    One-Electron Energy =               -1368.9476984422260557
    Two-Electron Energy =                 547.3975813936910981
    DFT Exchange-Correlation Energy =       0.0000000000000000
    Empirical Dispersion Energy =           0.0000000000000000
    PCM Polarization Energy =               0.0000000000000000
    EFP Energy =                            0.0000000000000000
    Total Energy =                       -418.2870558201207132
    Molecular point group: c1
  Basis Set: 6-31G*
  Basis Set:

  -Total Gradient:
     Atom            X                  Y                   Z
    ------   -----------------  -----------------  -----------------
       1        0.000004101090     0.000040447326     0.002051106033
       2        0.000194217324     0.000116344990    -0.001895603402
       3       -0.000821031103    -0.000500515395    -0.001492523015
       4        0.000654099888     0.000164499917     0.001354728473
       5       -0.000060348903     0.000192035538    -0.000047567148
       6        0.000020444180     0.000006591393    -0.000004958615
       7       -0.000012215028     0.000381491531    -0.000075104362
       8        0.000008944941     0.000005730869     0.000004685573
       9        0.000322139982    -0.000131037147     0.000006014287
      10        0.000002620350    -0.000026873936     0.000006747662
      11       -0.000296790998    -0.000233241054     0.000117060010
      12       -0.000081271554    -0.000004144165    -0.000063686149
      13        0.000029964726     0.000019684223    -0.000018223435
      14        0.000037949364    -0.000023525125     0.000026899011
      15       -0.000002824269    -0.000007488970     0.000030425078

  **** Optimization is complete! (in 6 steps) ****
    Final optimized geometry and variables:
    Molecular point group: c1

    Geometry (in Angstrom), charge = 0, multiplicity = 1:

    H            1.857209820586    -2.384288108318     0.290659613030
    O            0.929936200571    -2.577884558438     0.284785174897
    C            0.201990428243    -1.438067229944     0.251705456395
    C           -1.126301490382    -1.516398545003     0.662240916362
    C            0.726190378434    -0.232559232932    -0.166255479034
    H           -1.509402854344    -2.464597651497     0.990562093984
    C           -1.923547894081    -0.390568435546     0.639055926764
    H            1.748757535212    -0.151288855871    -0.488497036455
    C           -0.081316362634     0.901148875768    -0.177624108749
    H           -2.948567616284    -0.459962431926     0.954883483931
    C           -1.404815292360     0.827623801208     0.219822694128
    C            0.482970573404     2.200179179902    -0.623733642922
    H           -2.024975406183     1.706495045983     0.206251406324
    O            1.609542486642     2.359344856057    -0.973414273974
    H           -0.219579679416     3.038461233195    -0.612334548092

  Mulliken Charges: (a.u.)
   Center  Symbol    Alpha    Beta     Spin     Total
       1     H     0.26924  0.26924  0.00000  0.46153
       2     O     4.37902  4.37902  0.00000 -0.75805
       3     C     2.79570  2.79570  0.00000  0.40860
       4     C     3.11246  3.11246  0.00000 -0.22492
       5     C     3.13332  3.13332  0.00000 -0.26665
       6     H     0.38571  0.38571  0.00000  0.22859
       7     C     3.09692  3.09692  0.00000 -0.19384
       8     H     0.38058  0.38058  0.00000  0.23883
       9     C     3.04654  3.04654  0.00000 -0.09307
      10     H     0.39259  0.39259  0.00000  0.21482
      11     C     3.11415  3.11415  0.00000 -0.22831
      12     C     2.83228  2.83228  0.00000  0.33544
      13     H     0.39287  0.39287  0.00000  0.21427
      14     O     4.24810  4.24810  0.00000 -0.49620
      15     H     0.42052  0.42052  0.00000  0.15895

   Total alpha = 32.00000, Total beta = 32.00000, Total charge = -0.00000
