  ==> Input File <==

--------------------------------------------------------------------------
set {
	reference rhf
	basis 6-31G*
}

set_num_threads( 4 )
memory 2 gb

molecule MOL {
0 1

H	 -2.714360	 -1.473431	 0.298842
O	 -2.310168	 -0.871793	 -0.309793
C	 -2.026376	 0.340750	 0.341611
C	 -0.673256	 0.843270	 -0.132153
H	 -2.792215	 1.080697	 0.115987
H	 -2.013526	 0.200402	 1.421792
C	 0.486613	 -0.083066	 0.235839
H	 -0.715586	 0.970948	 -1.210718
H	 -0.508072	 1.829858	 0.297090
C	 1.840406	 0.433480	 -0.254303
H	 0.300215	 -1.068318	 -0.178947
H	 0.519509	 -0.203625	 1.318070
C	 3.000220	 -0.489290	 0.118523
H	 1.809207	 0.553576	 -1.335192
H	 2.021860	 1.424500	 0.157276
H	 2.864959	 -1.479103	 -0.307933
H	 3.946603	 -0.099227	 -0.243630
H	 3.080049	 -0.602997	 1.196117

	symmetry c1
}
set optking {
	frozen_dihedral = ("
		1 2 3 4
	")
}

ee = optimize('scf')
oeprop('DIPOLE', 'QUADRUPOLE', 'MULLIKEN_CHARGES')
f=open( 'psi4out.xyz', 'w' )
f.write( "18  " )
f.write( str(ee) + "\n" )
f.write( MOL.save_string_xyz() )
f.close()
--------------------------------------------------------------------------

    Molecular point group: c1
  Charge       = 0
  Multiplicity = 1
  Basis Set: 6-31G*
  Basis Set:
  @DF-RHF Final Energy:  -271.17855533896454
    Total Energy =                       -271.1785553389648840
    Molecular point group: c1
  Basis Set: 6-31G*
  Basis Set:
  Basis Set: 6-31G*
  Basis Set:
  @DF-RHF Final Energy:  -271.17864142554208
    Total Energy =                       -271.1786414255419686
  Basis Set: 6-31G*
  Basis Set:
  Basis Set: 6-31G*
  Basis Set:
  @DF-RHF Final Energy:  -271.17868669997631
    Total Energy =                       -271.1786866999764811
  Basis Set: 6-31G*
  Basis Set:
  Basis Set: 6-31G*
  Basis Set:
  @DF-RHF Final Energy:  -271.17868811061595
    Total Energy =                       -271.1786881106157807
  Basis Set: 6-31G*
  Basis Set:
  Charge       = 0
  Multiplicity = 1
  Basis Set: 6-31G*
  Basis Set:

    Orbital Energies (a.u.)
    -----------------------

    Doubly Occupied:

       1A    -20.552203     2A    -11.268350     3A    -11.212199
       4A    -11.211684     5A    -11.208613     6A    -11.206038
       7A     -1.358513     8A     -1.075936     9A     -1.009402
      10A     -0.914805    11A     -0.819693    12A     -0.784845
      13A     -0.705798    14A     -0.633798    15A     -0.632091
      16A     -0.579972    17A     -0.570253    18A     -0.564793
      19A     -0.523585    20A     -0.497443    21A     -0.481232
      22A     -0.473189    23A     -0.460343    24A     -0.458279
      25A     -0.423097

  @DF-RHF Final Energy:  -271.17868826072151

   => Energetics <=

    Nuclear Repulsion Energy =            248.9182606699606595
    One-Electron Energy =                -860.9415893099607047
    Two-Electron Energy =                 340.8446403792785873
    DFT Exchange-Correlation Energy =       0.0000000000000000
    Empirical Dispersion Energy =           0.0000000000000000
    PCM Polarization Energy =               0.0000000000000000
    EFP Energy =                            0.0000000000000000
    Total Energy =                       -271.1786882607214579
    Molecular point group: c1
  Basis Set: 6-31G*
  Basis Set:

  -Total Gradient:
     Atom            X                  Y                   Z
    ------   -----------------  -----------------  -----------------
       1        0.001267722961    -0.000522013077     0.000331684331
       2       -0.001415290419     0.000453746483    -0.000161326605
       3       -0.000253115564     0.000503928797    -0.000837378569
       4        0.000396426927    -0.000440161727     0.000663778336
       5        0.000000698101     0.000014096221     0.000009395121
       6        0.000007724477    -0.000004299825    -0.000003731758
       7       -0.000003267823     0.000008849705     0.000006218144
       8       -0.000011371982    -0.000008950210     0.000009727987
       9        0.000007216829     0.000007950417    -0.000003945289
      10        0.000006125197    -0.000009146159    -0.000008251226
      11        0.000008785912    -0.000007015252    -0.000006855330
      12       -0.000010339811     0.000003047427    -0.000002334952
      13        0.000001040246     0.000001890298     0.000000148332
      14       -0.000001364225     0.000004070897    -0.000000360110
      15       -0.000001795884    -0.000004504903     0.000004736441
      16       -0.000000283718    -0.000000657462     0.000000341502
      17        0.000000095673    -0.000000994668    -0.000001357207
      18        0.000000993103     0.000000163037    -0.000000489147

  **** Optimization is complete! (in 5 steps) ****
    Final optimized geometry and variables:
    Molecular point group: c1

    Geometry (in Angstrom), charge = 0, multiplicity = 1:

    H           -2.742560028984    -1.473689256038     0.276492785152
    O           -2.337733654167    -0.865912066253    -0.323064762388
    C           -2.026528799639     0.337622619963     0.339010130003
    C           -0.673541735478     0.846256354851    -0.132524439230
    H           -2.796076516963     1.076182401705     0.129546604254
    H           -2.005966959734     0.186884397946     1.416515968742
    C            0.488207012673    -0.074955182162     0.239539982307
    H           -0.713104123605     0.970419871804    -1.211809156035
    H           -0.513327260005     1.835987556750     0.292014582272
    C            1.841517819290     0.435776671053    -0.257940125738
    H            0.300470986103    -1.063081071695    -0.168781296346
    H            0.525250341569    -0.187434739303     1.322989802722
    C            3.000841081408    -0.487024572737     0.116248019262
    H            1.806444960347     0.549560147526    -1.339234023457
    H            2.026016008434     1.428755539348     0.147302666544
    H            2.862064390538    -1.479315400349    -0.303460111105
    H            3.946476201457    -0.101252291926    -0.252181342096
    H            3.084983721872    -0.593929924077     1.194228100526

  Mulliken Charges: (a.u.)
   Center  Symbol    Alpha    Beta     Spin     Total
       1     H     0.27945  0.27945  0.00000  0.44111
       2     O     4.37153  4.37153  0.00000 -0.74306
       3     C     2.99835  2.99835  0.00000  0.00331
       4     C     3.15843  3.15843  0.00000 -0.31686
       5     H     0.42420  0.42420  0.00000  0.15160
       6     H     0.43295  0.43295  0.00000  0.13410
       7     C     3.15415  3.15415  0.00000 -0.30830
       8     H     0.41473  0.41473  0.00000  0.17053
       9     H     0.42502  0.42502  0.00000  0.14996
      10     C     3.15143  3.15143  0.00000 -0.30286
      11     H     0.41100  0.41100  0.00000  0.17800
      12     H     0.42915  0.42915  0.00000  0.14170
      13     C     3.23903  3.23903  0.00000 -0.47805
      14     H     0.42185  0.42185  0.00000  0.15630
      15     H     0.42480  0.42480  0.00000  0.15041
      16     H     0.42116  0.42116  0.00000  0.15769
      17     H     0.41989  0.41989  0.00000  0.16021
      18     H     0.42289  0.42289  0.00000  0.15423

   Total alpha = 25.00000, Total beta = 25.00000, Total charge = -0.00000
