  ==> Input File <==

--------------------------------------------------------------------------
set {
	reference rhf
	basis 6-31G*
}

set_num_threads( 4 )
memory 2 gb

molecule MOL {
0 1

H	 2.581439	 1.743713	 -1.146008
C	 1.862534	 1.545302	 -0.359411
C	 1.322923	 0.120767	 -0.479465
H	 2.361030	 1.701142	 0.592214
H	 1.066152	 2.278020	 -0.445971
C	 0.306652	 -0.176050	 0.621399
H	 2.136567	 -0.593566	 -0.407775
H	 0.847039	 -0.021586	 -1.442549
N	 -1.068537	 -0.011044	 0.085269
H	 0.372515	 -1.192590	 0.973735
H	 0.391664	 0.520566	 1.441230
O	 -1.656956	 -0.997225	 -0.235017
O	 -1.478635	 1.104830	 -0.018026

	symmetry c1
}
set optking {
	frozen_dihedral = ("
		7 3 6 9
	")
}

ee = optimize('scf')
oeprop('DIPOLE', 'QUADRUPOLE', 'MULLIKEN_CHARGES')
f=open( 'psi4out.xyz', 'w' )
f.write( "13  " )
f.write( str(ee) + "\n" )
f.write( MOL.save_string_xyz() )
f.close()
--------------------------------------------------------------------------

    Molecular point group: c1
  Charge       = 0
  Multiplicity = 1
  Basis Set: 6-31G*
  Basis Set:
  @DF-RHF Final Energy:  -321.73130807611324
    Total Energy =                       -321.7313080761132937
    Molecular point group: c1
  Basis Set: 6-31G*
  Basis Set:
  Basis Set: 6-31G*
  Basis Set:
  @DF-RHF Final Energy:  -321.72885975891938
    Total Energy =                       -321.7288597589192705
  Basis Set: 6-31G*
  Basis Set:
  Basis Set: 6-31G*
  Basis Set:
  @DF-RHF Final Energy:  -321.72787103249345
    Total Energy =                       -321.7278710324933968
  Basis Set: 6-31G*
  Basis Set:
  Basis Set: 6-31G*
  Basis Set:
  @DF-RHF Final Energy:  -321.73145511076882
    Total Energy =                       -321.7314551107689340
  Basis Set: 6-31G*
  Basis Set:
  @DF-RHF Final Energy:  -321.73088670152976
    Total Energy =                       -321.7308867015296983
  Basis Set: 6-31G*
  Basis Set:
  @DF-RHF Final Energy:  -321.73202485174119
    Total Energy =                       -321.7320248517414143
  Basis Set: 6-31G*
  Basis Set:
  Basis Set: 6-31G*
  Basis Set:
  @DF-RHF Final Energy:  -321.73203904524769
    Total Energy =                       -321.7320390452478023
  Basis Set: 6-31G*
  Basis Set:
  Basis Set: 6-31G*
  Basis Set:
  @DF-RHF Final Energy:  -321.73205090361034
    Total Energy =                       -321.7320509036103431
  Basis Set: 6-31G*
  Basis Set:
  Charge       = 0
  Multiplicity = 1
  Basis Set: 6-31G*
  Basis Set:

    Orbital Energies (a.u.)
    -----------------------

    Doubly Occupied:

       1A    -20.601774     2A    -20.600174     3A    -15.847111
       4A    -11.299614     5A    -11.258252     6A    -11.231835
       7A     -1.630850     8A     -1.416170     9A     -1.133285
      10A     -1.024474    11A     -0.887508    12A     -0.830649
      13A     -0.760134    14A     -0.733020    15A     -0.722841
      16A     -0.649605    17A     -0.623126    18A     -0.592287
      19A     -0.530258    20A     -0.525208    21A     -0.515121
      22A     -0.481514    23A     -0.472060    24A     -0.449007

  @DF-RHF Final Energy:  -321.73205187297009

   => Energetics <=

    Nuclear Repulsion Energy =            250.4382431930986854
    One-Electron Energy =                -934.7088325479095374
    Two-Electron Energy =                 362.5385374818409900
    DFT Exchange-Correlation Energy =       0.0000000000000000
    Empirical Dispersion Energy =           0.0000000000000000
    PCM Polarization Energy =               0.0000000000000000
    EFP Energy =                            0.0000000000000000
    Total Energy =                       -321.7320518729699188
    Molecular point group: c1
  Basis Set: 6-31G*
  Basis Set:

  -Total Gradient:
     Atom            X                  Y                   Z
    ------   -----------------  -----------------  -----------------
       1       -0.000004003515    -0.000002546226    -0.000007770122
       2       -0.000077623053    -0.000005257935    -0.000029152559
       3        0.002303091662     0.002052724467     0.002906562477
       4        0.000003036913    -0.000023142138    -0.000005109045
       5        0.000003040684    -0.000003266317     0.000022707726
       6       -0.000352910893     0.003179891531     0.000487003129
       7       -0.001935248866    -0.002415409948    -0.002512465479
       8        0.000012421274     0.000000845854     0.000001790210
       9        0.000024931886    -0.002929592528    -0.000850895982
      10        0.000021237135     0.000020974302     0.000006076434
      11        0.000024430207     0.000025639226    -0.000000180280
      12       -0.000036845996     0.000127162273     0.000004488416
      13        0.000014442565    -0.000028022563    -0.000023054926

  **** Optimization is complete! (in 9 steps) ****
    Final optimized geometry and variables:
    Molecular point group: c1

    Geometry (in Angstrom), charge = 0, multiplicity = 1:

    H            2.728120097149     1.459009829724    -1.127779262040
    C            2.021825872249     1.283205098376    -0.323817181584
    C            1.484821502735    -0.143923018520    -0.386324339527
    H            2.534214842087     1.467208470746     0.615628841810
    H            1.217279207273     2.003460738971    -0.416368281536
    C            0.445352250110    -0.462253834575     0.702718517160
    H            2.284967876754    -0.871195672427    -0.304949865710
    H            1.032971379428    -0.329846632316    -1.355543294170
    N           -0.922814723871    -0.280205820063     0.154826436295
    H            0.490401265742    -1.491743982480     1.016639041986
    H            0.521726726501     0.197730928880     1.552428517417
    O           -1.479045862590    -1.247064100070    -0.265436626221
    O           -1.359107463534     0.831039947631     0.136716362321

  Mulliken Charges: (a.u.)
   Center  Symbol    Alpha    Beta     Spin     Total
       1     H     0.41166  0.41166  0.00000  0.17668
       2     C     3.24620  3.24620  0.00000 -0.49239
       3     C     3.17383  3.17383  0.00000 -0.34765
       4     H     0.41807  0.41807  0.00000  0.16387
       5     H     0.40213  0.40213  0.00000  0.19573
       6     C     3.08976  3.08976  0.00000 -0.17952
       7     H     0.40515  0.40515  0.00000  0.18971
       8     H     0.39769  0.39769  0.00000  0.20462
       9     N     3.22441  3.22441  0.00000  0.55117
      10     H     0.38524  0.38524  0.00000  0.22951
      11     H     0.38693  0.38693  0.00000  0.22614
      12     O     4.22815  4.22815  0.00000 -0.45630
      13     O     4.23078  4.23078  0.00000 -0.46157

   Total alpha = 24.00000, Total beta = 24.00000, Total charge =  0.00000
