  ==> Input File <==

--------------------------------------------------------------------------
set {
	reference rhf
	basis 6-31G*
}

set_num_threads( 4 )
memory 2 gb

molecule MOL {
0 1

H	 1.104027	 -0.878065	 -1.050897
O	 0.822702	 -0.161412	 -1.603272
C	 0.408990	 0.901609	 -0.795316
C	 -0.793441	 0.596080	 0.058728
H	 0.179660	 1.720760	 -1.467328
H	 1.223407	 1.242056	 -0.156686
C	 -1.530462	 -0.493172	 -0.025500
H	 -1.041549	 1.355811	 0.783803
H	 -1.092586	 -1.461565	 -0.186463
H	 -2.602122	 -0.450675	 0.050101

	symmetry c1
}
set optking {
	frozen_dihedral = ("
		3 4 7 9
	")
}

ee = optimize('scf')
oeprop('DIPOLE', 'QUADRUPOLE', 'MULLIKEN_CHARGES')
f=open( 'psi4out.xyz', 'w' )
f.write( "10  " )
f.write( str(ee) + "\n" )
f.write( MOL.save_string_xyz() )
f.close()
--------------------------------------------------------------------------

    Molecular point group: c1
  Charge       = 0
  Multiplicity = 1
  Basis Set: 6-31G*
  Basis Set:
  @DF-RHF Final Energy:  -191.87848663668103
    Total Energy =                       -191.8784866366809467
    Molecular point group: c1
  Basis Set: 6-31G*
  Basis Set:
  Basis Set: 6-31G*
  Basis Set:
  @DF-RHF Final Energy:  -191.89506906921201
    Total Energy =                       -191.8950690692119849
  Basis Set: 6-31G*
  Basis Set:
  Basis Set: 6-31G*
  Basis Set:
  @DF-RHF Final Energy:  -191.90265055383529
    Total Energy =                       -191.9026505538351444
  Basis Set: 6-31G*
  Basis Set:
  Basis Set: 6-31G*
  Basis Set:
  @DF-RHF Final Energy:  -191.90339541429103
    Total Energy =                       -191.9033954142911398
  Basis Set: 6-31G*
  Basis Set:
  Basis Set: 6-31G*
  Basis Set:
  @DF-RHF Final Energy:  -191.90341432655291
    Total Energy =                       -191.9034143265530190
  Basis Set: 6-31G*
  Basis Set:
  Charge       = 0
  Multiplicity = 1
  Basis Set: 6-31G*
  Basis Set:

    Orbital Energies (a.u.)
    -----------------------

    Doubly Occupied:

       1A    -20.559872     2A    -11.279692     3A    -11.232237
       4A    -11.221334     5A     -1.368051     6A     -1.058033
       7A     -0.928958     8A     -0.768682     9A     -0.688528
      10A     -0.656006    11A     -0.612769    12A     -0.570625
      13A     -0.541613    14A     -0.488059    15A     -0.446078
      16A     -0.360371

  @DF-RHF Final Energy:  -191.90341595297559

   => Energetics <=

    Nuclear Repulsion Energy =            118.7898537959971605
    One-Electron Energy =                -495.8247223961675445
    Two-Electron Energy =                 185.1314526471947488
    DFT Exchange-Correlation Energy =       0.0000000000000000
    Empirical Dispersion Energy =           0.0000000000000000
    PCM Polarization Energy =               0.0000000000000000
    EFP Energy =                            0.0000000000000000
    Total Energy =                       -191.9034159529756494
    Molecular point group: c1
  Basis Set: 6-31G*
  Basis Set:

  -Total Gradient:
     Atom            X                  Y                   Z
    ------   -----------------  -----------------  -----------------
       1       -0.000013822522     0.000030845385     0.000015719526
       2        0.000019051329     0.000046055966    -0.000017268271
       3       -0.009589445910     0.010153252764    -0.008952056905
       4        0.017135269290    -0.020175035575     0.024336037384
       5        0.000015926280    -0.000016503709    -0.000013343327
       6        0.000006135618    -0.000025918264    -0.000013219965
       7       -0.010140107414     0.016862932602    -0.036537013875
       8       -0.000044133299    -0.000011169219     0.000059129084
       9        0.002641404705    -0.006881403232     0.021184515111
      10       -0.000030278076     0.000016943282    -0.000062498760

  **** Optimization is complete! (in 6 steps) ****
    Final optimized geometry and variables:
    Molecular point group: c1

    Geometry (in Angstrom), charge = 0, multiplicity = 1:

    H            1.472529946114    -1.016527713631    -0.345810525392
    O            1.105852731263    -0.356618949214    -0.917790011480
    C            0.619325292257     0.703016886793    -0.145278302070
    C           -0.567296501558     0.355675176279     0.716392779941
    H            0.295802778202     1.465624000095    -0.842766455920
    H            1.416495326241     1.141967395499     0.453975367678
    C           -1.424601307184    -0.629627942391     0.503575585701
    H           -0.903212299964     1.192099626466     1.313506229010
    H           -1.129294995140    -1.603358305243     0.152534544484
    H           -2.360020288421    -0.628796466440     1.038403871101

  Mulliken Charges: (a.u.)
   Center  Symbol    Alpha    Beta     Spin     Total
       1     H     0.28088  0.28088  0.00000  0.43824
       2     O     4.36631  4.36631  0.00000 -0.73263
       3     C     2.99977  2.99977  0.00000  0.00046
       4     C     3.09850  3.09850  0.00000 -0.19699
       5     H     0.40508  0.40508  0.00000  0.18984
       6     H     0.42714  0.42714  0.00000  0.14571
       7     C     3.18069  3.18069  0.00000 -0.36137
       8     H     0.41502  0.41502  0.00000  0.16996
       9     H     0.41127  0.41127  0.00000  0.17746
      10     H     0.41534  0.41534  0.00000  0.16933

   Total alpha = 16.00000, Total beta = 16.00000, Total charge = -0.00000
