  ==> Input File <==

--------------------------------------------------------------------------
set {
	reference rhf
	basis 6-31G*
}

set_num_threads( 4 )
memory 2 gb

molecule MOL {
0 1

H	 -2.027890	 0.204869	 -0.057480
N	 -1.172117	 -0.314371	 -0.100254
C	 -0.024542	 0.565565	 0.069209
H	 -1.206682	 -0.991767	 0.637999
C	 1.271298	 -0.229563	 -0.014192
H	 -0.049409	 1.297310	 -0.731596
H	 -0.046881	 1.125219	 1.006750
H	 1.332152	 -0.753033	 -0.961461
H	 2.134169	 0.422483	 0.080702
H	 1.326077	 -0.968298	 0.781395

	symmetry c1
}
set optking {
	frozen_dihedral = ("
		1 2 3 6
	")
}

ee = optimize('scf')
oeprop('DIPOLE', 'QUADRUPOLE', 'MULLIKEN_CHARGES')
f=open( 'psi4out.xyz', 'w' )
f.write( "10  " )
f.write( str(ee) + "\n" )
f.write( MOL.save_string_xyz() )
f.close()
--------------------------------------------------------------------------

    Molecular point group: c1
  Charge       = 0
  Multiplicity = 1
  Basis Set: 6-31G*
  Basis Set:
  @DF-RHF Final Energy:  -134.24767083625704
    Total Energy =                       -134.2476708362571003
    Molecular point group: c1
  Basis Set: 6-31G*
  Basis Set:
  Basis Set: 6-31G*
  Basis Set:
  @DF-RHF Final Energy:  -134.24767274886506
    Total Energy =                       -134.2476727488650852
  Basis Set: 6-31G*
  Basis Set:
  Charge       = 0
  Multiplicity = 1
  Basis Set: 6-31G*
  Basis Set:

    Orbital Energies (a.u.)
    -----------------------

    Doubly Occupied:

       1A    -15.533195     2A    -11.242597     3A    -11.207086
       4A     -1.176663     5A     -0.987423     6A     -0.824093
       7A     -0.661158     8A     -0.631343     9A     -0.581875
      10A     -0.516236    11A     -0.507108    12A     -0.488520
      13A     -0.382570

  @DF-RHF Final Energy:  -134.24767297840532

   => Energetics <=

    Nuclear Repulsion Energy =             83.3666791080566867
    One-Electron Energy =                -345.7489708571478104
    Two-Electron Energy =                 128.1346187706858188
    DFT Exchange-Correlation Energy =       0.0000000000000000
    Empirical Dispersion Energy =           0.0000000000000000
    PCM Polarization Energy =               0.0000000000000000
    EFP Energy =                            0.0000000000000000
    Total Energy =                       -134.2476729784052907
    Molecular point group: c1
  Basis Set: 6-31G*
  Basis Set:

  -Total Gradient:
     Atom            X                  Y                   Z
    ------   -----------------  -----------------  -----------------
       1       -0.000006084086    -0.000081450407     0.000408243928
       2        0.000076685299     0.000038543976    -0.000529685608
       3       -0.000290349240     0.000237766407     0.000305956978
       4       -0.000015377221     0.000011969673    -0.000001083595
       5       -0.000002295569     0.000019642059     0.000018410722
       6        0.000214954625    -0.000205941817    -0.000223444320
       7        0.000012953411    -0.000010971204     0.000015569079
       8       -0.000003010303     0.000012295214    -0.000002969684
       9        0.000003156691    -0.000010227270     0.000001055505
      10        0.000009366393    -0.000011626631     0.000007946995

  **** Optimization is complete! (in 3 steps) ****
    Final optimized geometry and variables:
    Molecular point group: c1

    Geometry (in Angstrom), charge = 0, multiplicity = 1:

    H           -2.027955495900     0.205043069642    -0.060433071921
    N           -1.172128892155    -0.314295977578    -0.101644348319
    C           -0.025404649556     0.566313743011     0.069829175714
    H           -1.208935108882    -0.988017574871     0.640039581322
    C            1.270718658535    -0.228468519217    -0.014634369042
    H           -0.048710705066     1.298256370523    -0.730977573191
    H           -0.047888566438     1.124134612133     1.008451709505
    H            1.330856003234    -0.752316646388    -0.961815574113
    H            2.133399615812     0.424022386708     0.078535348322
    H            1.327463082158    -0.966849018677     0.781286651140

  Mulliken Charges: (a.u.)
   Center  Symbol    Alpha    Beta     Spin     Total
       1     H     0.33282  0.33282  0.00000  0.33437
       2     N     3.91843  3.91843  0.00000 -0.83686
       3     C     3.06268  3.06268  0.00000 -0.12537
       4     H     0.33574  0.33574  0.00000  0.32852
       5     C     3.23887  3.23887  0.00000 -0.47774
       6     H     0.41944  0.41944  0.00000  0.16111
       7     H     0.43407  0.43407  0.00000  0.13186
       8     H     0.41136  0.41136  0.00000  0.17728
       9     H     0.42141  0.42141  0.00000  0.15718
      10     H     0.42519  0.42519  0.00000  0.14963

   Total alpha = 13.00000, Total beta = 13.00000, Total charge =  0.00000
