                              Psi4 1.0.54 Driver

  ==> Input File <==

--------------------------------------------------------------------------
set {
	reference rhf
	basis cc-pvtz
}

set_num_threads( 4 )
memory 2 gb

molecule MOL {
0 1

O	 0.749630	 1.305591	 -0.000460
C	 0.576499	 0.134701	 -0.003900
C	 -0.765656	 -0.550508	 -0.002152
O	 1.564816	 -0.744612	 -0.000631
C	 -1.945526	 0.411052	 0.000603
H	 -0.794329	 -1.203792	 -0.868145
H	 -0.791555	 -1.205429	 0.862701
C	 -1.503872	 1.861208	 0.164658
H	 -2.625967	 0.139400	 0.798474
H	 -2.501986	 0.296390	 -0.921668
H	 -0.970725	 2.008290	 1.098163
H	 -2.357967	 2.527529	 0.164367
H	 -0.846069	 2.167317	 -0.642139
C	 2.884339	 -0.237801	 0.002883
H	 3.064150	 0.362814	 -0.876312
H	 3.533055	 -1.098529	 0.004958
H	 3.059365	 0.363432	 0.882614

	symmetry c1
}
set optking {
	frozen_dihedral = ("
		9 5 3 6
	")
}

ee,wfn = optimize('scf', return_wfn=True)
oeprop( wfn, 'DIPOLE', 'QUADRUPOLE', 'MULLIKEN_CHARGES')
f=open( 'psi4out.xyz', 'w' )
f.write( "17  " )
f.write( str(ee) + "\n" )
f.write( MOL.save_string_xyz() )
f.close()
--------------------------------------------------------------------------

    Molecular point group: c1
  Charge       = 0
  Multiplicity = 1
  Basis Set: CC-PVTZ
  Basis Set:
  @DF-RHF Final Energy:  -344.99805814766700
    Total Energy =                       -344.9980581476669954
    Molecular point group: c1
  Basis Set: CC-PVTZ
  Basis Set:
  Basis Set: CC-PVTZ
  Basis Set:
  @DF-RHF Final Energy:  -345.01733687459136
    Total Energy =                       -345.0173368745913649
  Basis Set: CC-PVTZ
  Basis Set:
  Basis Set: CC-PVTZ
  Basis Set:
  @DF-RHF Final Energy:  -345.02069134502574
    Total Energy =                       -345.0206913450258526
  Basis Set: CC-PVTZ
  Basis Set:
  Basis Set: CC-PVTZ
  Basis Set:
  @DF-RHF Final Energy:  -345.01840002054132
    Total Energy =                       -345.0184000205414350
  Basis Set: CC-PVTZ
  Basis Set:
  @DF-RHF Final Energy:  -345.02245438159019
    Total Energy =                       -345.0224543815905349
  @DF-RHF Final Energy:  -345.02266016988773
    Total Energy =                       -345.0226601698877289
  @DF-RHF Final Energy:  -345.02275471280484
    Total Energy =                       -345.0227547128048400
  @DF-RHF Final Energy:  -345.02289945224948
    Total Energy =                       -345.0228994522497601
  @DF-RHF Final Energy:  -345.02277995714513
    Total Energy =                       -345.0227799571448486
  @DF-RHF Final Energy:  -345.02337179548289
    Total Energy =                       -345.0233717954827739
  @DF-RHF Final Energy:  -345.02365078761113
    Total Energy =                       -345.0236507876111887
  @DF-RHF Final Energy:  -345.02446208196380
    Total Energy =                       -345.0244620819637476
  @DF-RHF Final Energy:  -345.02493389546663
    Total Energy =                       -345.0249338954668019
  @DF-RHF Final Energy:  -345.02515708393554
    Total Energy =                       -345.0251570839359943
  @DF-RHF Final Energy:  -345.02541124860380
    Total Energy =                       -345.0254112486035751
  @DF-RHF Final Energy:  -345.02563630734454
    Total Energy =                       -345.0256363073443140
  @DF-RHF Final Energy:  -345.02577797534371
    Total Energy =                       -345.0257779753436580
  @DF-RHF Final Energy:  -345.02583435363164
    Total Energy =                       -345.0258343536318080
  @DF-RHF Final Energy:  -345.02594622897465
    Total Energy =                       -345.0259462289745898
  @DF-RHF Final Energy:  -345.02603659827264
    Total Energy =                       -345.0260365982724693
  @DF-RHF Final Energy:  -345.02605420936106
    Total Energy =                       -345.0260542093608365
  Basis Set: CC-PVTZ
  Basis Set:
  @DF-RHF Final Energy:  -345.02610168022147
    Total Energy =                       -345.0261016802213589
  Basis Set: CC-PVTZ
  Basis Set:
  Basis Set: CC-PVTZ
  Basis Set:
  @DF-RHF Final Energy:  -345.02610418608350
    Total Energy =                       -345.0261041860840123
  Basis Set: CC-PVTZ
  Basis Set:
  Basis Set: CC-PVTZ
  Basis Set:
  @DF-RHF Final Energy:  -345.02610867600271
    Total Energy =                       -345.0261086760025933
  Basis Set: CC-PVTZ
  Basis Set:
  Charge       = 0
  Multiplicity = 1
  Basis Set: CC-PVTZ
  Basis Set:

    Orbital Energies (a.u.)
    -----------------------

    Doubly Occupied:

       1A    -20.597918     2A    -20.531712     3A    -11.363819
       4A    -11.278535     5A    -11.232630     6A    -11.231392
       7A    -11.212351     8A     -1.472182     9A     -1.364425
      10A     -1.079174    11A     -0.997913    12A     -0.944452
      13A     -0.835752    14A     -0.771127    15A     -0.691222
      16A     -0.682737    17A     -0.675616    18A     -0.634638
      19A     -0.607462    20A     -0.581332    21A     -0.554388
      22A     -0.540895    23A     -0.528588    24A     -0.503284
      25A     -0.484840    26A     -0.478486    27A     -0.458460
      28A     -0.435020

  @DF-RHF Final Energy:  -345.02610876168842

   => Energetics <=

    Nuclear Repulsion Energy =            322.9379376460519779
    One-Electron Energy =               -1110.3873942876077763
    Two-Electron Energy =                 442.4233478798676629
    DFT Exchange-Correlation Energy =       0.0000000000000000
    Empirical Dispersion Energy =           0.0000000000000000
    PCM Polarization Energy =               0.0000000000000000
    EFP Energy =                            0.0000000000000000
    Total Energy =                       -345.0261087616881355
    Molecular point group: c1
  Basis Set: CC-PVTZ
  Basis Set:

  -Total Gradient:
     Atom            X                  Y                   Z
    ------   -----------------  -----------------  -----------------
       1        0.000008373162     0.000008462060     0.000003270824
       2       -0.000017797011    -0.000013748451    -0.000023291113
       3       -0.001646497721    -0.001725437672     0.000718758998
       4       -0.000011618329    -0.000004320277     0.000006957391
       5       -0.000587648558    -0.000325812397    -0.002313679087
       6        0.001480008656     0.001501759472    -0.000247079587
       7       -0.000002325061    -0.000004144972    -0.000004492914
       8        0.000000411774     0.000000588057    -0.000008772074
       9        0.000767234904     0.000557858600     0.001866900369
      10       -0.000003860378    -0.000000366745    -0.000003661045
      11        0.000000924764     0.000000567270    -0.000000024386
      12       -0.000001569048    -0.000000949571    -0.000000494223
      13        0.000001931932     0.000000860069     0.000002089764
      14        0.000017010127     0.000004456030    -0.000002679626
      15       -0.000002014099    -0.000002333271     0.000001551209
      16       -0.000001201921    -0.000000538214     0.000001762750
      17       -0.000001363191     0.000003100012     0.000002882752

  **** Optimization is complete! (in 25 steps) ****
    Final optimized geometry and variables:
    Molecular point group: c1

    Geometry (in Angstrom), charge = 0, multiplicity = 1:

    O            1.248064437081     0.175785526850    -1.008306646993
    C            0.456254114679    -0.367636471136    -0.314630388916
    C           -0.912708769743    -0.810172764753    -0.766856490504
    O            0.684760105992    -0.649819249637     0.957231957051
    C           -2.007761935442     0.288173429858    -0.645616071525
    H           -0.796753871330    -1.093396962578    -1.802654088441
    H           -1.193726341979    -1.683248559468    -0.196603188942
    C           -1.620828509173     1.548384724490     0.127205409184
    H           -2.869320566476    -0.151664923773    -0.158931667279
    H           -2.321711199739     0.573945833212    -1.640913178093
    H           -1.346213260096     1.319473950405     1.150104131076
    H           -2.460103001181     2.232897171606     0.156682765103
    H           -0.790274980675     2.063655088802    -0.339115726648
    C            1.933200077226    -0.258894264778     1.492924556092
    H            2.741931481742    -0.736019599284     0.959878058488
    H            1.927399463404    -0.575833162447     2.523199603603
    H            2.055094197739     0.812449482200     1.432654698643

  Mulliken Charges: (a.u.)
   Center  Symbol    Alpha    Beta     Spin     Total
       1     O     4.20670  4.20670  0.00000 -0.41340
       2     C     2.79357  2.79357  0.00000  0.41285
       3     C     3.09253  3.09253  0.00000 -0.18507
       4     O     4.15242  4.15242  0.00000 -0.30484
       5     C     3.08602  3.08602  0.00000 -0.17203
       6     H     0.43785  0.43785  0.00000  0.12431
       7     H     0.44177  0.44177  0.00000  0.11645
       8     C     3.16132  3.16132  0.00000 -0.32265
       9     H     0.44991  0.44991  0.00000  0.10018
      10     H     0.44763  0.44763  0.00000  0.10474
      11     H     0.44989  0.44989  0.00000  0.10022
      12     H     0.44584  0.44584  0.00000  0.10833
      13     H     0.44539  0.44539  0.00000  0.10922
      14     C     3.04032  3.04032  0.00000 -0.08064
      15     H     0.45022  0.45022  0.00000  0.09956
      16     H     0.44502  0.44502  0.00000  0.10996
      17     H     0.45360  0.45360  0.00000  0.09281

   Total alpha = 28.00000, Total beta = 28.00000, Total charge =  0.00000

*** Psi4 exiting successfully. Buy a developer a beer!
