  ==> Input File <==

--------------------------------------------------------------------------
set {
	reference rhf
	basis 6-31G*
}

set_num_threads( 4 )
memory 2 gb

molecule MOL {
0 1

O	 0.625848	 1.349995	 -0.000749
C	 0.486307	 0.169203	 0.000779
C	 1.608116	 -0.841643	 0.000302
O	 -0.698257	 -0.426125	 0.001050
C	 2.990107	 -0.200498	 -0.000684
H	 1.468623	 -1.481519	 -0.865924
H	 1.469683	 -1.481289	 0.866878
H	 3.129736	 0.423364	 -0.875135
H	 3.757882	 -0.966877	 -0.001197
H	 3.130964	 0.423383	 0.873533
C	 -1.002846	 -1.285533	 -1.092587
C	 -2.393440	 -1.838114	 -0.861909
H	 -0.262620	 -2.072603	 -1.139198
H	 -0.944927	 -0.719735	 -2.012429
H	 -2.436212	 -2.397387	 0.065745
H	 -2.667044	 -2.501584	 -1.675910
H	 -3.122352	 -1.037187	 -0.812308

	symmetry c1
}
set optking {
	frozen_dihedral = ("
		11 4 2 3
	")
}

ee = optimize('scf')
oeprop('DIPOLE', 'QUADRUPOLE', 'MULLIKEN_CHARGES')
f=open( 'psi4out.xyz', 'w' )
f.write( "17  " )
f.write( str(ee) + "\n" )
f.write( MOL.save_string_xyz() )
f.close()
--------------------------------------------------------------------------

    Molecular point group: c1
  Charge       = 0
  Multiplicity = 1
  Basis Set: 6-31G*
  Basis Set:
  @DF-RHF Final Energy:  -344.88705328751706
    Total Energy =                       -344.8870532875170056
    Molecular point group: c1
  Basis Set: 6-31G*
  Basis Set:
  Basis Set: 6-31G*
  Basis Set:
  @DF-RHF Final Energy:  -344.88942622286493
    Total Energy =                       -344.8894262228650405
  Basis Set: 6-31G*
  Basis Set:
  Basis Set: 6-31G*
  Basis Set:
  @DF-RHF Final Energy:  -344.89219026921882
    Total Energy =                       -344.8921902692189860
  Basis Set: 6-31G*
  Basis Set:
  Basis Set: 6-31G*
  Basis Set:
  @DF-RHF Final Energy:  -344.89244826428268
    Total Energy =                       -344.8924482642829048
  Basis Set: 6-31G*
  Basis Set:
  Basis Set: 6-31G*
  Basis Set:
  @DF-RHF Final Energy:  -344.89248834931362
    Total Energy =                       -344.8924883493133393
  Basis Set: 6-31G*
  Basis Set:
  Basis Set: 6-31G*
  Basis Set:
  @DF-RHF Final Energy:  -344.89246429708186
    Total Energy =                       -344.8924642970818013
  Basis Set: 6-31G*
  Basis Set:
  Basis Set: 6-31G*
  Basis Set:
  @DF-RHF Final Energy:  -344.89249577309101
    Total Energy =                       -344.8924957730907863
  Basis Set: 6-31G*
  Basis Set:
  Charge       = 0
  Multiplicity = 1
  Basis Set: 6-31G*
  Basis Set:

    Orbital Energies (a.u.)
    -----------------------

    Doubly Occupied:

       1A    -20.587636     2A    -20.550880     3A    -11.373371
       4A    -11.298675     5A    -11.244085     6A    -11.225805
       7A    -11.219439     8A     -1.457876     9A     -1.366440
      10A     -1.063720    11A     -1.041527    12A     -0.901502
      13A     -0.873469    14A     -0.770243    15A     -0.702405
      16A     -0.687609    17A     -0.655060    18A     -0.638593
      19A     -0.600705    20A     -0.562912    21A     -0.559454
      22A     -0.537142    23A     -0.526924    24A     -0.517889
      25A     -0.509006    26A     -0.485670    27A     -0.450877
      28A     -0.433303

  @DF-RHF Final Energy:  -344.89249616925719

   => Energetics <=

    Nuclear Repulsion Energy =            314.5787810206210793
    One-Electron Energy =               -1093.2581168865954169
    Two-Electron Energy =                 433.7868396967172657
    DFT Exchange-Correlation Energy =       0.0000000000000000
    Empirical Dispersion Energy =           0.0000000000000000
    PCM Polarization Energy =               0.0000000000000000
    EFP Energy =                            0.0000000000000000
    Total Energy =                       -344.8924961692570150
    Molecular point group: c1
  Basis Set: 6-31G*
  Basis Set:

  -Total Gradient:
     Atom            X                  Y                   Z
    ------   -----------------  -----------------  -----------------
       1       -0.000008526630     0.000048932946     0.000039931227
       2       -0.000807194735     0.001013035602    -0.004257371736
       3        0.000130707561     0.000016727546     0.002358561221
       4        0.001854674999    -0.003113933856     0.003111768434
       5       -0.000017015106    -0.000009275889     0.000018446643
       6        0.000000553255    -0.000021639475     0.000015848182
       7       -0.000004675188    -0.000006574729     0.000011607264
       8        0.000005011101     0.000005410764    -0.000002559974
       9       -0.000002988939    -0.000001216686    -0.000003494612
      10        0.000001315632    -0.000000045044    -0.000008147900
      11       -0.001153952048     0.002094507252    -0.001296779047
      12        0.000002184342    -0.000012734960     0.000005844366
      13       -0.000003263486     0.000011145269     0.000023763056
      14       -0.000001512206    -0.000017417360    -0.000020220556
      15       -0.000006017313    -0.000001693967     0.000003606883
      16        0.000000759436    -0.000003820418    -0.000000579466
      17        0.000009939325    -0.000001406997    -0.000000223986

  **** Optimization is complete! (in 8 steps) ****
    Final optimized geometry and variables:
    Molecular point group: c1

    Geometry (in Angstrom), charge = 0, multiplicity = 1:

    O            0.355869056146     1.722156181202     0.328207197993
    C            0.297749938309     0.545011894629     0.238548805378
    C            1.512778663429    -0.357602721161     0.182000875339
    O           -0.891911649575    -0.084042378752     0.286706185317
    C            2.825555313340     0.400753284989     0.338371896449
    H            1.502248477404    -0.902402616681    -0.758421064294
    H            1.392396808667    -1.105010444384     0.961185353869
    H            2.946280728806     1.134835519515    -0.448516521418
    H            3.662252936063    -0.288426169811     0.296451699490
    H            2.860835533249     0.925167505855     1.285200151981
    C           -1.277332861078    -0.953168153130    -0.765661347430
    C           -2.747846371736    -1.264633591814    -0.583374131960
    H           -0.688252796623    -1.863377207001    -0.735033614206
    H           -1.104186854751    -0.465747732511    -1.719419108301
    H           -2.916748514265    -1.740055735070     0.375770013058
    H           -3.087447265120    -1.934516736349    -1.366828135692
    H           -3.333931492964    -0.354685377910    -0.623125261628

  Mulliken Charges: (a.u.)
   Center  Symbol    Alpha    Beta     Spin     Total
       1     O     4.25448  4.25448  0.00000 -0.50897
       2     C     2.60998  2.60998  0.00000  0.78004
       3     C     3.22046  3.22046  0.00000 -0.44092
       4     O     4.31587  4.31587  0.00000 -0.63175
       5     C     3.23683  3.23683  0.00000 -0.47365
       6     H     0.40625  0.40625  0.00000  0.18749
       7     H     0.40004  0.40004  0.00000  0.19992
       8     H     0.40871  0.40871  0.00000  0.18257
       9     H     0.41861  0.41861  0.00000  0.16278
      10     H     0.40819  0.40819  0.00000  0.18363
      11     C     3.00411  3.00411  0.00000 -0.00823
      12     C     3.24536  3.24536  0.00000 -0.49072
      13     H     0.42092  0.42092  0.00000  0.15817
      14     H     0.41714  0.41714  0.00000  0.16573
      15     H     0.40926  0.40926  0.00000  0.18147
      16     H     0.41814  0.41814  0.00000  0.16372
      17     H     0.40564  0.40564  0.00000  0.18873

   Total alpha = 28.00000, Total beta = 28.00000, Total charge = -0.00000
