  ==> Input File <==

--------------------------------------------------------------------------
set {
	reference rhf
	basis cc-pvtz
}

set_num_threads( 4 )
memory 2 gb

molecule MOL {
0 1

O	 -2.071633	 -1.227563	 -0.223463
C	 -1.652164	 -0.152425	 0.058082
C	 -0.327811	 0.006324	 0.778296
C	 -2.402515	 1.108629	 -0.298924
C	 0.843231	 -0.001575	 -0.211665
H	 -0.319484	 0.928173	 1.350354
H	 -0.227804	 -0.823091	 1.466705
C	 2.197693	 0.138030	 0.476937
H	 0.722944	 0.805202	 -0.930230
H	 0.813976	 -0.926978	 -0.776588
C	 2.896056	 -1.200755	 0.689320
H	 2.836617	 0.789261	 -0.113147
H	 2.061045	 0.630300	 1.435340
H	 3.078336	 -1.702054	 -0.255406
H	 2.294418	 -1.862309	 1.303118
H	 3.851667	 -1.069004	 1.183133
H	 -3.240910	 0.874416	 -0.936711
H	 -1.747554	 1.818823	 -0.790984
H	 -2.760419	 1.579708	 0.610998

	symmetry c1
}
set optking {
	frozen_dihedral = ("
		11 8 5 9
	")
}

ee = optimize('scf')
oeprop('DIPOLE', 'QUADRUPOLE', 'MULLIKEN_CHARGES')
f=open( 'psi4out.xyz', 'w' )
f.write( "19  " )
f.write( str(ee) + "\n" )
f.write( MOL.save_string_xyz() )
f.close()
--------------------------------------------------------------------------

    Molecular point group: c1
  Charge       = 0
  Multiplicity = 1
  Basis Set: CC-PVTZ
  Basis Set:
  @DF-RHF Final Energy:  -309.17283118966401
    Total Energy =                       -309.1728311896643504
    Molecular point group: c1
  Basis Set: CC-PVTZ
  Basis Set:
  Basis Set: CC-PVTZ
  Basis Set:
  @DF-RHF Final Energy:  -309.17305199715724
    Total Energy =                       -309.1730519971570175
  Basis Set: CC-PVTZ
  Basis Set:
  Basis Set: CC-PVTZ
  Basis Set:
  @DF-RHF Final Energy:  -309.17301663978463
    Total Energy =                       -309.1730166397846915
  Basis Set: CC-PVTZ
  Basis Set:
  Basis Set: CC-PVTZ
  Basis Set:
  @DF-RHF Final Energy:  -309.17304313146093
    Total Energy =                       -309.1730431314609859
  Basis Set: CC-PVTZ
  Basis Set:
  Basis Set: CC-PVTZ
  Basis Set:
  @DF-RHF Final Energy:  -309.17316673922136
    Total Energy =                       -309.1731667392213581
  Basis Set: CC-PVTZ
  Basis Set:
  Basis Set: CC-PVTZ
  Basis Set:
  @DF-RHF Final Energy:  -309.17318025473782
    Total Energy =                       -309.1731802547377583
  Basis Set: CC-PVTZ
  Basis Set:
  Charge       = 0
  Multiplicity = 1
  Basis Set: CC-PVTZ
  Basis Set:

    Orbital Energies (a.u.)
    -----------------------

    Doubly Occupied:

       1A    -20.537062     2A    -11.319465     3A    -11.228709
       4A    -11.228106     5A    -11.227008     6A    -11.222716
       7A    -11.211951     8A     -1.397146     9A     -1.091169
      10A     -1.029215    11A     -0.983167    12A     -0.894225
      13A     -0.804235    14A     -0.736834    15A     -0.656163
      16A     -0.654499    17A     -0.619688    18A     -0.608134
      19A     -0.597101    20A     -0.577028    21A     -0.545315
      22A     -0.536603    23A     -0.522221    24A     -0.499928
      25A     -0.481110    26A     -0.476304    27A     -0.463993
      28A     -0.399259

  @DF-RHF Final Energy:  -309.17318070052391

   => Energetics <=

    Nuclear Repulsion Energy =            303.6244286772010241
    One-Electron Energy =               -1020.4985086678379957
    Two-Electron Energy =                 407.7008992901133979
    DFT Exchange-Correlation Energy =       0.0000000000000000
    Empirical Dispersion Energy =           0.0000000000000000
    PCM Polarization Energy =               0.0000000000000000
    EFP Energy =                            0.0000000000000000
    Total Energy =                       -309.1731807005236305
    Molecular point group: c1
  Basis Set: CC-PVTZ
  Basis Set:

  -Total Gradient:
     Atom            X                  Y                   Z
    ------   -----------------  -----------------  -----------------
       1        0.000002260249    -0.000004415957     0.000015998231
       2        0.000021254861     0.000011914122    -0.000047145228
       3       -0.000027335564     0.000000340867     0.000032380714
       4       -0.000013955384    -0.000001612016     0.000021301321
       5       -0.001308534935     0.002583651743     0.002206410964
       6       -0.000008208016    -0.000002709136     0.000002031769
       7       -0.000004156928     0.000000672312     0.000004976116
       8       -0.001210693639    -0.000779378611     0.002572448173
       9        0.001410191980    -0.002028849624    -0.002513281696
      10        0.000003382194     0.000009542687    -0.000006484254
      11        0.001128874247     0.000206057039    -0.002289940928
      12       -0.000006971074    -0.000004154413    -0.000001124146
      13        0.000007143296     0.000009772032    -0.000000249383
      14        0.000013687048     0.000003173442     0.000001084591
      15        0.000000868042    -0.000012565991    -0.000003163181
      16       -0.000013457909     0.000006078955     0.000006961982
      17        0.000002097157    -0.000001418918     0.000000470668
      18        0.000003108425    -0.000001657921    -0.000000714388
      19        0.000000445952     0.000005559388    -0.000001961325

  **** Optimization is complete! (in 7 steps) ****
    Final optimized geometry and variables:
    Molecular point group: c1

    Geometry (in Angstrom), charge = 0, multiplicity = 1:

    O           -1.983878298427    -1.042893301483    -0.390857739795
    C           -1.581475405812     0.041363866573    -0.119458936005
    C           -0.260731497471     0.228249166694     0.600704174881
    C           -2.350964771197     1.287111842691    -0.489115711564
    C            0.912525744194     0.236534654276    -0.386978555080
    H           -0.269014521382     1.153876148438     1.166198671083
    H           -0.147809850733    -0.594637170478     1.295086110113
    C            2.284521394341     0.332895663629     0.301223187756
    H            0.799514554973     1.046284384138    -1.100497833099
    H            0.869372437701    -0.674317140224    -0.974134210930
    C            2.955679153405    -1.022645435511     0.504716607882
    H            2.941487014850     0.952209982212    -0.300057376988
    H            2.183800838005     0.841750312148     1.254718368317
    H            3.149117479713    -1.502358231404    -0.448058749859
    H            2.333741829711    -1.692196812470     1.089545960043
    H            3.902143496733    -0.915902247701     1.022122855132
    H           -3.184231320011     1.033851766739    -1.126340467807
    H           -1.706278056568     2.003229378388    -0.986075264019
    H           -2.718336768382     1.760381490290     0.415900560576

  Mulliken Charges: (a.u.)
   Center  Symbol    Alpha    Beta     Spin     Total
       1     O     4.17705  4.17705  0.00000 -0.35409
       2     C     2.85845  2.85845  0.00000  0.28310
       3     C     3.09833  3.09833  0.00000 -0.19666
       4     C     3.15520  3.15520  0.00000 -0.31040
       5     C     3.10710  3.10710  0.00000 -0.21420
       6     H     0.44880  0.44880  0.00000  0.10240
       7     H     0.43887  0.43887  0.00000  0.12226
       8     C     3.09057  3.09057  0.00000 -0.18115
       9     H     0.44467  0.44467  0.00000  0.11067
      10     H     0.44291  0.44291  0.00000  0.11418
      11     C     3.14607  3.14607  0.00000 -0.29214
      12     H     0.44770  0.44770  0.00000  0.10460
      13     H     0.45413  0.45413  0.00000  0.09174
      14     H     0.45327  0.45327  0.00000  0.09346
      15     H     0.45296  0.45296  0.00000  0.09409
      16     H     0.44850  0.44850  0.00000  0.10299
      17     H     0.43617  0.43617  0.00000  0.12766
      18     H     0.45088  0.45088  0.00000  0.09824
      19     H     0.44838  0.44838  0.00000  0.10324

   Total alpha = 28.00000, Total beta = 28.00000, Total charge = -0.00000
