  ==> Input File <==

--------------------------------------------------------------------------
set {
	reference rhf
	basis 6-31G*
}

set_num_threads( 4 )
memory 2 gb

molecule MOL {
0 1

O	 1.712248	 -0.518509	 0.258641
C	 0.861134	 0.272526	 -0.014869
C	 -0.623889	 -0.118271	 -0.003699
C	 1.246442	 1.693334	 -0.387492
C	 -0.895332	 -1.256461	 -1.002431
C	 -1.473649	 1.103340	 -0.370799
C	 -0.983900	 -0.581483	 1.422328
H	 -0.615301	 -0.972064	 -2.012700
H	 -1.954261	 -1.493213	 -1.010207
H	 -0.360539	 -2.164946	 -0.747760
H	 -1.227476	 1.468527	 -1.361691
H	 -2.526716	 0.838935	 -0.358521
H	 -1.314819	 1.915855	 0.325860
H	 -2.039679	 -0.828001	 1.472951
H	 -0.427637	 -1.464071	 1.720694
H	 -0.789023	 0.202493	 2.147048
H	 1.088815	 2.346341	 0.465852
H	 2.296448	 1.711487	 -0.644931
H	 0.660197	 2.084736	 -1.209893

	symmetry c1
}
set optking {
	frozen_dihedral = ("
		1 2 3 5
	")
}

ee = optimize('scf')
oeprop('DIPOLE', 'QUADRUPOLE', 'MULLIKEN_CHARGES')
f=open( 'psi4out.xyz', 'w' )
f.write( "19  " )
f.write( str(ee) + "\n" )
f.write( MOL.save_string_xyz() )
f.close()
--------------------------------------------------------------------------

    Molecular point group: c1
  Charge       = 0
  Multiplicity = 1
  Basis Set: 6-31G*
  Basis Set:
  @DF-RHF Final Energy:  -309.05774071294775
    Total Energy =                       -309.0577407129474636
    Molecular point group: c1
  Basis Set: 6-31G*
  Basis Set:
  Basis Set: 6-31G*
  Basis Set:
  @DF-RHF Final Energy:  -309.05886693530044
    Total Energy =                       -309.0588669353004434
  Basis Set: 6-31G*
  Basis Set:
  Basis Set: 6-31G*
  Basis Set:
  @DF-RHF Final Energy:  -309.06106068297140
    Total Energy =                       -309.0610606829714015
  Basis Set: 6-31G*
  Basis Set:
  Basis Set: 6-31G*
  Basis Set:
  @DF-RHF Final Energy:  -309.06109385482989
    Total Energy =                       -309.0610938548300055
  Basis Set: 6-31G*
  Basis Set:
  @DF-RHF Final Energy:  -309.06150473372497
    Total Energy =                       -309.0615047337248598
  @DF-RHF Final Energy:  -309.06167190016021
    Total Energy =                       -309.0616719001600359
  @DF-RHF Final Energy:  -309.06176164060673
    Total Energy =                       -309.0617616406068464
  Basis Set: 6-31G*
  Basis Set:
  @DF-RHF Final Energy:  -309.06172342120448
    Total Energy =                       -309.0617234212043627
  Basis Set: 6-31G*
  Basis Set:
  Basis Set: 6-31G*
  Basis Set:
  @DF-RHF Final Energy:  -309.06180923956009
    Total Energy =                       -309.0618092395602616
  Basis Set: 6-31G*
  Basis Set:
  Basis Set: 6-31G*
  Basis Set:
  @DF-RHF Final Energy:  -309.06181126745821
    Total Energy =                       -309.0618112674580971
  Basis Set: 6-31G*
  Basis Set:
  Charge       = 0
  Multiplicity = 1
  Basis Set: 6-31G*
  Basis Set:

    Orbital Energies (a.u.)
    -----------------------

    Doubly Occupied:

       1A    -20.547321     2A    -11.323642     3A    -11.246218
       4A    -11.227747     5A    -11.222065     6A    -11.216588
       7A    -11.215870     8A     -1.394554     9A     -1.107545
      10A     -1.003737    11A     -0.940970    12A     -0.939261
      13A     -0.833271    14A     -0.703957    15A     -0.664719
      16A     -0.630791    17A     -0.622704    18A     -0.586782
      19A     -0.584537    20A     -0.573217    21A     -0.552551
      22A     -0.545994    23A     -0.522638    24A     -0.513941
      25A     -0.499906    26A     -0.471525    27A     -0.459740
      28A     -0.391829

  @DF-RHF Final Energy:  -309.06181192592766

   => Energetics <=

    Nuclear Repulsion Energy =            326.1352937779983563
    One-Electron Energy =               -1065.3069733584309233
    Two-Electron Energy =                 430.1098676545050807
    DFT Exchange-Correlation Energy =       0.0000000000000000
    Empirical Dispersion Energy =           0.0000000000000000
    PCM Polarization Energy =               0.0000000000000000
    EFP Energy =                            0.0000000000000000
    Total Energy =                       -309.0618119259274295
    Molecular point group: c1
  Basis Set: 6-31G*
  Basis Set:

  -Total Gradient:
     Atom            X                  Y                   Z
    ------   -----------------  -----------------  -----------------
       1       -0.000008074141    -0.000039280425    -0.000136691445
       2        0.000014697302     0.000028416766     0.000237138410
       3       -0.000024075159     0.000086091527    -0.000155265781
       4       -0.000012441932    -0.000001809969    -0.000002232539
       5        0.000015744403    -0.000081998356     0.000073691100
       6       -0.000001043319    -0.000004961472     0.000004542137
       7        0.000014117933     0.000006402312    -0.000026530647
       8        0.000006366333     0.000008855444     0.000007566756
       9       -0.000007571831     0.000001264195    -0.000003418615
      10       -0.000003755766    -0.000002853514     0.000010462187
      11        0.000002517791    -0.000003948400     0.000002847423
      12       -0.000001814215    -0.000002226559    -0.000002223355
      13        0.000002483586     0.000007605396     0.000008740025
      14       -0.000000650089     0.000001874032    -0.000005637556
      15        0.000005186107    -0.000003202072    -0.000002469373
      16        0.000005992076     0.000001037128    -0.000002495793
      17       -0.000003907098    -0.000003886563    -0.000002442954
      18        0.000000154723    -0.000002535578     0.000003836597
      19       -0.000003926704     0.000005156106    -0.000009416577

  **** Optimization is complete! (in 11 steps) ****
    Final optimized geometry and variables:
    Molecular point group: c1

    Geometry (in Angstrom), charge = 0, multiplicity = 1:

    O            1.686665249561    -0.666729092037     0.252972851970
    C            0.888208569975     0.180465285026    -0.013914728828
    C           -0.614793612501    -0.159458300898     0.022578546929
    C            1.356537836742     1.571118963627    -0.390598934092
    C           -0.851676718397    -1.290659074593    -0.993841744094
    C           -1.523955572036     1.030425196285    -0.315194113443
    C           -0.938597871385    -0.664989996540     1.439309497856
    H           -0.625810521132    -0.966878426075    -2.006358463300
    H           -1.891553369243    -1.601986874467    -0.970796643662
    H           -0.229232168352    -2.146349569913    -0.766907567892
    H           -1.345180475977     1.412913342723    -1.314875791594
    H           -2.561908424884     0.717295319056    -0.270301295527
    H           -1.403430777714     1.849977660122     0.385999420230
    H           -1.979191570458    -0.969067750847     1.498714380411
    H           -0.315431426027    -1.511393625019     1.696381988981
    H           -0.777782118471     0.111383583099     2.182461578621
    H            0.957416140949     2.314521174677     0.291589591926
    H            2.436579528398     1.593825650291    -0.356259787954
    H            1.021325761424     1.836545309462    -1.388020071764

  Mulliken Charges: (a.u.)
   Center  Symbol    Alpha    Beta     Spin     Total
       1     O     4.26785  4.26785  0.00000 -0.53569
       2     C     2.72774  2.72774  0.00000  0.54452
       3     C     3.06047  3.06047  0.00000 -0.12094
       4     C     3.28949  3.28949  0.00000 -0.57898
       5     C     3.23677  3.23677  0.00000 -0.47354
       6     C     3.24007  3.24007  0.00000 -0.48014
       7     C     3.23645  3.23645  0.00000 -0.47290
       8     H     0.42049  0.42049  0.00000  0.15902
       9     H     0.41795  0.41795  0.00000  0.16410
      10     H     0.40149  0.40149  0.00000  0.19701
      11     H     0.41838  0.41838  0.00000  0.16324
      12     H     0.41411  0.41411  0.00000  0.17177
      13     H     0.41835  0.41835  0.00000  0.16330
      14     H     0.41835  0.41835  0.00000  0.16329
      15     H     0.40122  0.40122  0.00000  0.19757
      16     H     0.42046  0.42046  0.00000  0.15908
      17     H     0.40744  0.40744  0.00000  0.18513
      18     H     0.39540  0.39540  0.00000  0.20919
      19     H     0.40751  0.40751  0.00000  0.18498

   Total alpha = 28.00000, Total beta = 28.00000, Total charge = -0.00000
