  ==> Input File <==

--------------------------------------------------------------------------
set {
	reference rhf
	basis 6-31G*
}

set_num_threads( 1 )
memory 2 gb

molecule MOL {
0 1

O	 -0.131698	 -0.605612	 -2.941090
C	 -0.758734	 0.017575	 -2.139280
C	 -0.889235	 -0.467034	 -0.705952
C	 -1.423781	 1.328169	 -2.496255
C	 0.379448	 -0.143569	 0.099626
H	 -1.035919	 -1.541277	 -0.734072
H	 -1.756367	 -0.019550	 -0.228598
C	 1.631333	 -0.777471	 -0.511575
H	 0.482768	 0.934507	 0.149241
H	 0.263088	 -0.495696	 1.123449
C	 2.915987	 -0.544314	 0.291766
H	 1.766672	 -0.399098	 -1.523130
H	 1.471257	 -1.849544	 -0.605828
C	 3.373361	 0.914346	 0.347591
H	 3.708709	 -1.142521	 -0.150311
H	 2.780642	 -0.921148	 1.303579
H	 3.506512	 1.320010	 -0.651625
H	 4.322697	 0.999599	 0.867103
H	 2.660624	 1.545032	 0.868198
H	 -2.503456	 1.217519	 -2.438611
H	 -1.146217	 1.623280	 -3.498578
H	 -1.143704	 2.105866	 -1.791594

	symmetry c1
}
set optking {
	frozen_dihedral = ("
		6 3 2 1,
		3 5 8 12,
		12 8 11 15
	")
}

ee = energy('scf')
oeprop('DIPOLE', 'QUADRUPOLE', 'MULLIKEN_CHARGES')
f=open( 'psi4out.xyz', 'w' )
f.write( "22  " )
f.write( str(ee) + "\n" )
f.write( MOL.save_string_xyz() )
f.close()
--------------------------------------------------------------------------

    Molecular point group: c1

    Geometry (in Angstrom), charge = 0, multiplicity = 1:

       Center              X                  Y                   Z               Mass
    ------------   -----------------  -----------------  -----------------  -----------------
           O         -0.781243427853    -0.585009087904    -1.926410903670    15.994914619560
           C         -1.408279427853     0.038177912096    -1.124600903670    12.000000000000
           C         -1.538780427853    -0.446431087904     0.308727096330    12.000000000000
           C         -2.073326427853     1.348771912096    -1.481575903670    12.000000000000
           C         -0.270097427853    -0.122966087904     1.114305096330    12.000000000000
           H         -1.685464427853    -1.520674087904     0.280607096330     1.007825032070
           H         -2.405912427853     0.001052912096     0.786081096330     1.007825032070
           C          0.981787572147    -0.756868087904     0.503104096330    12.000000000000
           H         -0.166777427853     0.955109912096     1.163920096330     1.007825032070
           H         -0.386457427853    -0.475093087904     2.138128096330     1.007825032070
           C          2.266441572147    -0.523711087904     1.306445096330    12.000000000000
           H          1.117126572147    -0.378495087904    -0.508450903670     1.007825032070
           H          0.821711572147    -1.828941087904     0.408851096330     1.007825032070
           C          2.723815572147     0.934948912096     1.362270096330    12.000000000000
           H          3.059163572147    -1.121918087904     0.864368096330     1.007825032070
           H          2.131096572147    -0.900545087904     2.318258096330     1.007825032070
           H          2.856966572147     1.340612912096     0.363054096330     1.007825032070
           H          3.673151572147     1.020201912096     1.881782096330     1.007825032070
           H          2.011078572147     1.565634912096     1.882877096330     1.007825032070
           H         -3.153001427853     1.238121912096    -1.423931903670     1.007825032070
           H         -1.795762427853     1.643882912096    -2.483898903670     1.007825032070
           H         -1.793249427853     2.126468912096    -0.776914903670     1.007825032070

  Charge       = 0
  Multiplicity = 1
  Basis Set: 6-31G*
  Basis Set:

    Orbital Energies (a.u.)
    -----------------------

    Doubly Occupied:

       1A    -20.548674     2A    -11.325706     3A    -11.229691
       4A    -11.229338     5A    -11.228709     6A    -11.213593
       7A    -11.208997     8A    -11.208012     9A     -1.395608
      10A     -1.092022    11A     -1.041494    12A     -0.999202
      13A     -0.932807    14A     -0.855992    15A     -0.782800
      16A     -0.732002    17A     -0.658963    18A     -0.645670
      19A     -0.625581    20A     -0.610520    21A     -0.597593
      22A     -0.578908    23A     -0.566933    24A     -0.542791
      25A     -0.531101    26A     -0.513102    27A     -0.508063
      28A     -0.485432    29A     -0.462644    30A     -0.455743
      31A     -0.450430    32A     -0.396341

  @DF-RHF Final Energy:  -348.09505914140328

   => Energetics <=

    Nuclear Repulsion Energy =            384.3453104799363587
    One-Electron Energy =               -1233.5715678856408886
    Two-Electron Energy =                 501.1311982643001102
    DFT Exchange-Correlation Energy =       0.0000000000000000
    Empirical Dispersion Energy =           0.0000000000000000
    PCM Polarization Energy =               0.0000000000000000
    EFP Energy =                            0.0000000000000000
    Total Energy =                       -348.0950591414043629

  Mulliken Charges: (a.u.)
   Center  Symbol    Alpha    Beta     Spin     Total
       1     O     4.26096  4.26096  0.00000 -0.52192
       2     C     2.73956  2.73956  0.00000  0.52087
       3     C     3.19998  3.19998  0.00000 -0.39996
       4     C     3.28879  3.28879  0.00000 -0.57757
       5     C     3.16513  3.16513  0.00000 -0.33027
       6     H     0.40136  0.40136  0.00000  0.19729
       7     H     0.41489  0.41489  0.00000  0.17023
       8     C     3.15566  3.15566  0.00000 -0.31133
       9     H     0.41929  0.41929  0.00000  0.16142
      10     H     0.41481  0.41481  0.00000  0.17038
      11     C     3.15331  3.15331  0.00000 -0.30661
      12     H     0.40595  0.40595  0.00000  0.18810
      13     H     0.41843  0.41843  0.00000  0.16315
      14     C     3.24174  3.24174  0.00000 -0.48349
      15     H     0.41884  0.41884  0.00000  0.16232
      16     H     0.42572  0.42572  0.00000  0.14857
      17     H     0.42096  0.42096  0.00000  0.15808
      18     H     0.41891  0.41891  0.00000  0.16219
      19     H     0.42284  0.42284  0.00000  0.15432
      20     H     0.40643  0.40643  0.00000  0.18715
      21     H     0.39717  0.39717  0.00000  0.20566
      22     H     0.40929  0.40929  0.00000  0.18143

   Total alpha = 32.00000, Total beta = 32.00000, Total charge = -0.00000
