  ==> Input File <==

--------------------------------------------------------------------------
set {
	reference rhf
	basis 6-31G*
}

set_num_threads( 1 )
memory 2 gb

molecule MOL {
0 1

H	 -2.798360	 -0.862255	 -0.071053
N	 -1.863561	 -0.715187	 0.256814
C	 -1.344686	 0.554728	 -0.219830
H	 -1.300452	 -1.461917	 -0.101532
C	 0.168200	 0.552454	 -0.154218
H	 -1.644192	 0.795924	 -1.240674
H	 -1.717151	 1.345428	 0.424255
O	 0.644359	 -0.415393	 -1.045078
H	 0.558325	 1.533650	 -0.423838
H	 0.489946	 0.323224	 0.859275
C	 2.025840	 -0.584684	 -1.024546
H	 2.273397	 -1.349631	 -1.747920
H	 2.543473	 0.334257	 -1.293958
H	 2.373036	 -0.901332	 -0.043221

	symmetry c1
}
set optking {
	frozen_dihedral = ("
		8 5 3 6,
		5 8 11 13,
		11 8 5 3
	")
}

ee = energy('scf')
oeprop('DIPOLE', 'QUADRUPOLE', 'MULLIKEN_CHARGES')
f=open( 'psi4out.xyz', 'w' )
f.write( "14  " )
f.write( str(ee) + "\n" )
f.write( MOL.save_string_xyz() )
f.close()
--------------------------------------------------------------------------

    Molecular point group: c1

    Geometry (in Angstrom), charge = 0, multiplicity = 1:

       Center              X                  Y                   Z               Mass
    ------------   -----------------  -----------------  -----------------  -----------------
           H         -2.734248383568    -0.720603321721     0.376139272510     1.007825032070
           N         -1.799449383568    -0.573535321721     0.704006272510    14.003074004780
           C         -1.280574383568     0.696379678279     0.227362272510    12.000000000000
           H         -1.236340383568    -1.320265321721     0.345660272510     1.007825032070
           C          0.232311616432     0.694105678279     0.292974272510    12.000000000000
           H         -1.580080383568     0.937575678279    -0.793481727490     1.007825032070
           H         -1.653039383568     1.487079678279     0.871447272510     1.007825032070
           O          0.708470616432    -0.273741321721    -0.597885727490    15.994914619560
           H          0.622436616432     1.675301678279     0.023354272510     1.007825032070
           H          0.554057616432     0.464875678279     1.306467272510     1.007825032070
           C          2.089951616432    -0.443032321721    -0.577353727490    12.000000000000
           H          2.337508616432    -1.207979321721    -1.300727727490     1.007825032070
           H          2.607584616432     0.475908678279    -0.846765727490     1.007825032070
           H          2.437147616432    -0.759680321721     0.403971272510     1.007825032070

  Charge       = 0
  Multiplicity = 1
  Basis Set: 6-31G*
  Basis Set:

    Orbital Energies (a.u.)
    -----------------------

    Doubly Occupied:

       1A    -20.560858     2A    -15.526505     3A    -11.269065
       4A    -11.268780     5A    -11.240274     6A     -1.385012
       7A     -1.172984     8A     -1.000277     9A     -0.909209
      10A     -0.817587    11A     -0.687393    12A     -0.672739
      13A     -0.649357    14A     -0.615147    15A     -0.596265
      16A     -0.546170    17A     -0.533279    18A     -0.498743
      19A     -0.472650    20A     -0.420988    21A     -0.378467

  @DF-RHF Final Energy:  -248.12412024979534

   => Energetics <=

    Nuclear Repulsion Energy =            194.9376262634162345
    One-Electron Energy =                -723.6799588329373591
    Two-Electron Energy =                 280.6182123197257283
    DFT Exchange-Correlation Energy =       0.0000000000000000
    Empirical Dispersion Energy =           0.0000000000000000
    PCM Polarization Energy =               0.0000000000000000
    EFP Energy =                            0.0000000000000000
    Total Energy =                       -248.1241202497953395

  Mulliken Charges: (a.u.)
   Center  Symbol    Alpha    Beta     Spin     Total
       1     H     0.33274  0.33274  0.00000  0.33452
       2     N     3.92949  3.92949  0.00000 -0.85898
       3     C     3.06103  3.06103  0.00000 -0.12206
       4     H     0.32283  0.32283  0.00000  0.35433
       5     C     2.99980  2.99980  0.00000  0.00040
       6     H     0.42614  0.42614  0.00000  0.14772
       7     H     0.42025  0.42025  0.00000  0.15950
       8     O     4.30878  4.30878  0.00000 -0.61756
       9     H     0.42818  0.42818  0.00000  0.14363
      10     H     0.42242  0.42242  0.00000  0.15515
      11     C     3.07976  3.07976  0.00000 -0.15953
      12     H     0.41181  0.41181  0.00000  0.17637
      13     H     0.42908  0.42908  0.00000  0.14184
      14     H     0.42767  0.42767  0.00000  0.14466

   Total alpha = 21.00000, Total beta = 21.00000, Total charge = -0.00000
