                              Psi4 1.0.54 Driver

  ==> Input File <==

--------------------------------------------------------------------------
set {
	reference rhf
	basis cc-pvtz
}

set_num_threads( 4 )
memory 2 gb

molecule MOL {
0 1

H	 -2.644180	 -0.653737	 1.272255
C	 -2.092774	 -0.380414	 0.391915
O	 -0.808934	 -0.154049	 0.752536
F	 -2.163230	 -1.351640	 -0.507133
F	 -2.627232	 0.691260	 -0.169301
C	 0.085006	 0.250800	 -0.215074
C	 1.370439	 -0.548013	 -0.012993
Cl	 0.421658	 1.987697	 -0.091007
H	 -0.272219	 0.063284	 -1.212508
F	 1.265535	 -1.731453	 -0.562073
F	 1.571548	 -0.715356	 1.272646
F	 2.412406	 0.055746	 -0.515020

	symmetry c1
}
set optking {
	frozen_dihedral = ("
		10 7 6 9
	")
}

ee,wfn = optimize('scf', return_wfn=True)
oeprop( wfn, 'DIPOLE', 'QUADRUPOLE', 'MULLIKEN_CHARGES')
f=open( 'psi4out.xyz', 'w' )
f.write( "12  " )
f.write( str(ee) + "\n" )
f.write( MOL.save_string_xyz() )
f.close()
--------------------------------------------------------------------------

    Molecular point group: c1
  Charge       = 0
  Multiplicity = 1
  Basis Set: CC-PVTZ
  Basis Set:
  @DF-RHF Final Energy: -1146.61643587053231
    Total Energy =                      -1146.6164358705318591
    Molecular point group: c1
  Basis Set: CC-PVTZ
  Basis Set:
  Basis Set: CC-PVTZ
  Basis Set:
  @DF-RHF Final Energy: -1146.61729990889239
    Total Energy =                      -1146.6172999088937559
  Basis Set: CC-PVTZ
  Basis Set:
  Basis Set: CC-PVTZ
  Basis Set:
  @DF-RHF Final Energy: -1146.61799558090433
    Total Energy =                      -1146.6179955809045623
  Basis Set: CC-PVTZ
  Basis Set:
  Basis Set: CC-PVTZ
  Basis Set:
  @DF-RHF Final Energy: -1146.61803678121760
    Total Energy =                      -1146.6180367812166878
  Basis Set: CC-PVTZ
  Basis Set:
  Basis Set: CC-PVTZ
  Basis Set:
  @DF-RHF Final Energy: -1146.61804344361826
    Total Energy =                      -1146.6180434436175801
  Basis Set: CC-PVTZ
  Basis Set:
  Basis Set: CC-PVTZ
  Basis Set:
  @DF-RHF Final Energy: -1146.61804482203979
    Total Energy =                      -1146.6180448220397921
  Basis Set: CC-PVTZ
  Basis Set:
  Charge       = 0
  Multiplicity = 1
  Basis Set: CC-PVTZ
  Basis Set:

    Orbital Energies (a.u.)
    -----------------------

    Doubly Occupied:

       1A   -104.857516     2A    -26.354847     3A    -26.353976
       4A    -26.352602     5A    -26.342817     6A    -26.342607
       7A    -20.640001     8A    -11.520770     9A    -11.483148
      10A    -11.401147    11A    -10.583065    12A     -8.049871
      13A     -8.047864    14A     -8.047803    15A     -1.768022
      16A     -1.724080    17A     -1.663861    18A     -1.659952
      19A     -1.644215    20A     -1.485659    21A     -1.178321
      22A     -1.053441    23A     -0.989774    24A     -0.924340
      25A     -0.864275    26A     -0.857697    27A     -0.852225
      28A     -0.829151    29A     -0.817356    30A     -0.794312
      31A     -0.732267    32A     -0.731594    33A     -0.712148
      34A     -0.708196    35A     -0.684398    36A     -0.681275
      37A     -0.665049    38A     -0.663831    39A     -0.649821
      40A     -0.638244    41A     -0.598145    42A     -0.581611
      43A     -0.526043    44A     -0.478135    45A     -0.470742

  @DF-RHF Final Energy: -1146.61804510310344

   => Energetics <=

    Nuclear Repulsion Energy =            737.7204959516977851
    One-Electron Energy =               -3058.6646525900714551
    Two-Electron Energy =                1174.3261115352709112
    DFT Exchange-Correlation Energy =       0.0000000000000000
    Empirical Dispersion Energy =           0.0000000000000000
    PCM Polarization Energy =               0.0000000000000000
    EFP Energy =                            0.0000000000000000
    Total Energy =                      -1146.6180451031029861
    Molecular point group: c1
  Basis Set: CC-PVTZ
  Basis Set:

  -Total Gradient:
     Atom            X                  Y                   Z
    ------   -----------------  -----------------  -----------------
       1       -0.000088186653    -0.000023641651     0.000132582903
       2        0.000284162970     0.000051901182    -0.000162119143
       3        0.000036989491     0.000036035096     0.000141861941
       4       -0.000076026054    -0.000078666533    -0.000054495919
       5       -0.000202383844     0.000035262868    -0.000011298575
       6        0.004464931943     0.006442643309    -0.004116022668
       7       -0.003116209095    -0.003447225370     0.006328223332
       8        0.000097940762     0.000017382576     0.000072783376
       9       -0.003293388618    -0.004939622383     0.002270024653
      10        0.001858828126     0.001819049432    -0.004525754864
      11       -0.000046891321     0.000011847559     0.000005859078
      12        0.000080232316     0.000075033958    -0.000081644114

  **** Optimization is complete! (in 7 steps) ****
    Final optimized geometry and variables:
    Molecular point group: c1

    Geometry (in Angstrom), charge = 0, multiplicity = 1:

    H           -2.638267807309    -0.780472053590     1.196835358454
    C           -2.081903542715    -0.451573861499     0.338496286245
    O           -0.810049834688    -0.210944509841     0.728234585382
    F           -2.115433512103    -1.381788409749    -0.606099893954
    F           -2.638934371300     0.630297398251    -0.180194202929
    C            0.089565446485     0.267195586361    -0.207913909387
    C            1.392444911787    -0.513263869485     0.000934373961
    CL           0.340273751483     2.006720338418    -0.016054501459
    H           -0.261443015171     0.065103961482    -1.204242012542
    F            1.262102094935    -1.696676784317    -0.555793753898
    F            1.679704934776    -0.668827635845     1.261874789083
    F            2.400968968334     0.079582435550    -0.586020766957

  Mulliken Charges: (a.u.)
   Center  Symbol    Alpha    Beta     Spin     Total
       1     H     0.45212  0.45212  0.00000  0.09577
       2     C     2.74025  2.74025  0.00000  0.51951
       3     O     4.15600  4.15600  0.00000 -0.31201
       4     F     4.61853  4.61853  0.00000 -0.23707
       5     F     4.61516  4.61516  0.00000 -0.23033
       6     C     2.94277  2.94277  0.00000  0.11446
       7     C     2.66942  2.66942  0.00000  0.66116
       8    CL     8.57048  8.57048  0.00000 -0.14095
       9     H     0.43036  0.43036  0.00000  0.13928
      10     F     4.60621  4.60621  0.00000 -0.21242
      11     F     4.59798  4.59798  0.00000 -0.19596
      12     F     4.60072  4.60072  0.00000 -0.20144

   Total alpha = 45.00000, Total beta = 45.00000, Total charge =  0.00000

*** Psi4 exiting successfully. Buy a developer a beer!
