  ==> Input File <==

--------------------------------------------------------------------------
set {
	reference rhf
	basis 6-31G*
}

set_num_threads( 4 )
memory 2 gb

molecule MOL {
0 1

H	 0.369554	 0.069849	 -2.095845
C	 0.210393	 -0.484033	 -1.193199
C	 0.209005	 -1.867295	 -1.185326
C	 0.000000	 0.183220	 0.000000
H	 0.370547	 -2.404452	 -2.101477
C	 0.000000	 -2.555744	 0.000000
N	 0.000000	 1.642018	 0.000000
C	 -0.210393	 -0.484034	 1.193199
H	 0.000000	 -3.630640	 0.000000
C	 -0.209005	 -1.867295	 1.185326
O	 1.057097	 2.196749	 0.000000
O	 -1.057097	 2.196749	 0.000000
H	 -0.369554	 0.069849	 2.095845
H	 -0.370547	 -2.404452	 2.101477

	symmetry c1
}
set optking {
	frozen_dihedral = ("
		2 4 7 11
	")
}

ee = optimize('scf')
oeprop('DIPOLE', 'QUADRUPOLE', 'MULLIKEN_CHARGES')
f=open( 'psi4out.xyz', 'w' )
f.write( "14  " )
f.write( str(ee) + "\n" )
f.write( MOL.save_string_xyz() )
f.close()
--------------------------------------------------------------------------

    Molecular point group: c1
  Charge       = 0
  Multiplicity = 1
  Basis Set: 6-31G*
  Basis Set:
  @DF-RHF Final Energy:  -434.16256312440555
    Total Energy =                       -434.1625631244053238
    Molecular point group: c1
  Basis Set: 6-31G*
  Basis Set:
  Basis Set: 6-31G*
  Basis Set:
  @DF-RHF Final Energy:  -434.15869945607983
    Total Energy =                       -434.1586994560797166
  Basis Set: 6-31G*
  Basis Set:
  Basis Set: 6-31G*
  Basis Set:
  @DF-RHF Final Energy:  -434.16259194686813
    Total Energy =                       -434.1625919468679058
  Basis Set: 6-31G*
  Basis Set:
  Basis Set: 6-31G*
  Basis Set:
  @DF-RHF Final Energy:  -434.16290301516710
    Total Energy =                       -434.1629030151671031
  Basis Set: 6-31G*
  Basis Set:
  Charge       = 0
  Multiplicity = 1
  Basis Set: 6-31G*
  Basis Set:

    Orbital Energies (a.u.)
    -----------------------

    Doubly Occupied:

       1A    -20.607188     2A    -20.607099     3A    -15.855851
       4A    -11.309604     5A    -11.270991     6A    -11.270864
       7A    -11.263882     8A    -11.263520     9A    -11.261458
      10A     -1.638569    11A     -1.422617    12A     -1.203141
      13A     -1.094775    14A     -1.054285    15A     -0.957214
      16A     -0.872147    17A     -0.827510    18A     -0.781029
      19A     -0.734031    20A     -0.731331    21A     -0.715761
      22A     -0.648833    23A     -0.647072    24A     -0.623968
      25A     -0.559348    26A     -0.547495    27A     -0.531964
      28A     -0.495211    29A     -0.482567    30A     -0.452486
      31A     -0.367820    32A     -0.366718

  @DF-RHF Final Energy:  -434.16290406293672

   => Energetics <=

    Nuclear Repulsion Energy =            416.1738019740804475
    One-Electron Energy =               -1415.7407129027615156
    Two-Electron Energy =                 565.4040068657443499
    DFT Exchange-Correlation Energy =       0.0000000000000000
    Empirical Dispersion Energy =           0.0000000000000000
    PCM Polarization Energy =               0.0000000000000000
    EFP Energy =                            0.0000000000000000
    Total Energy =                       -434.1629040629367182
    Molecular point group: c1
  Basis Set: 6-31G*
  Basis Set:

  -Total Gradient:
     Atom            X                  Y                   Z
    ------   -----------------  -----------------  -----------------
       1       -0.000001182630    -0.000027480500     0.000048378336
       2       -0.002954089535    -0.000140604789    -0.000602382000
       3        0.000024914659     0.000043186941    -0.000065482874
       4        0.004251672959     0.000267138310     0.001999259657
       5       -0.000009505598     0.000000945855    -0.000006446949
       6        0.000020518433     0.000009414170     0.000033296854
       7       -0.001432241892    -0.000036247321    -0.004910583167
       8        0.000052237342    -0.000023752301     0.000103544623
       9        0.000001982909     0.000005074113    -0.000002523826
      10       -0.000061975116    -0.000011556879     0.000020900460
      11        0.000231060856    -0.000010158701     0.003437531780
      12       -0.000140993359    -0.000050394262    -0.000018088587
      13        0.000013188357    -0.000032178984    -0.000044963478
      14        0.000004412621     0.000006614344     0.000007559170

  **** Optimization is complete! (in 5 steps) ****
    Final optimized geometry and variables:
    Molecular point group: c1

    Geometry (in Angstrom), charge = 0, multiplicity = 1:

    H            0.388837056256     0.071077490200    -2.100271675389
    C            0.221263670981    -0.479850786628    -1.193859390460
    C            0.206871663864    -1.864775543847    -1.185885623921
    C            0.021983542995     0.180765419522    -0.000957927512
    H            0.359042560653    -2.402573680505    -2.103364021933
    C           -0.002927680285    -2.552195894257    -0.000812071476
    N           -0.001208310567     1.643260520698    -0.005157981125
    C           -0.209162199398    -0.475693732556     1.188771187859
    H           -0.009571036765    -3.626806918958    -0.000018788844
    C           -0.208678582888    -1.860428717658     1.182763544929
    O            1.050250285238     2.204488940301    -0.025623933707
    O           -1.069960467071     2.169101033253     0.038393977721
    H           -0.382783446341     0.078461799285     2.091968406982
    H           -0.375391920954    -2.395152422019     2.099516501206

  Mulliken Charges: (a.u.)
   Center  Symbol    Alpha    Beta     Spin     Total
       1     H     0.37674  0.37674  0.00000  0.24653
       2     C     3.08872  3.08872  0.00000 -0.17745
       3     C     3.10301  3.10301  0.00000 -0.20603
       4     C     2.89678  2.89678  0.00000  0.20645
       5     H     0.38859  0.38859  0.00000  0.22282
       6     C     3.09359  3.09359  0.00000 -0.18717
       7     N     3.25742  3.25742  0.00000  0.48517
       8     C     3.08797  3.08797  0.00000 -0.17594
       9     H     0.39022  0.39022  0.00000  0.21956
      10     C     3.10318  3.10318  0.00000 -0.20636
      11     O     4.22392  4.22392  0.00000 -0.44785
      12     O     4.22475  4.22475  0.00000 -0.44949
      13     H     0.37656  0.37656  0.00000  0.24689
      14     H     0.38856  0.38856  0.00000  0.22288

   Total alpha = 32.00000, Total beta = 32.00000, Total charge = -0.00000
