                              Psi4 1.0.54 Driver

  ==> Input File <==

--------------------------------------------------------------------------
set {
	reference rhf
	basis cc-pvtz
}

set_num_threads( 4 )
memory 2 gb

molecule MOL {
0 1

O	 -0.694481	 1.313155	 -0.204815
C	 -0.862519	 0.151932	 -0.046791
C	 -2.171428	 -0.477048	 0.339095
O	 0.085519	 -0.757083	 -0.192238
H	 -2.467997	 -1.191667	 -0.417688
H	 -2.923379	 0.287970	 0.444097
H	 -2.053854	 -1.015120	 1.270901
C	 1.327536	 -0.365364	 -0.765325
C	 2.266731	 0.210909	 0.273771
H	 1.145269	 0.341669	 -1.559492
H	 1.731980	 -1.272742	 -1.188221
H	 3.222933	 0.435034	 -0.185465
H	 1.867555	 1.125288	 0.690846
H	 2.432085	 -0.498621	 1.075531

	symmetry c1
}
set optking {
	frozen_dihedral = ("
		8 4 2 1
	")
}

ee,wfn = optimize('scf', return_wfn=True)
oeprop( wfn, 'DIPOLE', 'QUADRUPOLE', 'MULLIKEN_CHARGES')
f=open( 'psi4out.xyz', 'w' )
f.write( "14  " )
f.write( str(ee) + "\n" )
f.write( MOL.save_string_xyz() )
f.close()
--------------------------------------------------------------------------

    Molecular point group: c1
  Charge       = 0
  Multiplicity = 1
  Basis Set: CC-PVTZ
  Basis Set:
  @DF-RHF Final Energy:  -305.99053449359121
    Total Energy =                       -305.9905344935911558
    Molecular point group: c1
  Basis Set: CC-PVTZ
  Basis Set:
  Basis Set: CC-PVTZ
  Basis Set:
  @DF-RHF Final Energy:  -305.98876983768548
    Total Energy =                       -305.9887698376853677
  Basis Set: CC-PVTZ
  Basis Set:
  Basis Set: CC-PVTZ
  Basis Set:
  @DF-RHF Final Energy:  -305.99061436691460
    Total Energy =                       -305.9906143669145422
  Basis Set: CC-PVTZ
  Basis Set:
  Basis Set: CC-PVTZ
  Basis Set:
  @DF-RHF Final Energy:  -305.99065574349311
    Total Energy =                       -305.9906557434929368
  Basis Set: CC-PVTZ
  Basis Set:
  Basis Set: CC-PVTZ
  Basis Set:
  @DF-RHF Final Energy:  -305.99066244677817
    Total Energy =                       -305.9906624467781739
  Basis Set: CC-PVTZ
  Basis Set:
  Basis Set: CC-PVTZ
  Basis Set:
  @DF-RHF Final Energy:  -305.99066630521179
    Total Energy =                       -305.9906663052117892
  Basis Set: CC-PVTZ
  Basis Set:
  Basis Set: CC-PVTZ
  Basis Set:
  @DF-RHF Final Energy:  -305.99066763282701
    Total Energy =                       -305.9906676328271260
  Basis Set: CC-PVTZ
  Basis Set:
  Charge       = 0
  Multiplicity = 1
  Basis Set: CC-PVTZ
  Basis Set:

    Orbital Energies (a.u.)
    -----------------------

    Doubly Occupied:

       1A    -20.593939     2A    -20.533378     3A    -11.368131
       4A    -11.283599     5A    -11.231687     6A    -11.216013
       7A     -1.470368     8A     -1.365867     9A     -1.055950
      10A     -0.999148    11A     -0.882813    12A     -0.768784
      13A     -0.701262    14A     -0.685383    15A     -0.659220
      16A     -0.612029    17A     -0.586647    18A     -0.571112
      19A     -0.561339    20A     -0.529915    21A     -0.516940
      22A     -0.495598    23A     -0.453723    24A     -0.442622

  @DF-RHF Final Energy:  -305.99066844912340

   => Energetics <=

    Nuclear Repulsion Energy =            248.8468091349311635
    One-Electron Energy =                -910.5040178878372217
    Two-Electron Energy =                 355.6665403037825399
    DFT Exchange-Correlation Energy =       0.0000000000000000
    Empirical Dispersion Energy =           0.0000000000000000
    PCM Polarization Energy =               0.0000000000000000
    EFP Energy =                            0.0000000000000000
    Total Energy =                       -305.9906684491235183
    Molecular point group: c1
  Basis Set: CC-PVTZ
  Basis Set:

  -Total Gradient:
     Atom            X                  Y                   Z
    ------   -----------------  -----------------  -----------------
       1        0.000707933147     0.000043627916     0.003060458180
       2       -0.001577173060    -0.000311880079    -0.005772067806
       3       -0.000003327832     0.000025358286    -0.000006552557
       4        0.001720180670     0.000724721509     0.004927052827
       5        0.000006155713    -0.000032418435    -0.000012115914
       6       -0.000005838615     0.000006041090     0.000010253360
       7        0.000004628057     0.000002032565     0.000032510669
       8       -0.000931018570    -0.000439029725    -0.002254796237
       9        0.000068311863    -0.000058420687    -0.000001300014
      10        0.000016689401    -0.000015767297     0.000018851986
      11        0.000007655603     0.000015846667     0.000001375389
      12        0.000005579880     0.000018949399     0.000013469346
      13       -0.000003584913     0.000003001193    -0.000003455773
      14       -0.000016191347     0.000017937597    -0.000013683456

  **** Optimization is complete! (in 8 steps) ****
    Final optimized geometry and variables:
    Molecular point group: c1

    Geometry (in Angstrom), charge = 0, multiplicity = 1:

    O           -0.713033291535     1.312945891131    -0.030837219768
    C           -0.871217701777     0.143237313955     0.058920946199
    C           -2.163737066449    -0.516408392196     0.448435997385
    O            0.082919092124    -0.747737714230    -0.148034457517
    H           -2.505972591115    -1.146337438776    -0.362829097761
    H           -2.902444803393     0.236565978691     0.669887963066
    H           -2.003601622781    -1.149976542664     1.310988613508
    C            1.317614608645    -0.312836153926    -0.706421482932
    C            2.300390831935     0.108480286873     0.366110821053
    H            1.129122518172     0.493743769692    -1.397742228697
    H            1.687970206146    -1.166921920403    -1.253608431920
    H            3.248541332759     0.369161081932    -0.090692525369
    H            1.933654800151     0.969876528759     0.906999944634
    H            2.470815297683    -0.699860988292     1.066827626528

  Mulliken Charges: (a.u.)
   Center  Symbol    Alpha    Beta     Spin     Total
       1     O     4.19866  4.19866  0.00000 -0.39733
       2     C     2.80271  2.80271  0.00000  0.39458
       3     C     3.13816  3.13816  0.00000 -0.27632
       4     O     4.15730  4.15730  0.00000 -0.31460
       5     H     0.44639  0.44639  0.00000  0.10721
       6     H     0.43836  0.43836  0.00000  0.12327
       7     H     0.44513  0.44513  0.00000  0.10975
       8     C     2.98487  2.98487  0.00000  0.03026
       9     C     3.14637  3.14637  0.00000 -0.29274
      10     H     0.45036  0.45036  0.00000  0.09928
      11     H     0.44485  0.44485  0.00000  0.11030
      12     H     0.45223  0.45223  0.00000  0.09553
      13     H     0.44194  0.44194  0.00000  0.11612
      14     H     0.45265  0.45265  0.00000  0.09469

   Total alpha = 24.00000, Total beta = 24.00000, Total charge =  0.00000

*** Psi4 exiting successfully. Buy a developer a beer!
