  ==> Input File <==

--------------------------------------------------------------------------
set {
	reference rhf
	basis 6-31G*
}

set_num_threads( 4 )
memory 2 gb

molecule MOL {
0 1

H	 -3.301617	 0.570527	 0.000000
C	 -2.250981	 0.344174	 0.000000
C	 -1.813665	 -0.976045	 0.000000
C	 -1.315303	 1.358057	 0.000000
H	 -2.528860	 -1.779366	 0.000000
C	 -0.467298	 -1.270142	 0.000000
H	 -1.635074	 2.385107	 0.000000
C	 0.047081	 1.078114	 0.000000
H	 -0.115948	 -2.285222	 0.000000
C	 0.472063	 -0.241155	 0.000000
H	 0.749976	 1.888426	 0.000000
O	 1.765256	 -0.628444	 0.000000
C	 2.757418	 0.265058	 0.415139
H	 2.786974	 1.147189	 -0.215974
H	 3.695069	 -0.263310	 0.328823
H	 2.613300	 0.567277	 1.447237

	symmetry c1
}
set optking {
	frozen_dihedral = ("
		13 12 10 8
	")
}

ee = optimize('scf')
oeprop('DIPOLE', 'QUADRUPOLE', 'MULLIKEN_CHARGES')
f=open( 'psi4out.xyz', 'w' )
f.write( "16  " )
f.write( str(ee) + "\n" )
f.write( MOL.save_string_xyz() )
f.close()
--------------------------------------------------------------------------

    Molecular point group: c1
  Charge       = 0
  Multiplicity = 1
  Basis Set: 6-31G*
  Basis Set:
  @DF-RHF Final Energy:  -344.58172361786325
    Total Energy =                       -344.5817236178628491
    Molecular point group: c1
  Basis Set: 6-31G*
  Basis Set:
  Basis Set: 6-31G*
  Basis Set:
  @DF-RHF Final Energy:  -344.58205018581924
    Total Energy =                       -344.5820501858194120
  Basis Set: 6-31G*
  Basis Set:
  Basis Set: 6-31G*
  Basis Set:
  @DF-RHF Final Energy:  -344.58224002762466
    Total Energy =                       -344.5822400276247777
  Basis Set: 6-31G*
  Basis Set:
  Basis Set: 6-31G*
  Basis Set:
  @DF-RHF Final Energy:  -344.58224639804450
    Total Energy =                       -344.5822463980445036
  Basis Set: 6-31G*
  Basis Set:
  Charge       = 0
  Multiplicity = 1
  Basis Set: 6-31G*
  Basis Set:

    Orbital Energies (a.u.)
    -----------------------

    Doubly Occupied:

       1A    -20.583416     2A    -11.293086     3A    -11.279522
       4A    -11.232954     5A    -11.231429     6A    -11.224100
       7A    -11.219922     8A    -11.219527     9A     -1.412393
      10A     -1.145901    11A     -1.021178    12A     -1.012820
      13A     -0.940717    14A     -0.830701    15A     -0.804738
      16A     -0.720584    17A     -0.664191    18A     -0.661724
      19A     -0.654225    20A     -0.616236    21A     -0.587345
      22A     -0.576901    23A     -0.525533    24A     -0.517878
      25A     -0.507923    26A     -0.477503    27A     -0.458400
      28A     -0.334570    29A     -0.306202

  @DF-RHF Final Energy:  -344.58224748314507

   => Energetics <=

    Nuclear Repulsion Energy =            348.0670337703197106
    One-Electron Energy =               -1157.1753221554854463
    Two-Electron Energy =                 464.5260409020205543
    DFT Exchange-Correlation Energy =       0.0000000000000000
    Empirical Dispersion Energy =           0.0000000000000000
    PCM Polarization Energy =               0.0000000000000000
    EFP Energy =                            0.0000000000000000
    Total Energy =                       -344.5822474831451245
    Molecular point group: c1
  Basis Set: 6-31G*
  Basis Set:

  -Total Gradient:
     Atom            X                  Y                   Z
    ------   -----------------  -----------------  -----------------
       1        0.000000008439    -0.000003036405     0.000001534701
       2        0.000027939054     0.000114196355    -0.000013037133
       3        0.000088113903    -0.000062772452     0.000024164213
       4       -0.000122309473    -0.000029001232    -0.000002527851
       5       -0.000000640941     0.000005711336    -0.000005030739
       6       -0.000096474369    -0.000030886202     0.000007991803
       7       -0.000001370790     0.000001339490     0.000006402199
       8        0.000019121780    -0.000014431872    -0.001366155984
       9        0.000009790864    -0.000000735517    -0.000006641183
      10        0.000047360210    -0.000154460052     0.002730324502
      11       -0.000042273181    -0.000008894767    -0.000005911530
      12        0.000144006863     0.000618861188    -0.002556344105
      13       -0.000094652092    -0.000419646644     0.001184521390
      14        0.000026500620     0.000025459184     0.000000386269
      15       -0.000016857351    -0.000014141216     0.000003160746
      16        0.000011736462    -0.000027561197    -0.000002837297

  **** Optimization is complete! (in 5 steps) ****
    Final optimized geometry and variables:
    Molecular point group: c1

    Geometry (in Angstrom), charge = 0, multiplicity = 1:

    H           -3.298259756992     0.579655277979    -0.056437811738
    C           -2.247727611326     0.352579055393    -0.055234973842
    C           -1.812117215743    -0.967442470742    -0.078844516826
    C           -1.311464005166     1.366546086361    -0.030918433132
    H           -2.528443035655    -1.769552325478    -0.098457728170
    C           -0.465228267383    -1.262855581507    -0.073687713587
    H           -1.630778996702     2.393616715417    -0.015905728833
    C            0.049804813011     1.084456541584    -0.030152961513
    H           -0.114453363032    -2.277992780736    -0.090686376308
    C            0.473583382133    -0.235075368643    -0.046189584443
    H            0.756334193020     1.891994517157    -0.018492942156
    O            1.769853042942    -0.615607122780    -0.074027921835
    C            2.761682230880     0.286077169127     0.328263206345
    H            2.894389550077     1.083918748200    -0.394937803706
    H            3.678496374500    -0.280824065719     0.394343083199
    H            2.533739467238     0.716056003329     1.297864996456

  Mulliken Charges: (a.u.)
   Center  Symbol    Alpha    Beta     Spin     Total
       1     H     0.40112  0.40112  0.00000  0.19776
       2     C     3.11145  3.11145  0.00000 -0.22290
       3     C     3.09237  3.09237  0.00000 -0.18473
       4     C     3.09156  3.09156  0.00000 -0.18313
       5     H     0.39875  0.39875  0.00000  0.20251
       6     C     3.12504  3.12504  0.00000 -0.25008
       7     H     0.39954  0.39954  0.00000  0.20092
       8     C     3.14191  3.14191  0.00000 -0.28382
       9     H     0.39296  0.39296  0.00000  0.21407
      10     C     2.78441  2.78441  0.00000  0.43119
      11     H     0.39748  0.39748  0.00000  0.20503
      12     O     4.32673  4.32673  0.00000 -0.65346
      13     C     3.09147  3.09147  0.00000 -0.18293
      14     H     0.42075  0.42075  0.00000  0.15851
      15     H     0.40537  0.40537  0.00000  0.18926
      16     H     0.41910  0.41910  0.00000  0.16180

   Total alpha = 29.00000, Total beta = 29.00000, Total charge =  0.00000
