  ==> Input File <==

--------------------------------------------------------------------------
set {
	reference rhf
	basis 6-31G*
}

set_num_threads( 1 )
memory 2 gb

molecule MOL {
0 1

O	 1.214711	 1.306902	 -0.000018
C	 1.122059	 0.121804	 -0.000188
C	 -0.170150	 -0.657997	 -0.000612
O	 2.172624	 -0.688929	 0.000216
C	 -1.412532	 0.227344	 -0.000452
H	 -0.153702	 -1.313099	 -0.867402
H	 -0.153924	 -1.313811	 0.865644
C	 -1.650165	 0.895932	 -1.355401
H	 -1.312974	 0.984452	 0.771157
H	 -2.277577	 -0.369120	 0.272366
C	 -2.893741	 1.783874	 -1.364486
H	 -0.780161	 1.491625	 -1.624322
H	 -1.746603	 0.132967	 -2.125242
H	 -2.812907	 2.578284	 -0.628257
H	 -3.039114	 2.245830	 -2.335949
H	 -3.786310	 1.209812	 -1.133373
C	 3.452279	 -0.082609	 0.000533
H	 3.583069	 0.529321	 -0.880332
H	 4.163299	 -0.894027	 0.001117
H	 3.582335	 0.529955	 0.881077

	symmetry c1
}
set optking {
	frozen_dihedral = ("
		9 5 8 12,
		1 2 3 6,
		1 2 4 17
	")
}

ee = energy('scf')
oeprop('DIPOLE', 'QUADRUPOLE', 'MULLIKEN_CHARGES')
f=open( 'psi4out.xyz', 'w' )
f.write( "20  " )
f.write( str(ee) + "\n" )
f.write( MOL.save_string_xyz() )
f.close()
--------------------------------------------------------------------------

    Molecular point group: c1

    Geometry (in Angstrom), charge = 0, multiplicity = 1:

       Center              X                  Y                   Z               Mass
    ------------   -----------------  -----------------  -----------------  -----------------
           O          0.949544494252     0.934737261001     0.340261028472    15.994914619560
           C          0.856892494252    -0.250360738999     0.340091028472    12.000000000000
           C         -0.435316505748    -1.030161738999     0.339667028472    12.000000000000
           O          1.907457494252    -1.061093738999     0.340495028472    15.994914619560
           C         -1.677698505748    -0.144820738999     0.339827028472    12.000000000000
           H         -0.418868505748    -1.685263738999    -0.527122971528     1.007825032070
           H         -0.419090505748    -1.685975738999     1.205923028472     1.007825032070
           C         -1.915331505748     0.523767261001    -1.015121971528    12.000000000000
           H         -1.578140505748     0.612287261001     1.111436028472     1.007825032070
           H         -2.542743505748    -0.741284738999     0.612645028472     1.007825032070
           C         -3.158907505748     1.411709261001    -1.024206971528    12.000000000000
           H         -1.045327505748     1.119460261001    -1.284042971528     1.007825032070
           H         -2.011769505748    -0.239197738999    -1.784962971528     1.007825032070
           H         -3.078073505748     2.206119261001    -0.287977971528     1.007825032070
           H         -3.304280505748     1.873665261001    -1.995669971528     1.007825032070
           H         -4.051476505748     0.837647261001    -0.793093971528     1.007825032070
           C          3.187112494252    -0.454773738999     0.340812028472    12.000000000000
           H          3.317902494252     0.157156261001    -0.540052971528     1.007825032070
           H          3.898132494252    -1.266191738999     0.341396028472     1.007825032070
           H          3.317168494252     0.157790261001     1.221356028472     1.007825032070

  Charge       = 0
  Multiplicity = 1
  Basis Set: 6-31G*
  Basis Set:

    Orbital Energies (a.u.)
    -----------------------

    Doubly Occupied:

       1A    -20.604922     2A    -20.546921     3A    -11.373598
       4A    -11.281703     5A    -11.235652     6A    -11.219137
       7A    -11.211558     8A    -11.205351     9A     -1.470756
      10A     -1.364544    11A     -1.086821    12A     -1.021008
      13A     -0.968541    14A     -0.883107    15A     -0.804288
      16A     -0.767108    17A     -0.702792    18A     -0.681141
      19A     -0.672849    20A     -0.629163    21A     -0.607305
      22A     -0.585962    23A     -0.577651    24A     -0.544630
      25A     -0.531659    26A     -0.517041    27A     -0.510479
      28A     -0.476571    29A     -0.471189    30A     -0.461035
      31A     -0.455233    32A     -0.435702

  @DF-RHF Final Energy:  -383.94077074846393

   => Energetics <=

    Nuclear Repulsion Energy =            389.5279060395886290
    One-Electron Energy =               -1295.1265196708313852
    Two-Electron Energy =                 521.6578428827785956
    DFT Exchange-Correlation Energy =       0.0000000000000000
    Empirical Dispersion Energy =           0.0000000000000000
    PCM Polarization Energy =               0.0000000000000000
    EFP Energy =                            0.0000000000000000
    Total Energy =                       -383.9407707484641605

  Mulliken Charges: (a.u.)
   Center  Symbol    Alpha    Beta     Spin     Total
       1     O     4.28609  4.28609  0.00000 -0.57218
       2     C     2.60595  2.60595  0.00000  0.78809
       3     C     3.20972  3.20972  0.00000 -0.41944
       4     O     4.30670  4.30670  0.00000 -0.61341
       5     C     3.15381  3.15381  0.00000 -0.30762
       6     H     0.40023  0.40023  0.00000  0.19953
       7     H     0.39795  0.39795  0.00000  0.20410
       8     C     3.15858  3.15858  0.00000 -0.31716
       9     H     0.40909  0.40909  0.00000  0.18183
      10     H     0.41895  0.41895  0.00000  0.16209
      11     C     3.24002  3.24002  0.00000 -0.48003
      12     H     0.40533  0.40533  0.00000  0.18934
      13     H     0.42684  0.42684  0.00000  0.14631
      14     H     0.41887  0.41887  0.00000  0.16226
      15     H     0.41920  0.41920  0.00000  0.16161
      16     H     0.42399  0.42399  0.00000  0.15201
      17     C     3.09246  3.09246  0.00000 -0.18491
      18     H     0.40907  0.40907  0.00000  0.18186
      19     H     0.40823  0.40823  0.00000  0.18355
      20     H     0.40892  0.40892  0.00000  0.18217

   Total alpha = 32.00000, Total beta = 32.00000, Total charge =  0.00000
