  ==> Input File <==

--------------------------------------------------------------------------
set {
	reference rhf
	basis 6-31G*
}

set_num_threads( 4 )
memory 2 gb

molecule MOL {
0 1

H	 -2.646374	 -0.642757	 1.268656
C	 -2.083525	 -0.384536	 0.393091
O	 -0.807605	 -0.127164	 0.768327
F	 -2.118945	 -1.383102	 -0.486752
F	 -2.621877	 0.670592	 -0.209486
C	 0.084052	 0.273579	 -0.209957
C	 1.353033	 -0.546803	 -0.018071
Cl	 0.433844	 2.004619	 -0.074457
H	 -0.288836	 0.092657	 -1.202930
F	 1.727234	 -0.526123	 1.243549
F	 2.317476	 -0.011640	 -0.739797
F	 1.197529	 -1.793388	 -0.391991

	symmetry c1
}
set optking {
	frozen_dihedral = ("
		10 7 6 9
	")
}

ee = optimize('scf')
oeprop('DIPOLE', 'QUADRUPOLE', 'MULLIKEN_CHARGES')
f=open( 'psi4out.xyz', 'w' )
f.write( "12  " )
f.write( str(ee) + "\n" )
f.write( MOL.save_string_xyz() )
f.close()
--------------------------------------------------------------------------

    Molecular point group: c1
  Charge       = 0
  Multiplicity = 1
  Basis Set: 6-31G*
  Basis Set:
  @DF-RHF Final Energy: -1146.31224770207837
    Total Energy =                      -1146.3122477020783663
    Molecular point group: c1
  Basis Set: 6-31G*
  Basis Set:
  Basis Set: 6-31G*
  Basis Set:
  @DF-RHF Final Energy: -1146.31333502230700
    Total Energy =                      -1146.3133350223063189
  Basis Set: 6-31G*
  Basis Set:
  Basis Set: 6-31G*
  Basis Set:
  @DF-RHF Final Energy: -1146.31375826294425
    Total Energy =                      -1146.3137582629435656
  Basis Set: 6-31G*
  Basis Set:
  Basis Set: 6-31G*
  Basis Set:
  @DF-RHF Final Energy: -1146.31377955853918
    Total Energy =                      -1146.3137795585389540
  Basis Set: 6-31G*
  Basis Set:
  Basis Set: 6-31G*
  Basis Set:
  @DF-RHF Final Energy: -1146.31378293220951
    Total Energy =                      -1146.3137829322090511
  Basis Set: 6-31G*
  Basis Set:
  Charge       = 0
  Multiplicity = 1
  Basis Set: 6-31G*
  Basis Set:

    Orbital Energies (a.u.)
    -----------------------

    Doubly Occupied:

       1A   -104.844416     2A    -26.360879     3A    -26.357284
       4A    -26.357255     5A    -26.346115     6A    -26.345688
       7A    -20.649024     8A    -11.527477     9A    -11.489061
      10A    -11.400685    11A    -10.579141    12A     -8.048507
      13A     -8.044948    14A     -8.044879    15A     -1.760942
      16A     -1.717368    17A     -1.658479    18A     -1.654690
      19A     -1.638049    20A     -1.485209    21A     -1.180104
      22A     -1.052172    23A     -0.985965    24A     -0.919309
      25A     -0.859590    26A     -0.851875    27A     -0.845038
      28A     -0.823501    29A     -0.810503    30A     -0.789704
      31A     -0.726570    32A     -0.725167    33A     -0.705820
      34A     -0.701563    35A     -0.677617    36A     -0.675128
      37A     -0.657800    38A     -0.657185    39A     -0.645733
      40A     -0.633583    41A     -0.597088    42A     -0.580834
      43A     -0.524329    44A     -0.476882    45A     -0.469416

  @DF-RHF Final Energy: -1146.31378348058433

   => Energetics <=

    Nuclear Repulsion Energy =            738.1163252355349869
    One-Electron Energy =               -3059.0950804531321410
    Two-Electron Energy =                1174.6649717370119106
    DFT Exchange-Correlation Energy =       0.0000000000000000
    Empirical Dispersion Energy =           0.0000000000000000
    PCM Polarization Energy =               0.0000000000000000
    EFP Energy =                            0.0000000000000000
    Total Energy =                      -1146.3137834805852435
    Molecular point group: c1
  Basis Set: 6-31G*
  Basis Set:

  -Total Gradient:
     Atom            X                  Y                   Z
    ------   -----------------  -----------------  -----------------
       1       -0.000001453510     0.000006953765     0.000000593503
       2        0.000053542051    -0.000028420490    -0.000030672880
       3       -0.000025685767     0.000047984747     0.000051334563
       4       -0.000020939317    -0.000012151734    -0.000007893136
       5       -0.000059186035    -0.000014093058     0.000007547006
       6        0.001805074132     0.002464731666    -0.001357958077
       7        0.001729033883     0.002584550208    -0.000413828792
       8        0.000041116713    -0.000022231324     0.000015999801
       9       -0.001857641660    -0.002606979702     0.001216653327
      10       -0.001594198901    -0.002337504595     0.000521972534
      11       -0.000067084777    -0.000007514325     0.000019680816
      12       -0.000002576843    -0.000075325249    -0.000023428672

  **** Optimization is complete! (in 6 steps) ****
    Final optimized geometry and variables:
    Molecular point group: c1

    Geometry (in Angstrom), charge = 0, multiplicity = 1:

    H           -2.638257901911    -0.686335365777     1.246373027019
    C           -2.076633308727    -0.406849821518     0.376596525613
    O           -0.803178298312    -0.147651758084     0.757985613142
    F           -2.104090407621    -1.389089883621    -0.522140046927
    F           -2.623329322468     0.655070294612    -0.206336400884
    C            0.088049776942     0.279870661771    -0.212335999181
    C            1.362679980319    -0.533037340485    -0.014974847049
    CL           0.405427063153     2.013006764564    -0.057186871066
    H           -0.287944637153     0.085200070697    -1.201518136636
    F            1.766908795504    -0.515240557390     1.231798712916
    F            2.331358987162    -0.096738012529    -0.787787221433
    F            1.109686639672    -1.786097829956    -0.345103212550

  Mulliken Charges: (a.u.)
   Center  Symbol    Alpha    Beta     Spin     Total
       1     H     0.40128  0.40128  0.00000  0.19744
       2     C     2.56598  2.56598  0.00000  0.86804
       3     O     4.29851  4.29851  0.00000 -0.59702
       4     F     4.68635  4.68635  0.00000 -0.37270
       5     F     4.68421  4.68421  0.00000 -0.36842
       6     C     3.04840  3.04840  0.00000 -0.09679
       7     C     2.43258  2.43258  0.00000  1.13483
       8    CL     8.49798  8.49798  0.00000  0.00404
       9     H     0.36679  0.36679  0.00000  0.26641
      10     F     4.66860  4.66860  0.00000 -0.33721
      11     F     4.67199  4.67199  0.00000 -0.34399
      12     F     4.67731  4.67731  0.00000 -0.35462

   Total alpha = 45.00000, Total beta = 45.00000, Total charge = -0.00000
