  ==> Input File <==

--------------------------------------------------------------------------
set {
	reference rhf
	basis 6-31G*
}

set_num_threads( 4 )
memory 2 gb

molecule MOL {
0 1

H	 -3.161837	 0.500524	 -0.000234
C	 -2.367097	 -0.232926	 -0.000000
O	 -1.158440	 0.455814	 -0.000122
H	 -2.468853	 -0.861886	 -0.882833
H	 -2.468942	 -0.861421	 0.883154
C	 -0.542897	 0.535531	 1.249928
C	 0.757400	 1.307328	 1.107724
H	 -0.348613	 -0.465547	 1.637220
H	 -1.202552	 1.033049	 1.962136
C	 1.503595	 1.444569	 2.434087
H	 1.380650	 0.800150	 0.377661
H	 0.532746	 2.288289	 0.700362
H	 1.759702	 0.472910	 2.847259
H	 2.426604	 1.999403	 2.303478
H	 0.905443	 1.971071	 3.172609

	symmetry c1
}
set optking {
	frozen_dihedral = ("
		6 3 2 4
	")
}

ee = optimize('scf')
oeprop('DIPOLE', 'QUADRUPOLE', 'MULLIKEN_CHARGES')
f=open( 'psi4out.xyz', 'w' )
f.write( "15  " )
f.write( str(ee) + "\n" )
f.write( MOL.save_string_xyz() )
f.close()
--------------------------------------------------------------------------

    Molecular point group: c1
  Charge       = 0
  Multiplicity = 1
  Basis Set: 6-31G*
  Basis Set:
  @DF-RHF Final Energy:  -232.13558212580168
    Total Energy =                       -232.1355821258015908
    Molecular point group: c1
  Basis Set: 6-31G*
  Basis Set:
  Basis Set: 6-31G*
  Basis Set:
  @DF-RHF Final Energy:  -232.13633117682741
    Total Energy =                       -232.1363311768272411
  Basis Set: 6-31G*
  Basis Set:
  Basis Set: 6-31G*
  Basis Set:
  @DF-RHF Final Energy:  -232.13649647550315
    Total Energy =                       -232.1364964755030655
  Basis Set: 6-31G*
  Basis Set:
  Charge       = 0
  Multiplicity = 1
  Basis Set: 6-31G*
  Basis Set:

    Orbital Energies (a.u.)
    -----------------------

    Doubly Occupied:

       1A    -20.550384     2A    -11.266636     3A    -11.263540
       4A    -11.213812     5A    -11.212718     6A     -1.374216
       7A     -1.056936     8A     -0.955294     9A     -0.877353
      10A     -0.808809    11A     -0.672077    12A     -0.652096
      13A     -0.629173    14A     -0.608083    15A     -0.563905
      16A     -0.545360    17A     -0.502092    18A     -0.487707
      19A     -0.478729    20A     -0.460495    21A     -0.409713

  @DF-RHF Final Energy:  -232.13649697481000

   => Energetics <=

    Nuclear Repulsion Energy =            189.4726710014884077
    One-Electron Energy =                -690.0400801956302530
    Two-Electron Energy =                 268.4309122193317307
    DFT Exchange-Correlation Energy =       0.0000000000000000
    Empirical Dispersion Energy =           0.0000000000000000
    PCM Polarization Energy =               0.0000000000000000
    EFP Energy =                            0.0000000000000000
    Total Energy =                       -232.1364969748101430
    Molecular point group: c1
  Basis Set: 6-31G*
  Basis Set:

  -Total Gradient:
     Atom            X                  Y                   Z
    ------   -----------------  -----------------  -----------------
       1        0.000001877079     0.000006103368    -0.000006994432
       2       -0.000965486368     0.001756737576    -0.001802759556
       3       -0.001336241849     0.002234667837     0.000846114350
       4        0.001155944691    -0.002034655036     0.001336635712
       5        0.000016010855    -0.000001552443     0.000006462376
       6        0.001147607484    -0.002026071484    -0.000395849087
       7       -0.000018439477     0.000008335577     0.000000671934
       8       -0.000002709215     0.000003674677     0.000047136797
       9       -0.000002353338     0.000006125137    -0.000067109915
      10        0.000005394298     0.000040197396     0.000017891456
      11       -0.000039193912    -0.000015442593     0.000008138674
      12        0.000029164160     0.000016701151    -0.000002741017
      13       -0.000000709371     0.000001781413    -0.000014383927
      14        0.000004372578     0.000008567758     0.000013941090
      15        0.000004762384    -0.000005170334     0.000012845546

  **** Optimization is complete! (in 4 steps) ****
    Final optimized geometry and variables:
    Molecular point group: c1

    Geometry (in Angstrom), charge = 0, multiplicity = 1:

    H           -2.823221511414    -0.218476609348    -0.961166420133
    C           -1.989093872034    -0.914450142423    -0.965009456471
    O           -0.770461276168    -0.234728657116    -0.940406771455
    H           -2.028012291930    -1.519655272247    -1.862402775696
    H           -2.094222950074    -1.580577344188    -0.112440250218
    C           -0.152272859996    -0.146365416185     0.309062014258
    C            1.151786510888     0.615931514977     0.152322825161
    H            0.038265445118    -1.144250379001     0.704184179552
    H           -0.802507906576     0.364047848994     1.020423266795
    C            1.907459665697     0.758982257875     1.472853034391
    H            1.766341246998     0.098554297836    -0.577975201679
    H            0.931227714446     1.595094283133    -0.261469747092
    H            2.160916111768    -0.211030204286     1.891536468028
    H            2.832782607841     1.307555722440     1.332294854095
    H            1.317177797984     1.294138156619     2.211516805088

  Mulliken Charges: (a.u.)
   Center  Symbol    Alpha    Beta     Spin     Total
       1     H     0.42470  0.42470  0.00000  0.15060
       2     C     3.07638  3.07638  0.00000 -0.15275
       3     O     4.30959  4.30959  0.00000 -0.61919
       4     H     0.41661  0.41661  0.00000  0.16679
       5     H     0.43097  0.43097  0.00000  0.13806
       6     C     2.98137  2.98137  0.00000  0.03727
       7     C     3.15996  3.15996  0.00000 -0.31991
       8     H     0.43282  0.43282  0.00000  0.13437
       9     H     0.43361  0.43361  0.00000  0.13278
      10     C     3.24794  3.24794  0.00000 -0.49587
      11     H     0.41440  0.41440  0.00000  0.17120
      12     H     0.41434  0.41434  0.00000  0.17132
      13     H     0.42099  0.42099  0.00000  0.15802
      14     H     0.41543  0.41543  0.00000  0.16913
      15     H     0.42091  0.42091  0.00000  0.15819

   Total alpha = 21.00000, Total beta = 21.00000, Total charge = -0.00000
