                              Psi4 1.0.54 Driver

  ==> Input File <==

--------------------------------------------------------------------------
set {
	reference rhf
	basis cc-pvtz
}

set_num_threads( 4 )
memory 2 gb

molecule MOL {
0 1

O	 3.219313	 0.959291	 -0.614106
C	 2.698710	 0.058177	 -0.050237
C	 1.246364	 -0.005813	 0.348416
O	 3.344101	 -1.038700	 0.312317
C	 0.453207	 1.232821	 -0.049003
H	 0.839270	 -0.907818	 -0.092281
H	 1.216683	 -0.160521	 1.422434
C	 -0.998367	 1.217982	 0.432195
H	 0.481498	 1.345443	 -1.127236
H	 0.951413	 2.105557	 0.354893
C	 -1.882951	 0.151251	 -0.211235
H	 -1.429490	 2.193659	 0.228843
H	 -1.019755	 1.099323	 1.513279
C	 -3.342450	 0.243269	 0.226009
H	 -1.826223	 0.246578	 -1.293162
H	 -1.508033	 -0.839650	 0.027695
C	 -4.234517	 -0.821434	 -0.405970
H	 -3.730149	 1.228245	 -0.022691
H	 -3.398860	 0.159952	 1.308941
C	 -5.719497	 -0.482911	 -0.328410
H	 -3.950176	 -0.956281	 -1.446012
H	 -4.057183	 -1.775218	 0.083626
H	 -6.323842	 -1.258216	 -0.785197
H	 -5.935593	 0.449076	 -0.840085
H	 -6.043136	 -0.375355	 0.701588
C	 4.720529	 -1.114346	 0.001449
H	 4.874321	 -1.055557	 -1.065852
H	 5.057824	 -2.067950	 0.373977
H	 5.264321	 -0.313596	 0.480350

	symmetry c1
}
set optking {
	frozen_dihedral = ("
		21 17 14 11
	")
}

ee,wfn = optimize('scf', return_wfn=True)
oeprop( wfn, 'DIPOLE', 'QUADRUPOLE', 'MULLIKEN_CHARGES')
f=open( 'psi4out.xyz', 'w' )
f.write( "29  " )
f.write( str(ee) + "\n" )
f.write( MOL.save_string_xyz() )
f.close()
--------------------------------------------------------------------------

    Molecular point group: c1
  Charge       = 0
  Multiplicity = 1
  Basis Set: CC-PVTZ
  Basis Set:
  @DF-RHF Final Energy:  -501.22380001430315
    Total Energy =                       -501.2238000143034924
    Molecular point group: c1
  Basis Set: CC-PVTZ
  Basis Set:
  Basis Set: CC-PVTZ
  Basis Set:
  @DF-RHF Final Energy:  -501.22389619983062
    Total Energy =                       -501.2238961998308469
  Basis Set: CC-PVTZ
  Basis Set:
  Basis Set: CC-PVTZ
  Basis Set:
  @DF-RHF Final Energy:  -501.22393279161008
    Total Energy =                       -501.2239327916096272
  Basis Set: CC-PVTZ
  Basis Set:
  Basis Set: CC-PVTZ
  Basis Set:
  @DF-RHF Final Energy:  -501.22375502384216
    Total Energy =                       -501.2237550238421591
  Basis Set: CC-PVTZ
  Basis Set:
  Basis Set: CC-PVTZ
  Basis Set:
  @DF-RHF Final Energy:  -501.22394318680620
    Total Energy =                       -501.2239431868060819
  Basis Set: CC-PVTZ
  Basis Set:
  Charge       = 0
  Multiplicity = 1
  Basis Set: CC-PVTZ
  Basis Set:

    Orbital Energies (a.u.)
    -----------------------

    Doubly Occupied:

       1A    -20.596000     2A    -20.533851     3A    -11.364258
       4A    -11.278252     5A    -11.232925     6A    -11.217058
       7A    -11.215507     8A    -11.213903     9A    -11.213771
      10A    -11.212243    11A    -11.207351    12A     -1.471871
      13A     -1.365488    14A     -1.099276    15A     -1.067729
      16A     -1.020562    17A     -0.978221    18A     -0.929271
      19A     -0.862303    20A     -0.800084    21A     -0.791176
      22A     -0.765691    23A     -0.702912    24A     -0.685446
      25A     -0.676104    26A     -0.649723    27A     -0.630694
      28A     -0.605301    29A     -0.596154    30A     -0.582197
      31A     -0.568103    32A     -0.550824    33A     -0.532153
      34A     -0.530838    35A     -0.517377    36A     -0.515199
      37A     -0.495735    38A     -0.478650    39A     -0.470386
      40A     -0.462846    41A     -0.459921    42A     -0.457487
      43A     -0.443768    44A     -0.437434

  @DF-RHF Final Energy:  -501.22394332581234

   => Energetics <=

    Nuclear Repulsion Energy =            611.1403296988107741
    One-Electron Energy =               -1893.7564719693359621
    Two-Electron Energy =                 781.3921989447121632
    DFT Exchange-Correlation Energy =       0.0000000000000000
    Empirical Dispersion Energy =           0.0000000000000000
    PCM Polarization Energy =               0.0000000000000000
    EFP Energy =                            0.0000000000000000
    Total Energy =                       -501.2239433258130248
    Molecular point group: c1
  Basis Set: CC-PVTZ
  Basis Set:

  -Total Gradient:
     Atom            X                  Y                   Z
    ------   -----------------  -----------------  -----------------
       1       -0.000034522810     0.000048738735    -0.000014629527
       2        0.000021444919     0.000006916019     0.000000858974
       3        0.000012061916    -0.000012002869    -0.000010160526
       4       -0.000012572962    -0.000061922512     0.000025438284
       5        0.000008378883     0.000002190969     0.000013809738
       6       -0.000006041854    -0.000003550300    -0.000001975380
       7        0.000006564787     0.000002964046    -0.000001447137
       8       -0.000000834297     0.000013350580    -0.000001424572
       9       -0.000005050005    -0.000000625065     0.000003559664
      10        0.000001353915     0.000001273116     0.000002183653
      11       -0.000415876900     0.001393452016    -0.001837186880
      12        0.000007649752     0.000002983068    -0.000004378602
      13       -0.000003295397     0.000004399558    -0.000004553254
      14        0.001064178645    -0.002496893813     0.002779062245
      15       -0.000010289616     0.000003469066    -0.000007792072
      16        0.000020331715    -0.000013409260    -0.000000992719
      17       -0.002725182163     0.003341129430    -0.001884744375
      18       -0.000001770222     0.000003884531    -0.000000667950
      19       -0.000000153278    -0.000001434771     0.000004318716
      20       -0.000018266944     0.000009153923    -0.000000721148
      21        0.002077764275    -0.002239600861     0.000938154150
      22       -0.000002004674    -0.000012040680     0.000003611112
      23        0.000016881843     0.000011975681     0.000010208050
      24        0.000000727062    -0.000015613025     0.000004243254
      25        0.000007113204     0.000000326965    -0.000014129676
      26       -0.000004002316     0.000022940233    -0.000007672195
      27        0.000002827431    -0.000003444093     0.000004636368
      28       -0.000011537187    -0.000002421628     0.000003904157
      29        0.000004122284    -0.000006189059    -0.000001512350

  **** Optimization is complete! (in 6 steps) ****
    Final optimized geometry and variables:
    Molecular point group: c1

    Geometry (in Angstrom), charge = 0, multiplicity = 1:

    O            3.230882698958     0.938830551273    -0.534199458895
    C            2.701130113309     0.030996416837     0.010054930175
    C            1.244392561403    -0.033804785065     0.392163430434
    O            3.338605051423    -1.073997832092     0.361933791233
    C            0.460406675318     1.214733281898     0.007710190198
    H            0.838399070509    -0.926346495386    -0.068432311251
    H            1.202521889718    -0.206965703279     1.462943213656
    C           -0.996351999670     1.197160594463     0.472790047796
    H            0.500840273655     1.345791603796    -1.068052011141
    H            0.957418352498     2.078460270053     0.431967561880
    C           -1.877234082302     0.144221694151    -0.197596584916
    H           -1.422150698284     2.177555626200     0.280721522161
    H           -1.029951586038     1.060977954023     1.551434229203
    C           -3.344072400244     0.243967978274     0.212998319326
    H           -1.804286750965     0.251797826031    -1.277031142087
    H           -1.511605689269    -0.852181250600     0.035097785424
    C           -4.226434863222    -0.835544909152    -0.414107018459
    H           -3.718064738259     1.223339542565    -0.076730450597
    H           -3.429244779676     0.197222311608     1.295533534155
    C           -5.715964223361    -0.522741894935    -0.338690413837
    H           -3.927577962667    -0.993707460553    -1.446555150679
    H           -4.034641096810    -1.781268408304     0.086741816155
    H           -6.309037387183    -1.327730053549    -0.757207268733
    H           -5.953450314669     0.383396492620    -0.885715976405
    H           -6.032913780910    -0.378893677939     0.689134423709
    C            4.717892823396    -1.150158452322     0.064159323584
    H            4.883035126707    -1.075136586319    -1.000423211312
    H            5.047656859736    -2.110878434247     0.424990634913
    H            5.259764684432    -0.359279147215     0.561294999822

  Mulliken Charges: (a.u.)
   Center  Symbol    Alpha    Beta     Spin     Total
       1     O     4.19699  4.19699  0.00000 -0.39398
       2     C     2.80491  2.80491  0.00000  0.39018
       3     C     3.10163  3.10163  0.00000 -0.20325
       4     O     4.14720  4.14720  0.00000 -0.29440
       5     C     3.09258  3.09258  0.00000 -0.18516
       6     H     0.43901  0.43901  0.00000  0.12198
       7     H     0.43991  0.43991  0.00000  0.12017
       8     C     3.10417  3.10417  0.00000 -0.20835
       9     H     0.44626  0.44626  0.00000  0.10747
      10     H     0.43957  0.43957  0.00000  0.12086
      11     C     3.09310  3.09310  0.00000 -0.18620
      12     H     0.44521  0.44521  0.00000  0.10957
      13     H     0.45363  0.45363  0.00000  0.09274
      14     C     3.08667  3.08667  0.00000 -0.17334
      15     H     0.45268  0.45268  0.00000  0.09464
      16     H     0.45403  0.45403  0.00000  0.09194
      17     C     3.08456  3.08456  0.00000 -0.16911
      18     H     0.45515  0.45515  0.00000  0.08970
      19     H     0.45337  0.45337  0.00000  0.09326
      20     C     3.14936  3.14936  0.00000 -0.29872
      21     H     0.45499  0.45499  0.00000  0.09002
      22     H     0.45455  0.45455  0.00000  0.09090
      23     H     0.44857  0.44857  0.00000  0.10286
      24     H     0.45499  0.45499  0.00000  0.09002
      25     H     0.45493  0.45493  0.00000  0.09014
      26     C     3.03811  3.03811  0.00000 -0.07622
      27     H     0.45435  0.45435  0.00000  0.09129
      28     H     0.44528  0.44528  0.00000  0.10945
      29     H     0.45424  0.45424  0.00000  0.09153

   Total alpha = 44.00000, Total beta = 44.00000, Total charge = -0.00000

*** Psi4 exiting successfully. Buy a developer a beer!
