  ==> Input File <==

--------------------------------------------------------------------------
set {
	reference rhf
	basis 6-31G*
}

set_num_threads( 1 )
memory 2 gb

molecule MOL {
0 1

H	 -3.455472	 0.053442	 0.207773
C	 -3.211690	 0.303595	 -0.832235
C	 -2.331353	 1.514855	 -1.006789
O	 -3.635037	 -0.361203	 -1.721375
C	 -1.054718	 1.441943	 -0.157589
H	 -2.103293	 1.622970	 -2.060833
H	 -2.915819	 2.381772	 -0.700998
C	 -0.091842	 0.335926	 -0.596789
H	 -0.550210	 2.402045	 -0.211993
H	 -1.323940	 1.300490	 0.888006
C	 1.180775	 0.282413	 0.250794
H	 0.173308	 0.488813	 -1.640900
H	 -0.593154	 -0.629074	 -0.552066
C	 2.148627	 -0.814315	 -0.201312
H	 1.671481	 1.251605	 0.210717
H	 0.912770	 0.117370	 1.293539
C	 3.580890	 -0.659131	 0.322722
H	 2.166869	 -0.852443	 -1.289387
H	 1.762857	 -1.776509	 0.128956
C	 4.324889	 0.564933	 -0.213704
H	 4.142010	 -1.551473	 0.056605
H	 3.564836	 -0.624694	 1.410140
H	 4.342616	 0.565491	 -1.300421
H	 3.866655	 1.493402	 0.110242
H	 5.353900	 0.572371	 0.132816

	symmetry c1
}
set optking {
	frozen_dihedral = ("
		6 3 5 8,
		6 3 2 4,
		3 5 8 12,
		12 8 11 14,
		20 17 14 18
	")
}

ee = energy('scf')
oeprop('DIPOLE', 'QUADRUPOLE', 'MULLIKEN_CHARGES')
f=open( 'psi4out.xyz', 'w' )
f.write( "25  " )
f.write( str(ee) + "\n" )
f.write( MOL.save_string_xyz() )
f.close()
--------------------------------------------------------------------------

    Molecular point group: c1

    Geometry (in Angstrom), charge = 0, multiplicity = 1:

       Center              X                  Y                   Z               Mass
    ------------   -----------------  -----------------  -----------------  -----------------
           H         -3.561258587003    -0.233274312525     0.676831555042     1.007825032070
           C         -3.317476587003     0.016878687475    -0.363176444958    12.000000000000
           C         -2.437139587003     1.228138687475    -0.537730444958    12.000000000000
           O         -3.740823587003    -0.647919312525    -1.252316444958    15.994914619560
           C         -1.160504587003     1.155226687475     0.311469555042    12.000000000000
           H         -2.209079587003     1.336253687475    -1.591774444958     1.007825032070
           H         -3.021605587003     2.095055687475    -0.231939444958     1.007825032070
           C         -0.197628587003     0.049209687475    -0.127730444958    12.000000000000
           H         -0.655996587003     2.115328687475     0.257065555042     1.007825032070
           H         -1.429726587003     1.013773687475     1.357064555042     1.007825032070
           C          1.074988412997    -0.004303312525     0.719852555042    12.000000000000
           H          0.067521412997     0.202096687475    -1.171841444958     1.007825032070
           H         -0.698940587003    -0.915790312525    -0.083007444958     1.007825032070
           C          2.042840412997    -1.101031312525     0.267746555042    12.000000000000
           H          1.565694412997     0.964888687475     0.679775555042     1.007825032070
           H          0.806983412997    -0.169346312525     1.762597555042     1.007825032070
           C          3.475103412997    -0.945847312525     0.791780555042    12.000000000000
           H          2.061082412997    -1.139159312525    -0.820328444958     1.007825032070
           H          1.657070412997    -2.063225312525     0.598014555042     1.007825032070
           C          4.219102412997     0.278216687475     0.255354555042    12.000000000000
           H          4.036223412997    -1.838189312525     0.525663555042     1.007825032070
           H          3.459049412997    -0.911410312525     1.879198555042     1.007825032070
           H          4.236829412997     0.278774687475    -0.831362444958     1.007825032070
           H          3.760868412997     1.206685687475     0.579300555042     1.007825032070
           H          5.248113412997     0.285654687475     0.601874555042     1.007825032070

  Charge       = 0
  Multiplicity = 1
  Basis Set: 6-31G*
  Basis Set:

    Orbital Energies (a.u.)
    -----------------------

    Doubly Occupied:

       1A    -20.561933     2A    -11.326084     3A    -11.235193
       4A    -11.234539     5A    -11.223901     6A    -11.219373
       7A    -11.218159     8A    -11.216735     9A    -11.210909
      10A     -1.401915    11A     -1.103990    12A     -1.069782
      13A     -1.013229    14A     -0.942646    15A     -0.875436
      16A     -0.820444    17A     -0.788110    18A     -0.781282
      19A     -0.664065    20A     -0.662379    21A     -0.631628
      22A     -0.627114    23A     -0.603409    24A     -0.593729
      25A     -0.575157    26A     -0.548810    27A     -0.537522
      28A     -0.523565    29A     -0.508338    30A     -0.495625
      31A     -0.491499    32A     -0.480098    33A     -0.464335
      34A     -0.457948    35A     -0.440997    36A     -0.409488

  @DF-RHF Final Energy:  -387.12060813766919

   => Energetics <=

    Nuclear Repulsion Energy =            439.9890391028347381
    One-Electron Energy =               -1396.3005515791890048
    Two-Electron Energy =                 569.1909043386801841
    DFT Exchange-Correlation Energy =       0.0000000000000000
    Empirical Dispersion Energy =           0.0000000000000000
    PCM Polarization Energy =               0.0000000000000000
    EFP Energy =                            0.0000000000000000
    Total Energy =                       -387.1206081376740258

  Mulliken Charges: (a.u.)
   Center  Symbol    Alpha    Beta     Spin     Total
       1     H     0.43261  0.43261  0.00000  0.13477
       2     C     2.83082  2.83082  0.00000  0.33836
       3     C     3.20813  3.20813  0.00000 -0.41625
       4     O     4.23777  4.23777  0.00000 -0.47554
       5     C     3.16665  3.16665  0.00000 -0.33330
       6     H     0.39973  0.39973  0.00000  0.20053
       7     H     0.40672  0.40672  0.00000  0.18656
       8     C     3.15526  3.15526  0.00000 -0.31051
       9     H     0.41285  0.41285  0.00000  0.17429
      10     H     0.41967  0.41967  0.00000  0.16066
      11     C     3.15466  3.15466  0.00000 -0.30933
      12     H     0.41789  0.41789  0.00000  0.16422
      13     H     0.41836  0.41836  0.00000  0.16329
      14     C     3.15371  3.15371  0.00000 -0.30742
      15     H     0.42101  0.42101  0.00000  0.15797
      16     H     0.42263  0.42263  0.00000  0.15474
      17     C     3.15311  3.15311  0.00000 -0.30621
      18     H     0.42273  0.42273  0.00000  0.15454
      19     H     0.42009  0.42009  0.00000  0.15982
      20     C     3.24125  3.24125  0.00000 -0.48249
      21     H     0.41991  0.41991  0.00000  0.16018
      22     H     0.42334  0.42334  0.00000  0.15332
      23     H     0.42171  0.42171  0.00000  0.15658
      24     H     0.42102  0.42102  0.00000  0.15795
      25     H     0.41838  0.41838  0.00000  0.16325

   Total alpha = 36.00000, Total beta = 36.00000, Total charge = -0.00000
