  ==> Input File <==

--------------------------------------------------------------------------
set {
	reference rhf
	basis cc-pvtz
}

set_num_threads( 4 )
memory 2 gb

molecule MOL {
0 1

H	 -2.561553	 -1.285425	 -0.150816
C	 -2.879063	 -0.470854	 -0.816057
C	 -2.653809	 0.914422	 -0.273689
O	 -3.365438	 -0.719017	 -1.864466
C	 -1.216901	 1.136108	 0.207794
H	 -2.935203	 1.631817	 -1.033620
H	 -3.334478	 1.033101	 0.566496
C	 -0.247837	 0.040196	 -0.230469
H	 -0.872882	 2.093195	 -0.169002
H	 -1.209325	 1.218376	 1.291938
C	 1.181757	 0.280428	 0.247371
H	 -0.259600	 -0.030819	 -1.314870
H	 -0.591284	 -0.923375	 0.136958
C	 2.151032	 -0.811012	 -0.202643
H	 1.515939	 1.247397	 -0.115449
H	 1.191514	 0.341223	 1.333422
C	 3.580021	 -0.656538	 0.320835
H	 2.170545	 -0.847575	 -1.289412
H	 1.766632	 -1.772905	 0.124928
C	 4.327657	 0.562694	 -0.213579
H	 4.138806	 -1.549270	 0.057813
H	 3.561991	 -0.620783	 1.406976
H	 4.355973	 0.557257	 -1.298551
H	 3.867136	 1.491650	 0.100501
H	 5.351524	 0.571613	 0.142204

	symmetry c1
}
set optking {
	frozen_dihedral = ("
		6 3 5 8
	")
}

ee = optimize('scf')
oeprop('DIPOLE', 'QUADRUPOLE', 'MULLIKEN_CHARGES')
f=open( 'psi4out.xyz', 'w' )
f.write( "25  " )
f.write( str(ee) + "\n" )
f.write( MOL.save_string_xyz() )
f.close()
--------------------------------------------------------------------------

    Molecular point group: c1
  Charge       = 0
  Multiplicity = 1
  Basis Set: CC-PVTZ
  Basis Set:
  @DF-RHF Final Energy:  -387.24991278951131
    Total Energy =                       -387.2499127895114270
    Molecular point group: c1
  Basis Set: CC-PVTZ
  Basis Set:
  Basis Set: CC-PVTZ
  Basis Set:
  @DF-RHF Final Energy:  -387.25033261886063
    Total Energy =                       -387.2503326188609662
  Basis Set: CC-PVTZ
  Basis Set:
  Basis Set: CC-PVTZ
  Basis Set:
  @DF-RHF Final Energy:  -387.25223561860923
    Total Energy =                       -387.2522356186094612
  Basis Set: CC-PVTZ
  Basis Set:
  Basis Set: CC-PVTZ
  Basis Set:
  @DF-RHF Final Energy:  -387.25189957747239
    Total Energy =                       -387.2518995774726136
  Basis Set: CC-PVTZ
  Basis Set:
  @DF-RHF Final Energy:  -387.25211349630541
    Total Energy =                       -387.2521134963053555
  Basis Set: CC-PVTZ
  Basis Set:
  @DF-RHF Final Energy:  -387.25267638352477
    Total Energy =                       -387.2526763835251131
  Basis Set: CC-PVTZ
  Basis Set:
  Basis Set: CC-PVTZ
  Basis Set:
  @DF-RHF Final Energy:  -387.25268501748843
    Total Energy =                       -387.2526850174884885
  Basis Set: CC-PVTZ
  Basis Set:
  Basis Set: CC-PVTZ
  Basis Set:
  @DF-RHF Final Energy:  -387.25268979527135
    Total Energy =                       -387.2526897952717491
  Basis Set: CC-PVTZ
  Basis Set:
  Charge       = 0
  Multiplicity = 1
  Basis Set: CC-PVTZ
  Basis Set:

    Orbital Energies (a.u.)
    -----------------------

    Doubly Occupied:

       1A    -20.550110     2A    -11.320239     3A    -11.233400
       4A    -11.232848     5A    -11.223554     6A    -11.218424
       7A    -11.216718     8A    -11.215704     9A    -11.208870
      10A     -1.405016    11A     -1.103668    12A     -1.068429
      13A     -1.013782    14A     -0.944100    15A     -0.878037
      16A     -0.830576    17A     -0.783125    18A     -0.775349
      19A     -0.676536    20A     -0.655446    21A     -0.632886
      22A     -0.626949    23A     -0.609131    24A     -0.591416
      25A     -0.576476    26A     -0.552764    27A     -0.539539
      28A     -0.525039    29A     -0.505156    30A     -0.498828
      31A     -0.494399    32A     -0.472797    33A     -0.465372
      34A     -0.460418    35A     -0.443949    36A     -0.410203

  @DF-RHF Final Energy:  -387.25269074612447

   => Energetics <=

    Nuclear Repulsion Energy =            440.9901709133384884
    One-Electron Energy =               -1398.5672198903594108
    Two-Electron Energy =                 570.3243582308964506
    DFT Exchange-Correlation Energy =       0.0000000000000000
    Empirical Dispersion Energy =           0.0000000000000000
    PCM Polarization Energy =               0.0000000000000000
    EFP Energy =                            0.0000000000000000
    Total Energy =                       -387.2526907461244718
    Molecular point group: c1
  Basis Set: CC-PVTZ
  Basis Set:

  -Total Gradient:
     Atom            X                  Y                   Z
    ------   -----------------  -----------------  -----------------
       1       -0.000025578631     0.000008246057     0.000015199632
       2        0.000155018558    -0.000005842129    -0.000050032116
       3        0.001131062352    -0.003227816794    -0.002264003546
       4       -0.000053238224     0.000006810448     0.000029965828
       5        0.000524455911     0.002481680693    -0.002313036578
       6       -0.001088982818     0.002099334797     0.002544070338
       7       -0.000011088110     0.000005605687     0.000002384481
       8       -0.000604853301    -0.001386142058     0.002044811323
       9       -0.000003225642    -0.000009881624    -0.000013905629
      10       -0.000000127299     0.000019277524     0.000011618851
      11       -0.000009168146     0.000003384124     0.000009317188
      12       -0.000019501940     0.000007636872    -0.000017629748
      13        0.000008999805     0.000008421699    -0.000013809079
      14       -0.000015701473    -0.000017720170     0.000028932897
      15        0.000016844098     0.000023020153    -0.000002716507
      16        0.000009008601     0.000000195867    -0.000008522500
      17        0.000014315367    -0.000017048944    -0.000019600937
      18        0.000001256734    -0.000007674574     0.000010280346
      19       -0.000005442557    -0.000002033073     0.000003878117
      20       -0.000015069980     0.000000988972     0.000005533707
      21        0.000009515829     0.000005598525    -0.000006532640
      22        0.000000812239    -0.000008794552    -0.000004610519
      23        0.000000436664    -0.000004740541     0.000006261986
      24       -0.000019406066     0.000013337628    -0.000002471210
      25       -0.000000341976     0.000004155412     0.000004616317

  **** Optimization is complete! (in 9 steps) ****
    Final optimized geometry and variables:
    Molecular point group: c1

    Geometry (in Angstrom), charge = 0, multiplicity = 1:

    H           -3.032906466479    -1.315973259203     0.147017125201
    C           -3.117334966440    -0.460152754286    -0.532471493177
    C           -2.764687036490     0.877990992453     0.057213026053
    O           -3.492791731832    -0.624676919972    -1.641922832917
    C           -1.307706773442     1.023431236923     0.572235782872
    H           -2.996950776963     1.642160123821    -0.671202861291
    H           -3.448259666912     1.028240406915     0.889172823806
    C           -0.325113840711    -0.062627331036     0.129279859409
    H           -0.935282950333     1.987648449466     0.248365823729
    H           -1.313456882631     1.054102034624     1.656056429056
    C            1.102739949047     0.221797779392     0.588180707854
    H           -0.341596001862    -0.153642349776    -0.953647125260
    H           -0.634861521367    -1.026203838674     0.522264247255
    C            2.090536888459    -0.864790555624     0.167646031337
    H            1.414137848415     1.182161744016     0.190029150653
    H            1.118682582497     0.319696708291     1.671466933249
    C            3.520567561002    -0.661340498693     0.671169354507
    H            2.100859732264    -0.939872999799    -0.917145296862
    H            1.730215788136    -1.822423581402     0.533351885833
    C            4.235291617749     0.555584461183     0.088672882942
    H            4.096735956171    -1.549797626454     0.432258781910
    H            3.511960671158    -0.589540057774     1.755658045342
    H            4.252957680375     0.514446120033    -0.995696518171
    H            3.757231121821     1.484146732493     0.376572820213
    H            5.262129172876     0.598895457233     0.433168338680

  Mulliken Charges: (a.u.)
   Center  Symbol    Alpha    Beta     Spin     Total
       1     H     0.46180  0.46180  0.00000  0.07640
       2     C     2.90335  2.90335  0.00000  0.19330
       3     C     3.08638  3.08638  0.00000 -0.17277
       4     O     4.16931  4.16931  0.00000 -0.33863
       5     C     3.10564  3.10564  0.00000 -0.21129
       6     H     0.44154  0.44154  0.00000  0.11691
       7     H     0.44702  0.44702  0.00000  0.10597
       8     C     3.10035  3.10035  0.00000 -0.20069
       9     H     0.44506  0.44506  0.00000  0.10987
      10     H     0.44823  0.44823  0.00000  0.10354
      11     C     3.09419  3.09419  0.00000 -0.18837
      12     H     0.44273  0.44273  0.00000  0.11454
      13     H     0.45234  0.45234  0.00000  0.09532
      14     C     3.09523  3.09523  0.00000 -0.19046
      15     H     0.45080  0.45080  0.00000  0.09839
      16     H     0.45423  0.45423  0.00000  0.09154
      17     C     3.09097  3.09097  0.00000 -0.18194
      18     H     0.45191  0.45191  0.00000  0.09618
      19     H     0.44937  0.44937  0.00000  0.10127
      20     C     3.15274  3.15274  0.00000 -0.30548
      21     H     0.44774  0.44774  0.00000  0.10453
      22     H     0.45487  0.45487  0.00000  0.09026
      23     H     0.45403  0.45403  0.00000  0.09195
      24     H     0.45423  0.45423  0.00000  0.09154
      25     H     0.44594  0.44594  0.00000  0.10812

   Total alpha = 36.00000, Total beta = 36.00000, Total charge = -0.00000
