  ==> Input File <==

--------------------------------------------------------------------------
set {
	reference rhf
	basis 6-31G*
}

set_num_threads( 4 )
memory 2 gb

molecule MOL {
0 1

H	 -1.020291	 0.811564	 -0.595770
N	 -0.712432	 0.000013	 -0.096310
C	 0.734192	 -0.000004	 0.040609
H	 -1.018030	 -0.796882	 -0.620167
H	 1.139899	 -0.873598	 -0.456463
H	 1.139939	 0.873831	 -0.456100
H	 1.096456	 -0.000300	 1.069655

	symmetry c1
}
set optking {
	frozen_dihedral = ("
		1 2 3 7
	")
}

ee = optimize('scf')
oeprop('DIPOLE', 'QUADRUPOLE', 'MULLIKEN_CHARGES')
f=open( 'psi4out.xyz', 'w' )
f.write( "7  " )
f.write( str(ee) + "\n" )
f.write( MOL.save_string_xyz() )
f.close()
--------------------------------------------------------------------------

    Molecular point group: c1
  Charge       = 0
  Multiplicity = 1
  Basis Set: 6-31G*
  Basis Set:
  @DF-RHF Final Energy:   -95.20474947794662
    Total Energy =                        -95.2047494779465922
    Molecular point group: c1
  Basis Set: 6-31G*
  Basis Set:
  Basis Set: 6-31G*
  Basis Set:
  @DF-RHF Final Energy:   -95.20581769852623
    Total Energy =                        -95.2058176985262321
  Basis Set: 6-31G*
  Basis Set:
  Basis Set: 6-31G*
  Basis Set:
  @DF-RHF Final Energy:   -95.20598675425580
    Total Energy =                        -95.2059867542558607
  Basis Set: 6-31G*
  Basis Set:
  Charge       = 0
  Multiplicity = 1
  Basis Set: 6-31G*
  Basis Set:

    Orbital Energies (a.u.)
    -----------------------

    Doubly Occupied:

       1A    -15.531828     2A    -11.237420     3A     -1.166835
       4A     -0.897505     5A     -0.663843     6A     -0.599204
       7A     -0.559273     8A     -0.518529     9A     -0.379068

  @DF-RHF Final Energy:   -95.20598732126098

   => Energetics <=

    Nuclear Repulsion Energy =             42.2378248828913527
    One-Electron Energy =                -211.7806165644300904
    Two-Electron Energy =                  74.3368043602779380
    DFT Exchange-Correlation Energy =       0.0000000000000000
    Empirical Dispersion Energy =           0.0000000000000000
    PCM Polarization Energy =               0.0000000000000000
    EFP Energy =                            0.0000000000000000
    Total Energy =                        -95.2059873212608068
    Molecular point group: c1
  Basis Set: 6-31G*
  Basis Set:

  -Total Gradient:
     Atom            X                  Y                   Z
    ------   -----------------  -----------------  -----------------
       1        0.000005659211     0.000007657317    -0.000041807543
       2       -0.000046758300    -0.000063895391     0.000077027543
       3        0.000053640935     0.000107690936    -0.000020872203
       4       -0.000046491247    -0.000017176627    -0.000037185990
       5       -0.000023508811    -0.000004025747     0.000013120679
       6        0.000041678040    -0.000003622414     0.000004977292
       7        0.000015780172    -0.000026628073     0.000004740222

  **** Optimization is complete! (in 4 steps) ****
    Final optimized geometry and variables:
    Molecular point group: c1

    Geometry (in Angstrom), charge = 0, multiplicity = 1:

    H           -1.051657352716     0.807764468426    -0.513393448316
    N           -0.721489297882     0.000595435040    -0.026143304737
    C            0.734212801253    -0.000901991913     0.086952109918
    H           -1.052929967079    -0.800643546170    -0.522266605465
    H            1.174081515769    -0.873012363938    -0.386995664108
    H            1.175953263640     0.874944550839    -0.378331288831
    H            1.037031518116    -0.006586428976     1.128907363431

  Mulliken Charges: (a.u.)
   Center  Symbol    Alpha    Beta     Spin     Total
       1     H     0.33103  0.33103  0.00000  0.33793
       2     N     3.92557  3.92557  0.00000 -0.85114
       3     C     3.14546  3.14546  0.00000 -0.29092
       4     H     0.33102  0.33102  0.00000  0.33795
       5     H     0.42513  0.42513  0.00000  0.14973
       6     H     0.42513  0.42513  0.00000  0.14974
       7     H     0.41665  0.41665  0.00000  0.16671

   Total alpha =  9.00000, Total beta =  9.00000, Total charge =  0.00000
