  ==> Input File <==

--------------------------------------------------------------------------
set {
	reference rhf
	basis cc-pvtz
}

set_num_threads( 4 )
memory 2 gb

molecule MOL {
0 1

H	 2.765724	 1.036655	 -1.245559
N	 1.954348	 0.456035	 -1.257336
C	 1.263552	 0.494993	 0.021953
H	 2.258625	 -0.471084	 -1.469945
C	 -0.016533	 -0.325589	 -0.026925
H	 1.016870	 1.529987	 0.233918
H	 1.882474	 0.145141	 0.849312
C	 -1.280353	 0.525521	 0.047747
H	 -0.016686	 -0.912532	 -0.939714
H	 -0.014099	 -1.037598	 0.796369
C	 -2.560681	 -0.301323	 -0.007747
H	 -1.279957	 1.241025	 -0.770189
H	 -1.270445	 1.110526	 0.963468
H	 -2.617064	 -0.872870	 -0.928010
H	 -3.439525	 0.331102	 0.043462
H	 -2.609427	 -1.002736	 0.818585

	symmetry c1
}
set optking {
	frozen_dihedral = ("
		6 3 5 9
	")
}

ee = optimize('scf')
oeprop('DIPOLE', 'QUADRUPOLE', 'MULLIKEN_CHARGES')
f=open( 'psi4out.xyz', 'w' )
f.write( "16  " )
f.write( str(ee) + "\n" )
f.write( MOL.save_string_xyz() )
f.close()
--------------------------------------------------------------------------

    Molecular point group: c1
  Charge       = 0
  Multiplicity = 1
  Basis Set: CC-PVTZ
  Basis Set:
  @DF-RHF Final Energy:  -212.39453471686846
    Total Energy =                       -212.3945347168684634
    Molecular point group: c1
  Basis Set: CC-PVTZ
  Basis Set:
  Basis Set: CC-PVTZ
  Basis Set:
  @DF-RHF Final Energy:  -212.39491738201957
    Total Energy =                       -212.3949173820196279
  Basis Set: CC-PVTZ
  Basis Set:
  Basis Set: CC-PVTZ
  Basis Set:
  @DF-RHF Final Energy:  -212.39501918350626
    Total Energy =                       -212.3950191835063492
  Basis Set: CC-PVTZ
  Basis Set:
  Basis Set: CC-PVTZ
  Basis Set:
  @DF-RHF Final Energy:  -212.39502188654353
    Total Energy =                       -212.3950218865434181
  Basis Set: CC-PVTZ
  Basis Set:
  Charge       = 0
  Multiplicity = 1
  Basis Set: CC-PVTZ
  Basis Set:

    Orbital Energies (a.u.)
    -----------------------

    Doubly Occupied:

       1A    -15.527012     2A    -11.238304     3A    -11.209757
       4A    -11.207735     5A    -11.203440     6A     -1.177317
       7A     -1.057371     8A     -0.956860     9A     -0.845119
      10A     -0.790851    11A     -0.659434    12A     -0.643867
      13A     -0.597844    14A     -0.575968    15A     -0.569872
      16A     -0.515274    17A     -0.504438    18A     -0.467686
      19A     -0.463471    20A     -0.462576    21A     -0.382039

  @DF-RHF Final Energy:  -212.39502204123502

   => Energetics <=

    Nuclear Repulsion Energy =            187.2765758454428067
    One-Electron Energy =                -657.2307265073641247
    Two-Electron Energy =                 257.5591286206865220
    DFT Exchange-Correlation Energy =       0.0000000000000000
    Empirical Dispersion Energy =           0.0000000000000000
    PCM Polarization Energy =               0.0000000000000000
    EFP Energy =                            0.0000000000000000
    Total Energy =                       -212.3950220412347676
    Molecular point group: c1
  Basis Set: CC-PVTZ
  Basis Set:

  -Total Gradient:
     Atom            X                  Y                   Z
    ------   -----------------  -----------------  -----------------
       1        0.000004419702    -0.000001080612    -0.000010238437
       2       -0.000002548437    -0.000004476489     0.000037632979
       3        0.000057535189    -0.000113540969     0.002723840138
       4        0.000002176549     0.000000320277    -0.000004846241
       5        0.001333735607    -0.002171956667     0.000863781899
       6       -0.000249675624     0.000446653560    -0.002418540942
       7       -0.000002271816    -0.000008971597    -0.000012238035
       8        0.000016620667    -0.000000159681    -0.000034064654
       9       -0.001159083269     0.001852614383    -0.001155638682
      10        0.000010622921     0.000005557100     0.000000523689
      11       -0.000009202017    -0.000002162711     0.000015297399
      12        0.000002674520     0.000005225040    -0.000003380933
      13        0.000001680346    -0.000006784956    -0.000004315392
      14        0.000001720184     0.000005084151     0.000001167203
      15       -0.000005991363    -0.000002556849     0.000004046133
      16       -0.000002413161    -0.000003763981    -0.000003026126

  **** Optimization is complete! (in 5 steps) ****
    Final optimized geometry and variables:
    Molecular point group: c1

    Geometry (in Angstrom), charge = 0, multiplicity = 1:

    H            2.827040903305     0.902653882526    -1.026601615417
    N            2.028728074768     0.303428338319    -1.016151549044
    C            1.380348587393     0.319828373152     0.289676480585
    H            2.348598615804    -0.615188983499    -1.242665178885
    C            0.082911155897    -0.504491448151     0.269166467326
    H            1.147162835320     1.356006818419     0.504888029899
    H            2.034136446233    -0.032517381491     1.085427508172
    C           -1.180006207401     0.354097667923     0.306633469752
    H            0.063122579384    -1.091636753251    -0.643078717051
    H            0.066145411201    -1.202172497102     1.100520506924
    C           -2.463681815966    -0.464337311309     0.227812656605
    H           -1.147500864241     1.060271186445    -0.517764868423
    H           -1.185259386195     0.945367845376     1.218591025232
    H           -2.506084541646    -1.036551758396    -0.692993376298
    H           -3.339432109849     0.173726741848     0.260826707846
    H           -2.533802371381    -1.164542568649     1.054009817056

  Mulliken Charges: (a.u.)
   Center  Symbol    Alpha    Beta     Spin     Total
       1     H     0.42923  0.42923  0.00000  0.14153
       2     N     3.69099  3.69099  0.00000 -0.38198
       3     C     3.03449  3.03449  0.00000 -0.06897
       4     H     0.43059  0.43059  0.00000  0.13881
       5     C     3.08241  3.08241  0.00000 -0.16482
       6     H     0.45872  0.45872  0.00000  0.08255
       7     H     0.46117  0.46117  0.00000  0.07767
       8     C     3.08533  3.08533  0.00000 -0.17067
       9     H     0.45716  0.45716  0.00000  0.08567
      10     H     0.45257  0.45257  0.00000  0.09486
      11     C     3.15101  3.15101  0.00000 -0.30202
      12     H     0.45007  0.45007  0.00000  0.09987
      13     H     0.45625  0.45625  0.00000  0.08750
      14     H     0.45446  0.45446  0.00000  0.09108
      15     H     0.44905  0.44905  0.00000  0.10190
      16     H     0.45649  0.45649  0.00000  0.08701

   Total alpha = 21.00000, Total beta = 21.00000, Total charge = -0.00000
