  ==> Input File <==

--------------------------------------------------------------------------
set {
	reference rhf
	basis 6-31G*
}

set_num_threads( 1 )
memory 2 gb

molecule MOL {
0 1

O	 -1.756524	 -0.779996	 -0.238678
C	 -1.083277	 0.139568	 0.115197
C	 0.323299	 -0.082943	 0.642902
C	 -1.599016	 1.561081	 0.081414
C	 1.355627	 -0.005344	 -0.493127
H	 0.396251	 -1.044647	 1.143147
H	 0.528637	 0.693580	 1.371677
C	 2.786168	 -0.195604	 0.007473
H	 1.132807	 -0.760304	 -1.243899
H	 1.259610	 0.958506	 -0.981915
H	 3.495561	 -0.130713	 -0.811210
H	 2.912696	 -1.165395	 0.480041
H	 3.049284	 0.565503	 0.735850
H	 -1.457587	 2.045170	 1.043352
H	 -2.647278	 1.568054	 -0.182845
H	 -1.038496	 2.135251	 -0.651628

	symmetry c1
}
set optking {
	frozen_dihedral = ("
		9 5 3 2
	")
}

ee = energy('scf')
oeprop('DIPOLE', 'QUADRUPOLE', 'MULLIKEN_CHARGES')
f=open( 'psi4out.xyz', 'w' )
f.write( "16  " )
f.write( str(ee) + "\n" )
f.write( MOL.save_string_xyz() )
f.close()
--------------------------------------------------------------------------

    Molecular point group: c1

    Geometry (in Angstrom), charge = 0, multiplicity = 1:

       Center              X                  Y                   Z               Mass
    ------------   -----------------  -----------------  -----------------  -----------------
           O         -1.768018432769    -0.889533047965    -0.254226474470    15.994914619560
           C         -1.094771432769     0.030030952035     0.099648525530    12.000000000000
           C          0.311804567231    -0.192480047965     0.627353525530    12.000000000000
           C         -1.610510432769     1.451543952035     0.065865525530    12.000000000000
           C          1.344132567231    -0.114881047965    -0.508675474470    12.000000000000
           H          0.384756567231    -1.154184047965     1.127598525530     1.007825032070
           H          0.517142567231     0.584042952035     1.356128525530     1.007825032070
           C          2.774673567231    -0.305141047965    -0.008075474470    12.000000000000
           H          1.121312567231    -0.869841047965    -1.259447474470     1.007825032070
           H          1.248115567231     0.848968952035    -0.997463474470     1.007825032070
           H          3.484066567231    -0.240250047965    -0.826758474470     1.007825032070
           H          2.901201567231    -1.274932047965     0.464492525530     1.007825032070
           H          3.037789567231     0.455965952035     0.720301525530     1.007825032070
           H         -1.469081432769     1.935632952035     1.027803525530     1.007825032070
           H         -2.658772432769     1.458516952035    -0.198393474470     1.007825032070
           H         -1.049990432769     2.025713952035    -0.667176474470     1.007825032070

  Charge       = 0
  Multiplicity = 1
  Basis Set: 6-31G*
  Basis Set:

    Orbital Energies (a.u.)
    -----------------------

    Doubly Occupied:

       1A    -20.547475     2A    -11.324360     3A    -11.234187
       4A    -11.229786     5A    -11.229146     6A    -11.220030
       7A     -1.392987     8A     -1.083727     9A     -1.013378
      10A     -0.949593    11A     -0.829838    12A     -0.735653
      13A     -0.658634    14A     -0.649345    15A     -0.611560
      16A     -0.608395    17A     -0.576085    18A     -0.558199
      19A     -0.537456    20A     -0.519351    21A     -0.504796
      22A     -0.485292    23A     -0.470889    24A     -0.397472

  @DF-RHF Final Energy:  -270.02920211681089

   => Energetics <=

    Nuclear Repulsion Energy =            237.0337595428094630
    One-Electron Energy =                -835.3906757271863626
    Two-Electron Energy =                 328.3277140675664896
    DFT Exchange-Correlation Energy =       0.0000000000000000
    Empirical Dispersion Energy =           0.0000000000000000
    PCM Polarization Energy =               0.0000000000000000
    EFP Energy =                            0.0000000000000000
    Total Energy =                       -270.0292021168104384

  Mulliken Charges: (a.u.)
   Center  Symbol    Alpha    Beta     Spin     Total
       1     O     4.26075  4.26075  0.00000 -0.52151
       2     C     2.73951  2.73951  0.00000  0.52099
       3     C     3.19673  3.19673  0.00000 -0.39345
       4     C     3.28961  3.28961  0.00000 -0.57922
       5     C     3.16249  3.16249  0.00000 -0.32499
       6     H     0.40007  0.40007  0.00000  0.19985
       7     H     0.41857  0.41857  0.00000  0.16285
       8     C     3.23951  3.23951  0.00000 -0.47902
       9     H     0.40742  0.40742  0.00000  0.18517
      10     H     0.41993  0.41993  0.00000  0.16014
      11     H     0.41553  0.41553  0.00000  0.16895
      12     H     0.41734  0.41734  0.00000  0.16532
      13     H     0.42057  0.42057  0.00000  0.15887
      14     H     0.40930  0.40930  0.00000  0.18141
      15     H     0.39579  0.39579  0.00000  0.20842
      16     H     0.40689  0.40689  0.00000  0.18622

   Total alpha = 24.00000, Total beta = 24.00000, Total charge =  0.00000
