  ==> Input File <==

--------------------------------------------------------------------------
set {
	reference rhf
	basis 6-31G*
}

set_num_threads( 4 )
memory 2 gb

molecule MOL {
0 1

H	 -2.698709	 -0.000305	 0.034435
C	 -1.693833	 0.000034	 0.434417
O	 -0.828952	 -0.000968	 -0.659236
H	 -1.574200	 0.882896	 1.055746
H	 -1.574147	 -0.881698	 1.057355
C	 0.074329	 -1.072314	 -0.803474
C	 1.090324	 -1.138522	 0.335073
C	 -0.632257	 -2.407477	 -1.029384
H	 0.609717	 -0.822463	 -1.711750
H	 1.534638	 -0.162846	 0.499968
H	 1.883454	 -1.835956	 0.084542
H	 0.643439	 -1.473677	 1.265734
H	 -1.380700	 -2.309943	 -1.808344
H	 0.086249	 -3.159690	 -1.339850
H	 -1.118377	 -2.772516	 -0.130344

	symmetry c1
}
set optking {
	frozen_dihedral = ("
		6 3 2 1
	")
}

ee = optimize('scf')
oeprop('DIPOLE', 'QUADRUPOLE', 'MULLIKEN_CHARGES')
f=open( 'psi4out.xyz', 'w' )
f.write( "15  " )
f.write( str(ee) + "\n" )
f.write( MOL.save_string_xyz() )
f.close()
--------------------------------------------------------------------------

    Molecular point group: c1
  Charge       = 0
  Multiplicity = 1
  Basis Set: 6-31G*
  Basis Set:
  @DF-RHF Final Energy:  -232.13456674395351
    Total Energy =                       -232.1345667439535987
    Molecular point group: c1
  Basis Set: 6-31G*
  Basis Set:
  Basis Set: 6-31G*
  Basis Set:
  @DF-RHF Final Energy:  -232.13518734437741
    Total Energy =                       -232.1351873443774707
  Basis Set: 6-31G*
  Basis Set:
  Basis Set: 6-31G*
  Basis Set:
  @DF-RHF Final Energy:  -232.13530447132803
    Total Energy =                       -232.1353044713280838
  Basis Set: 6-31G*
  Basis Set:
  Basis Set: 6-31G*
  Basis Set:
  @DF-RHF Final Energy:  -232.13528560438883
    Total Energy =                       -232.1352856043889687
  Basis Set: 6-31G*
  Basis Set:
  Basis Set: 6-31G*
  Basis Set:
  @DF-RHF Final Energy:  -232.13534611439374
    Total Energy =                       -232.1353461143935988
  Basis Set: 6-31G*
  Basis Set:
  Basis Set: 6-31G*
  Basis Set:
  @DF-RHF Final Energy:  -232.13534892162673
    Total Energy =                       -232.1353489216267008
  Basis Set: 6-31G*
  Basis Set:
  Charge       = 0
  Multiplicity = 1
  Basis Set: 6-31G*
  Basis Set:

    Orbital Energies (a.u.)
    -----------------------

    Doubly Occupied:

       1A    -20.545734     2A    -11.275012     3A    -11.261464
       4A    -11.210466     5A    -11.210423     6A     -1.367794
       7A     -1.049922     8A     -0.939755     9A     -0.931499
      10A     -0.781609    11A     -0.675712    12A     -0.638108
      13A     -0.631921    14A     -0.569015    15A     -0.563540
      16A     -0.552376    17A     -0.538587    18A     -0.500849
      19A     -0.497942    20A     -0.441671    21A     -0.402699

  @DF-RHF Final Energy:  -232.13534922951771

   => Energetics <=

    Nuclear Repulsion Energy =            198.5955728583335258
    One-Electron Energy =                -708.2896474551157553
    Two-Electron Energy =                 277.5587253672645716
    DFT Exchange-Correlation Energy =       0.0000000000000000
    Empirical Dispersion Energy =           0.0000000000000000
    PCM Polarization Energy =               0.0000000000000000
    EFP Energy =                            0.0000000000000000
    Total Energy =                       -232.1353492295176579
    Molecular point group: c1
  Basis Set: 6-31G*
  Basis Set:

  -Total Gradient:
     Atom            X                  Y                   Z
    ------   -----------------  -----------------  -----------------
       1        0.000005771004     0.000076877368    -0.000000189694
       2        0.000040866676    -0.000131916489     0.000016153327
       3       -0.000061893572     0.000022939778    -0.000084911362
       4        0.000010325557     0.000000930828    -0.000012866955
       5       -0.000034103659     0.000016119025     0.000017371838
       6        0.000004713731     0.000032833177     0.000086551824
       7        0.000027534845    -0.000001920802    -0.000003842590
       8        0.000001539322    -0.000018940740    -0.000015892945
       9       -0.000017739019     0.000016158549     0.000009602583
      10        0.000009975605    -0.000000425057    -0.000001781460
      11        0.000001282457    -0.000002702795     0.000004001519
      12        0.000005610514    -0.000000043908    -0.000007508196
      13        0.000006262297    -0.000003560791    -0.000006988614
      14       -0.000000164282    -0.000008581021     0.000002826517
      15        0.000000018524     0.000002232875    -0.000002525791

  **** Optimization is complete! (in 7 steps) ****
    Final optimized geometry and variables:
    Molecular point group: c1

    Geometry (in Angstrom), charge = 0, multiplicity = 1:

    H           -2.315242889563     0.912058315328     0.409176715904
    C           -1.291727954414     0.910329147775     0.768589668439
    O           -0.415318287929     0.912322471828    -0.321411974911
    H           -1.132710037065     1.806119288101     1.359211136638
    H           -1.163529011876     0.052206113927     1.417119724162
    C            0.494116362643    -0.151317328954    -0.476528830907
    C            1.511585798170    -0.213991412313     0.660714367736
    C           -0.209867734979    -1.485281123529    -0.716195458362
    H            1.027309061430     0.108744573153    -1.383090669575
    H            1.976497940094     0.756037673011     0.798691570337
    H            2.289291326252    -0.935639142281     0.430224382851
    H            1.058002805710    -0.511259367422     1.601031850091
    H           -0.926465126988    -1.388637886555    -1.524467354246
    H            0.512553712091    -2.248127496670    -0.989863712914
    H           -0.736614555134    -1.835198479034     0.166093125076

  Mulliken Charges: (a.u.)
   Center  Symbol    Alpha    Beta     Spin     Total
       1     H     0.42060  0.42060  0.00000  0.15880
       2     C     3.07869  3.07869  0.00000 -0.15738
       3     O     4.31557  4.31557  0.00000 -0.63115
       4     H     0.42033  0.42033  0.00000  0.15935
       5     H     0.42963  0.42963  0.00000  0.14075
       6     C     2.90995  2.90995  0.00000  0.18010
       7     C     3.25100  3.25100  0.00000 -0.50200
       8     C     3.25109  3.25109  0.00000 -0.50218
       9     H     0.41548  0.41548  0.00000  0.16904
      10     H     0.41163  0.41163  0.00000  0.17673
      11     H     0.42007  0.42007  0.00000  0.15986
      12     H     0.42215  0.42215  0.00000  0.15570
      13     H     0.41165  0.41165  0.00000  0.17671
      14     H     0.42002  0.42002  0.00000  0.15995
      15     H     0.42214  0.42214  0.00000  0.15572

   Total alpha = 21.00000, Total beta = 21.00000, Total charge = -0.00000
