  ==> Input File <==

--------------------------------------------------------------------------
set {
	reference rhf
	basis cc-pvtz
}

set_num_threads( 4 )
memory 2 gb

molecule MOL {
0 1

H	 -3.537645	 0.227676	 -0.592740
O	 -3.098730	 -0.280646	 0.065529
C	 -1.770861	 -0.098045	 0.018427
C	 -1.174672	 0.748208	 -0.908315
C	 -0.996815	 -0.789002	 0.935823
H	 -1.781862	 1.280856	 -1.616858
C	 0.191680	 0.899054	 -0.912883
H	 -1.476501	 -1.436537	 1.641952
C	 0.370091	 -0.626903	 0.917992
H	 0.663756	 1.548929	 -1.622754
C	 0.981121	 0.213562	 0.000000
H	 0.971577	 -1.162466	 1.629262
C	 2.447402	 0.371303	 0.000000
O	 3.227427	 -0.521847	 0.000000
H	 2.796538	 1.409525	 0.000000

	symmetry c1
}
set optking {
	frozen_dihedral = ("
		7 11 13 14
	")
}

ee = optimize('scf')
oeprop('DIPOLE', 'QUADRUPOLE', 'MULLIKEN_CHARGES')
f=open( 'psi4out.xyz', 'w' )
f.write( "15  " )
f.write( str(ee) + "\n" )
f.write( MOL.save_string_xyz() )
f.close()
--------------------------------------------------------------------------

    Molecular point group: c1
  Charge       = 0
  Multiplicity = 1
  Basis Set: CC-PVTZ
  Basis Set:
  @DF-RHF Final Energy:  -418.43325947016376
    Total Energy =                       -418.4332594701644439
    Molecular point group: c1
  Basis Set: CC-PVTZ
  Basis Set:
  Basis Set: CC-PVTZ
  Basis Set:
  @DF-RHF Final Energy:  -418.43290891445713
    Total Energy =                       -418.4329089144573572
  Basis Set: CC-PVTZ
  Basis Set:
  Basis Set: CC-PVTZ
  Basis Set:
  @DF-RHF Final Energy:  -418.43414868125598
    Total Energy =                       -418.4341486812558060
  Basis Set: CC-PVTZ
  Basis Set:
  Basis Set: CC-PVTZ
  Basis Set:
  @DF-RHF Final Energy:  -418.43451767896386
    Total Energy =                       -418.4345176789639709
  Basis Set: CC-PVTZ
  Basis Set:
  Basis Set: CC-PVTZ
  Basis Set:
  @DF-RHF Final Energy:  -418.43452719384823
    Total Energy =                       -418.4345271938484530
  Basis Set: CC-PVTZ
  Basis Set:
  Charge       = 0
  Multiplicity = 1
  Basis Set: CC-PVTZ
  Basis Set:

    Orbital Energies (a.u.)
    -----------------------

    Doubly Occupied:

       1A    -20.600712     2A    -20.553478     3A    -11.326617
       4A    -11.317127     5A    -11.257526     6A    -11.251067
       7A    -11.241461     8A    -11.239315     9A    -11.234858
      10A     -1.433209    11A     -1.408605    12A     -1.173794
      13A     -1.044311    14A     -1.038976    15A     -0.894513
      16A     -0.861057    17A     -0.805934    18A     -0.759283
      19A     -0.702083    20A     -0.688921    21A     -0.648278
      22A     -0.631135    23A     -0.611413    24A     -0.609615
      25A     -0.592666    26A     -0.563115    27A     -0.543406
      28A     -0.507550    29A     -0.493525    30A     -0.423971
      31A     -0.359653    32A     -0.329971

  @DF-RHF Final Energy:  -418.43452915365367

   => Energetics <=

    Nuclear Repulsion Energy =            402.1341014470832533
    One-Electron Energy =               -1366.8429708608389319
    Two-Electron Energy =                 546.2743402601020080
    DFT Exchange-Correlation Energy =       0.0000000000000000
    Empirical Dispersion Energy =           0.0000000000000000
    PCM Polarization Energy =               0.0000000000000000
    EFP Energy =                            0.0000000000000000
    Total Energy =                       -418.4345291536536706
    Molecular point group: c1
  Basis Set: CC-PVTZ
  Basis Set:

  -Total Gradient:
     Atom            X                  Y                   Z
    ------   -----------------  -----------------  -----------------
       1       -0.000013606001     0.000001997133     0.000005187181
       2       -0.000006240840     0.000064775033    -0.000017834783
       3        0.000047906428    -0.000260723562     0.000078070613
       4        0.000139990362     0.000106223697    -0.000031045879
       5       -0.000185138398     0.000071891589    -0.000031022509
       6       -0.000022676850    -0.000008719552     0.000020179919
       7       -0.000019265356    -0.005525706938    -0.004226096265
       8        0.000013720045     0.000001378101    -0.000011508201
       9        0.000120036893     0.000165022139    -0.000040310732
      10        0.000022549173    -0.000013573876     0.000029961365
      11       -0.000256811403     0.007689607346     0.002299618050
      12       -0.000007672009     0.000009221577     0.000000813529
      13        0.000571056014    -0.001772962629     0.010493222700
      14       -0.000399628858    -0.000515503214    -0.008563391379
      15       -0.000004219206    -0.000012926842    -0.000005843609

  **** Optimization is complete! (in 6 steps) ****
    Final optimized geometry and variables:
    Molecular point group: c1

    Geometry (in Angstrom), charge = 0, multiplicity = 1:

    H           -3.531669377563     0.207383608019    -0.651874398974
    O           -3.095487083044    -0.291931588202     0.014986759342
    C           -1.768489862386    -0.083416569233    -0.009700180242
    C           -1.169133394417     0.771497369677    -0.916387370242
    C           -0.996896147964    -0.767748294296     0.919594176177
    H           -1.764101044706     1.289692782378    -1.645599091955
    C            0.199724228468     0.953848010038    -0.878607768456
    H           -1.479616320258    -1.431892705095     1.608476479589
    C            0.365957037939    -0.597506154291     0.926812172226
    H            0.658425337991     1.624458279603    -1.581990583363
    C            0.978139941143     0.287066598459     0.046882127876
    H            0.969939560113    -1.150531310461     1.619553634340
    C            2.458122441839     0.387060527874    -0.028713417687
    O            3.189329131023    -0.543298774281    -0.006938508231
    H            2.854871513654     1.395570877361    -0.189275426909

  Mulliken Charges: (a.u.)
   Center  Symbol    Alpha    Beta     Spin     Total
       1     H     0.38620  0.38620  0.00000  0.22760
       2     O     4.16806  4.16806  0.00000 -0.33612
       3     C     2.85023  2.85023  0.00000  0.29954
       4     C     3.13105  3.13105  0.00000 -0.26211
       5     C     3.10021  3.10021  0.00000 -0.20042
       6     H     0.43221  0.43221  0.00000  0.13559
       7     C     3.07969  3.07969  0.00000 -0.15938
       8     H     0.41647  0.41647  0.00000  0.16707
       9     C     3.06806  3.06806  0.00000 -0.13612
      10     H     0.42229  0.42229  0.00000  0.15542
      11     C     2.97957  2.97957  0.00000  0.04087
      12     H     0.41414  0.41414  0.00000  0.17172
      13     C     2.92842  2.92842  0.00000  0.14316
      14     O     4.16538  4.16538  0.00000 -0.33077
      15     H     0.45802  0.45802  0.00000  0.08396

   Total alpha = 32.00000, Total beta = 32.00000, Total charge = -0.00000
