                              Psi4 1.0.54 Driver

  ==> Input File <==

--------------------------------------------------------------------------
set {
	reference rhf
	basis cc-pvtz
}

set_num_threads( 4 )
memory 2 gb

molecule MOL {
0 1

H	 -2.026459	 0.263152	 -2.656230
N	 -1.072861	 0.152978	 -2.384968
C	 -0.874283	 -1.096887	 -1.674654
H	 -0.835982	 0.922436	 -1.795206
C	 0.571570	 -1.247166	 -1.260442
H	 -1.497885	 -1.194597	 -0.786894
H	 -1.123428	 -1.917077	 -2.338932
O	 0.881195	 -0.248324	 -0.336237
H	 0.728666	 -2.229218	 -0.816520
H	 1.212958	 -1.161656	 -2.134650
C	 2.208068	 -0.234417	 0.074171
H	 2.725499	 -1.027054	 -0.446768
H	 2.688377	 0.712084	 -0.164856
H	 2.295137	 -0.403407	 1.144883

	symmetry c1
}
set optking {
	frozen_dihedral = ("
		5 8 11 13
	")
}

ee,wfn = optimize('scf', return_wfn=True)
oeprop( wfn, 'DIPOLE', 'QUADRUPOLE', 'MULLIKEN_CHARGES')
f=open( 'psi4out.xyz', 'w' )
f.write( "14  " )
f.write( str(ee) + "\n" )
f.write( MOL.save_string_xyz() )
f.close()
--------------------------------------------------------------------------

    Molecular point group: c1
  Charge       = 0
  Multiplicity = 1
  Basis Set: CC-PVTZ
  Basis Set:
  @DF-RHF Final Energy:  -248.22155748971704
    Total Energy =                       -248.2215574897169290
    Molecular point group: c1
  Basis Set: CC-PVTZ
  Basis Set:
  Basis Set: CC-PVTZ
  Basis Set:
  @DF-RHF Final Energy:  -248.22231355520702
    Total Energy =                       -248.2223135552071085
  Basis Set: CC-PVTZ
  Basis Set:
  Basis Set: CC-PVTZ
  Basis Set:
  @DF-RHF Final Energy:  -248.22258346075847
    Total Energy =                       -248.2225834607587558
  Basis Set: CC-PVTZ
  Basis Set:
  Charge       = 0
  Multiplicity = 1
  Basis Set: CC-PVTZ
  Basis Set:

    Orbital Energies (a.u.)
    -----------------------

    Doubly Occupied:

       1A    -20.547163     2A    -15.523075     3A    -11.264444
       4A    -11.263211     5A    -11.239341     6A     -1.379703
       7A     -1.175511     8A     -1.000413     9A     -0.907885
      10A     -0.815320    11A     -0.683870    12A     -0.673460
      13A     -0.644926    14A     -0.611434    15A     -0.607640
      16A     -0.540189    17A     -0.536351    18A     -0.497226
      19A     -0.473417    20A     -0.414553    21A     -0.383479

  @DF-RHF Final Energy:  -248.22258603953580

   => Energetics <=

    Nuclear Repulsion Energy =            194.4071072489661844
    One-Electron Energy =                -722.8941663431687630
    Two-Electron Energy =                 280.2644730546669507
    DFT Exchange-Correlation Energy =       0.0000000000000000
    Empirical Dispersion Energy =           0.0000000000000000
    PCM Polarization Energy =               0.0000000000000000
    EFP Energy =                            0.0000000000000000
    Total Energy =                       -248.2225860395355994
    Molecular point group: c1
  Basis Set: CC-PVTZ
  Basis Set:

  -Total Gradient:
     Atom            X                  Y                   Z
    ------   -----------------  -----------------  -----------------
       1        0.000003946755    -0.000012398080     0.000005743634
       2        0.000009118617    -0.000010823977     0.000008357056
       3       -0.000023436326    -0.000002702113    -0.000014686462
       4        0.000003263140    -0.000007586720     0.000001963781
       5       -0.000067008302    -0.000030415401    -0.000010685547
       6        0.000010821730     0.000005934510    -0.000008367781
       7       -0.000020957093    -0.000005358050    -0.000016974387
       8        0.000234608800     0.000091417407     0.000025869504
       9        0.000008915590     0.000031162462     0.000010560735
      10        0.000007252959     0.000014854972     0.000021102104
      11       -0.000197869013    -0.000143943646    -0.000105464394
      12        0.000043994687     0.000001354443     0.000005745421
      13       -0.000051785933     0.000036020739     0.000037256342
      14        0.000039134394     0.000032483454     0.000039579997

  **** Optimization is complete! (in 4 steps) ****
    Final optimized geometry and variables:
    Molecular point group: c1

    Geometry (in Angstrom), charge = 0, multiplicity = 1:

    H           -2.373278402741     0.787229688023    -1.543440979431
    N           -1.419430147147     0.671149700072    -1.275615721582
    C           -1.225474586337    -0.581501448679    -0.569107427242
    H           -1.176746940863     1.437352925027    -0.684040003872
    C            0.220936237169    -0.741394976587    -0.160583309157
    H           -1.846220984050    -0.677542750072     0.320820251437
    H           -1.481665584984    -1.399013133923    -1.234212965483
    O            0.536487722956     0.258902947153     0.762081090928
    H            0.370599825814    -1.724384759266     0.282529373172
    H            0.857075186161    -0.660406407577    -1.038170808595
    C            1.860944492294     0.301950561595     1.197096240607
    H            2.462694989051    -0.477004876231     0.741075422224
    H            2.299641544525     1.260923941082     0.946129107992
    H            1.898429300254     0.174906199149     2.273065039949

  Mulliken Charges: (a.u.)
   Center  Symbol    Alpha    Beta     Spin     Total
       1     H     0.43035  0.43035  0.00000  0.13929
       2     N     3.69428  3.69428  0.00000 -0.38856
       3     C     3.02432  3.02432  0.00000 -0.04863
       4     H     0.42217  0.42217  0.00000  0.15566
       5     C     2.96755  2.96755  0.00000  0.06490
       6     H     0.46488  0.46488  0.00000  0.07024
       7     H     0.45876  0.45876  0.00000  0.08248
       8     O     4.18470  4.18470  0.00000 -0.36941
       9     H     0.46984  0.46984  0.00000  0.06033
      10     H     0.46884  0.46884  0.00000  0.06232
      11     C     3.02699  3.02699  0.00000 -0.05397
      12     H     0.47154  0.47154  0.00000  0.05692
      13     H     0.45729  0.45729  0.00000  0.08542
      14     H     0.45849  0.45849  0.00000  0.08303

   Total alpha = 21.00000, Total beta = 21.00000, Total charge =  0.00000

*** Psi4 exiting successfully. Buy a developer a beer!
