                              Psi4 1.0.54 Driver

  ==> Input File <==

--------------------------------------------------------------------------
set {
	reference rhf
	basis cc-pvtz
}

set_num_threads( 4 )
memory 2 gb

molecule MOL {
0 1

H	 -3.436473	 1.252944	 -1.023892
O	 -3.458596	 0.315260	 -0.960865
C	 -3.176635	 -0.080824	 0.355601
C	 -1.763371	 0.265266	 0.799691
H	 -3.321825	 -1.153438	 0.379502
H	 -3.895468	 0.357385	 1.043382
C	 -0.790926	 -0.908892	 0.736241
H	 -1.390927	 1.084428	 0.186402
H	 -1.813175	 0.646757	 1.816732
C	 0.629302	 -0.536277	 1.153472
H	 -0.780806	 -1.310573	 -0.270964
H	 -1.157409	 -1.706361	 1.378300
C	 1.596398	 -1.716981	 1.092565
H	 0.984417	 0.267207	 0.515352
H	 0.615573	 -0.138288	 2.166030
C	 3.014682	 -1.413188	 1.578394
H	 1.640547	 -2.091808	 0.072562
H	 1.193010	 -2.526819	 1.694280
C	 3.789859	 -0.426623	 0.708374
H	 3.568746	 -2.345796	 1.623450
H	 2.971756	 -1.037863	 2.597564
H	 3.844053	 -0.772983	 -0.318843
H	 4.805039	 -0.310131	 1.070425
H	 3.332685	 0.555497	 0.702311

	symmetry c1
}
set optking {
	frozen_dihedral = ("
		7 4 3 2
	")
}

ee,wfn = optimize('scf', return_wfn=True)
oeprop( wfn, 'DIPOLE', 'QUADRUPOLE', 'MULLIKEN_CHARGES')
f=open( 'psi4out.xyz', 'w' )
f.write( "24  " )
f.write( str(ee) + "\n" )
f.write( MOL.save_string_xyz() )
f.close()
--------------------------------------------------------------------------

    Molecular point group: c1
  Charge       = 0
  Multiplicity = 1
  Basis Set: CC-PVTZ
  Basis Set:
  @DF-RHF Final Energy:  -349.37562843137505
    Total Energy =                       -349.3756284313758442
    Molecular point group: c1
  Basis Set: CC-PVTZ
  Basis Set:
  Basis Set: CC-PVTZ
  Basis Set:
  @DF-RHF Final Energy:  -349.37582987283122
    Total Energy =                       -349.3758298728312752
  Basis Set: CC-PVTZ
  Basis Set:
  Basis Set: CC-PVTZ
  Basis Set:
  @DF-RHF Final Energy:  -349.37587054991388
    Total Energy =                       -349.3758705499136568
  Basis Set: CC-PVTZ
  Basis Set:
  Charge       = 0
  Multiplicity = 1
  Basis Set: CC-PVTZ
  Basis Set:

    Orbital Energies (a.u.)
    -----------------------

    Doubly Occupied:

       1A    -20.544629     2A    -11.265124     3A    -11.214606
       4A    -11.212869     5A    -11.212805     6A    -11.211245
       7A    -11.210568     8A    -11.205681     9A     -1.362470
      10A     -1.091121    11A     -1.049655    12A     -0.985597
      13A     -0.914844    14A     -0.851711    15A     -0.804947
      16A     -0.777595    17A     -0.685929    18A     -0.649369
      19A     -0.625146    20A     -0.621141    21A     -0.597745
      22A     -0.584830    23A     -0.564884    24A     -0.535270
      25A     -0.519414    26A     -0.516856    27A     -0.492605
      28A     -0.479234    29A     -0.466565    30A     -0.461791
      31A     -0.457232    32A     -0.452775    33A     -0.418445

  @DF-RHF Final Energy:  -349.37587058974935

   => Energetics <=

    Nuclear Repulsion Energy =            382.1837230232754905
    One-Electron Energy =               -1231.0297838604051321
    Two-Electron Energy =                 499.4701902473803443
    DFT Exchange-Correlation Energy =       0.0000000000000000
    Empirical Dispersion Energy =           0.0000000000000000
    PCM Polarization Energy =               0.0000000000000000
    EFP Energy =                            0.0000000000000000
    Total Energy =                       -349.3758705897493542
    Molecular point group: c1
  Basis Set: CC-PVTZ
  Basis Set:

  -Total Gradient:
     Atom            X                  Y                   Z
    ------   -----------------  -----------------  -----------------
       1        0.000010545949    -0.000003046795     0.000013772370
       2       -0.001080849430     0.002863210781     0.001094396785
       3        0.001146680265    -0.004208068812    -0.000440292682
       4        0.000652979127     0.002110446332    -0.003557403796
       5        0.000010550681     0.000015369235    -0.000014074968
       6       -0.000012973854     0.000005361354     0.000021800254
       7       -0.000741329941    -0.000763769905     0.002896302550
       8       -0.000001847775     0.000009024761     0.000001547499
       9       -0.000002896535    -0.000022912720     0.000024406557
      10        0.000000542557     0.000016192830    -0.000017113060
      11       -0.000008979731    -0.000048711510    -0.000018435328
      12       -0.000004474335     0.000015675817     0.000016317709
      13        0.000007895361     0.000013745241    -0.000027145158
      14        0.000017824732     0.000011651046     0.000011012872
      15       -0.000008567593    -0.000011008455     0.000003677622
      16        0.000004125208    -0.000003734938    -0.000009825442
      17        0.000004420202    -0.000008489010    -0.000003934748
      18        0.000000060993     0.000008976134     0.000001787408
      19        0.000003095838     0.000002301260     0.000001920960
      20        0.000003601159    -0.000002178640     0.000003991026
      21       -0.000003195590     0.000002134804    -0.000001232492
      22        0.000000015878    -0.000000627805    -0.000002542795
      23        0.000002399803    -0.000000385413     0.000000101963
      24        0.000000377020    -0.000001155592     0.000000964890

  **** Optimization is complete! (in 4 steps) ****
    Final optimized geometry and variables:
    Molecular point group: c1

    Geometry (in Angstrom), charge = 0, multiplicity = 1:

    H           -3.365640223562     1.796686870253    -1.658070815199
    O           -3.388653150594     0.858957255266    -1.605344728441
    C           -3.112743090009     0.452041512517    -0.289986342820
    C           -1.691259155067     0.801760679402     0.168365968194
    H           -3.265302784623    -0.618362075365    -0.272167322373
    H           -3.841129545924     0.889687571637     0.387238399792
    C           -0.716639989503    -0.371479498287     0.098773903439
    H           -1.324686077181     1.625480233182    -0.436805243798
    H           -1.724386384215     1.164294332027     1.192167826589
    C            0.707275942447    -0.002398548108     0.504426277165
    H           -0.712575435154    -0.772409383105    -0.911622353111
    H           -1.079832236031    -1.168471922504     0.742690835455
    C            1.671897603359    -1.184995081013     0.439123097860
    H            1.058525339043     0.799397590081    -0.137542697583
    H            0.700243089187     0.397242105158     1.516437378562
    C            3.094251343067    -0.882177846606     0.913704863136
    H            1.708194371040    -1.562252169264    -0.580293365096
    H            1.271834235488    -1.992752780087     1.045965230617
    C            3.864164748657     0.101690289465     0.035981969053
    H            3.647307076740    -1.815488439883     0.956334811545
    H            3.059431462341    -0.505019977236     1.932510331923
    H            3.908900014941    -0.245841533262    -0.991253392883
    H            4.882584728334     0.216283149076     0.389377530717
    H            3.409178132892     1.084810456177     0.032608496555

  Mulliken Charges: (a.u.)
   Center  Symbol    Alpha    Beta     Spin     Total
       1     H     0.39449  0.39449  0.00000  0.21102
       2     O     4.20454  4.20454  0.00000 -0.40908
       3     C     2.97298  2.97298  0.00000  0.05404
       4     C     3.09225  3.09225  0.00000 -0.18449
       5     H     0.45805  0.45805  0.00000  0.08389
       6     H     0.46596  0.46596  0.00000  0.06808
       7     C     3.09412  3.09412  0.00000 -0.18825
       8     H     0.45930  0.45930  0.00000  0.08140
       9     H     0.45481  0.45481  0.00000  0.09037
      10     C     3.09357  3.09357  0.00000 -0.18714
      11     H     0.44829  0.44829  0.00000  0.10341
      12     H     0.45418  0.45418  0.00000  0.09165
      13     C     3.09471  3.09471  0.00000 -0.18942
      14     H     0.45193  0.45193  0.00000  0.09615
      15     H     0.45564  0.45564  0.00000  0.08872
      16     C     3.09036  3.09036  0.00000 -0.18072
      17     H     0.45331  0.45331  0.00000  0.09338
      18     H     0.45007  0.45007  0.00000  0.09985
      19     C     3.15238  3.15238  0.00000 -0.30476
      20     H     0.44854  0.44854  0.00000  0.10293
      21     H     0.45519  0.45519  0.00000  0.08961
      22     H     0.45457  0.45457  0.00000  0.09087
      23     H     0.44661  0.44661  0.00000  0.10679
      24     H     0.45415  0.45415  0.00000  0.09171

   Total alpha = 33.00000, Total beta = 33.00000, Total charge = -0.00000

*** Psi4 exiting successfully. Buy a developer a beer!
