  ==> Input File <==

--------------------------------------------------------------------------
set {
	reference rhf
	basis 6-31G*
}

set_num_threads( 4 )
memory 2 gb

molecule MOL {
0 1

O	 -0.682937	 1.318834	 -0.186099
C	 -0.860635	 0.152188	 -0.042321
C	 -2.173363	 -0.477127	 0.338347
O	 0.083258	 -0.765189	 -0.202595
H	 -2.477673	 -1.180929	 -0.427595
H	 -2.923125	 0.290956	 0.455536
H	 -2.058825	 -1.029004	 1.264191
C	 1.434266	 -0.403823	 0.074876
C	 1.750232	 -0.525444	 1.554072
H	 1.614378	 0.598234	 -0.283707
H	 2.025050	 -1.097688	 -0.505661
H	 2.802443	 -0.318004	 1.723038
H	 1.167430	 0.180394	 2.132433
H	 1.539704	 -1.528908	 1.907843

	symmetry c1
}
set optking {
	frozen_dihedral = ("
		8 4 2 1
	")
}

ee = optimize('scf')
oeprop('DIPOLE', 'QUADRUPOLE', 'MULLIKEN_CHARGES')
f=open( 'psi4out.xyz', 'w' )
f.write( "14  " )
f.write( str(ee) + "\n" )
f.write( MOL.save_string_xyz() )
f.close()
--------------------------------------------------------------------------

    Molecular point group: c1
  Charge       = 0
  Multiplicity = 1
  Basis Set: 6-31G*
  Basis Set:
  @DF-RHF Final Energy:  -305.87054132936612
    Total Energy =                       -305.8705413293661195
    Molecular point group: c1
  Basis Set: 6-31G*
  Basis Set:
  Basis Set: 6-31G*
  Basis Set:
  @DF-RHF Final Energy:  -305.86709702244423
    Total Energy =                       -305.8670970224444545
  Basis Set: 6-31G*
  Basis Set:
  Basis Set: 6-31G*
  Basis Set:
  @DF-RHF Final Energy:  -305.87100339147275
    Total Energy =                       -305.8710033914730388
  Basis Set: 6-31G*
  Basis Set:
  Basis Set: 6-31G*
  Basis Set:
  @DF-RHF Final Energy:  -305.87107577364304
    Total Energy =                       -305.8710757736430992
  Basis Set: 6-31G*
  Basis Set:
  Basis Set: 6-31G*
  Basis Set:
  @DF-RHF Final Energy:  -305.87109741211259
    Total Energy =                       -305.8710974121122490
  Basis Set: 6-31G*
  Basis Set:
  Basis Set: 6-31G*
  Basis Set:
  @DF-RHF Final Energy:  -305.87111085115248
    Total Energy =                       -305.8711108511525936
  Basis Set: 6-31G*
  Basis Set:
  Basis Set: 6-31G*
  Basis Set:
  @DF-RHF Final Energy:  -305.87111248317422
    Total Energy =                       -305.8711124831742154
  Basis Set: 6-31G*
  Basis Set:
  Charge       = 0
  Multiplicity = 1
  Basis Set: 6-31G*
  Basis Set:

    Orbital Energies (a.u.)
    -----------------------

    Doubly Occupied:

       1A    -20.597487     2A    -20.546870     3A    -11.376169
       4A    -11.286735     5A    -11.233552     6A    -11.224070
       7A     -1.464806     8A     -1.363530     9A     -1.054206
      10A     -1.002056    11A     -0.884498    12A     -0.762783
      13A     -0.697910    14A     -0.682424    15A     -0.661106
      16A     -0.613039    17A     -0.589265    18A     -0.570842
      19A     -0.557410    20A     -0.532914    21A     -0.519488
      22A     -0.494046    23A     -0.450847    24A     -0.437991

  @DF-RHF Final Energy:  -305.87111261481812

   => Energetics <=

    Nuclear Repulsion Energy =            248.9459473234799134
    One-Electron Energy =                -910.4260355803880884
    Two-Electron Energy =                 355.6089756420902290
    DFT Exchange-Correlation Energy =       0.0000000000000000
    Empirical Dispersion Energy =           0.0000000000000000
    PCM Polarization Energy =               0.0000000000000000
    EFP Energy =                            0.0000000000000000
    Total Energy =                       -305.8711126148179460
    Molecular point group: c1
  Basis Set: 6-31G*
  Basis Set:

  -Total Gradient:
     Atom            X                  Y                   Z
    ------   -----------------  -----------------  -----------------
       1       -0.002192557206    -0.000147672806    -0.007923094677
       2        0.003019429094    -0.000907697411     0.014864190923
       3        0.000119945385    -0.000051580269     0.000144073002
       4       -0.000227099508     0.003362124568    -0.012988340008
       5       -0.000022102316    -0.000021659810    -0.000065670988
       6        0.000038653165     0.000011476212    -0.000031536547
       7       -0.000010666256    -0.000002565646    -0.000044290085
       8       -0.000735475036    -0.002298010087     0.006102113361
       9        0.000046059617     0.000011587439    -0.000033568136
      10        0.000009622564     0.000013142851    -0.000006310020
      11       -0.000033910490     0.000007281205    -0.000033223804
      12        0.000020225943     0.000005520881     0.000036737816
      13       -0.000015672701     0.000000456283     0.000003247404
      14       -0.000016452251     0.000017596588    -0.000024328240

  **** Optimization is complete! (in 8 steps) ****
    Final optimized geometry and variables:
    Molecular point group: c1

    Geometry (in Angstrom), charge = 0, multiplicity = 1:

    O           -0.598831227114     1.440862836126    -0.308947314206
    C           -0.786839592379     0.270169130048    -0.248388853559
    C           -2.117733163696    -0.371803977272     0.032339740743
    O            0.148105141048    -0.642620598750    -0.508635177120
    H           -2.368392120953    -1.058145869146    -0.768056532703
    H           -2.878699590768     0.388807117942     0.123880919025
    H           -2.056653598684    -0.947483029906     0.949324358907
    C            1.508020842124    -0.309278976563    -0.244844024612
    C            1.813439315936    -0.385023857619     1.239960147010
    H            1.719996914525     0.671834197855    -0.642530882785
    H            2.081598493811    -1.040111575178    -0.795956669402
    H            2.869219600548    -0.198314719524     1.409258286498
    H            1.250124335487     0.359113894528     1.792266070115
    H            1.572349159948    -1.367289978456     1.631224476476

  Mulliken Charges: (a.u.)
   Center  Symbol    Alpha    Beta     Spin     Total
       1     O     4.27807  4.27807  0.00000 -0.55614
       2     C     2.61901  2.61901  0.00000  0.76197
       3     C     3.28282  3.28282  0.00000 -0.56564
       4     O     4.31019  4.31019  0.00000 -0.62038
       5     H     0.39867  0.39867  0.00000  0.20267
       6     H     0.39745  0.39745  0.00000  0.20509
       7     H     0.40276  0.40276  0.00000  0.19447
       8     C     3.00827  3.00827  0.00000 -0.01654
       9     C     3.25704  3.25704  0.00000 -0.51408
      10     H     0.40030  0.40030  0.00000  0.19940
      11     H     0.40898  0.40898  0.00000  0.18204
      12     H     0.41486  0.41486  0.00000  0.17028
      13     H     0.40861  0.40861  0.00000  0.18278
      14     H     0.41296  0.41296  0.00000  0.17407

   Total alpha = 24.00000, Total beta = 24.00000, Total charge = -0.00000
