                              Psi4 1.0.54 Driver

  ==> Input File <==

--------------------------------------------------------------------------
set {
	reference rhf
	basis cc-pvtz
}

set_num_threads( 4 )
memory 2 gb

molecule MOL {
0 1

O	 0.572046	 0.499548	 0.963428
C	 0.029490	 0.077183	 0.000078
C	 -1.232113	 -0.748027	 0.000015
O	 0.472093	 0.280328	 -1.229584
C	 -2.501422	 0.088592	 -0.000052
H	 -1.188777	 -1.400384	 -0.865133
H	 -1.188857	 -1.400312	 0.865225
H	 -2.548170	 0.725504	 -0.873205
H	 -3.371613	 -0.556398	 -0.000040
H	 -2.548215	 0.725571	 0.873047
C	 1.653134	 1.042698	 -1.376463
H	 1.518342	 2.035758	 -0.974098
H	 1.845142	 1.093262	 -2.435898
H	 2.479579	 0.566483	 -0.870050

	symmetry c1
}
set optking {
	frozen_dihedral = ("
		4 2 3 6
	")
}

ee,wfn = optimize('scf', return_wfn=True)
oeprop( wfn, 'DIPOLE', 'QUADRUPOLE', 'MULLIKEN_CHARGES')
f=open( 'psi4out.xyz', 'w' )
f.write( "14  " )
f.write( str(ee) + "\n" )
f.write( MOL.save_string_xyz() )
f.close()
--------------------------------------------------------------------------

    Molecular point group: c1
  Charge       = 0
  Multiplicity = 1
  Basis Set: CC-PVTZ
  Basis Set:
  @DF-RHF Final Energy:  -305.98532652495146
    Total Energy =                       -305.9853265249515744
    Molecular point group: c1
  Basis Set: CC-PVTZ
  Basis Set:
  Basis Set: CC-PVTZ
  Basis Set:
  @DF-RHF Final Energy:  -305.98554202011940
    Total Energy =                       -305.9855420201193965
  Basis Set: CC-PVTZ
  Basis Set:
  Basis Set: CC-PVTZ
  Basis Set:
  @DF-RHF Final Energy:  -305.98603935857045
    Total Energy =                       -305.9860393585704514
  Basis Set: CC-PVTZ
  Basis Set:
  Basis Set: CC-PVTZ
  Basis Set:
  @DF-RHF Final Energy:  -305.98606856697029
    Total Energy =                       -305.9860685669705731
  Basis Set: CC-PVTZ
  Basis Set:
  Basis Set: CC-PVTZ
  Basis Set:
  @DF-RHF Final Energy:  -305.98607556738210
    Total Energy =                       -305.9860755673821018
  Basis Set: CC-PVTZ
  Basis Set:
  Charge       = 0
  Multiplicity = 1
  Basis Set: CC-PVTZ
  Basis Set:

    Orbital Energies (a.u.)
    -----------------------

    Doubly Occupied:

       1A    -20.598714     2A    -20.532665     3A    -11.364273
       4A    -11.279156     5A    -11.235730     6A    -11.225420
       7A     -1.472928     8A     -1.365382     9A     -1.068031
      10A     -0.978826    11A     -0.883460    12A     -0.776028
      13A     -0.699909    14A     -0.682898    15A     -0.676309
      16A     -0.618485    17A     -0.598652    18A     -0.568678
      19A     -0.543302    20A     -0.520619    21A     -0.509114
      22A     -0.507509    23A     -0.459613    24A     -0.438054

  @DF-RHF Final Energy:  -305.98608158866011

   => Energetics <=

    Nuclear Repulsion Energy =            248.3975102667190242
    One-Electron Energy =                -909.5596746684489062
    Two-Electron Energy =                 355.1760828130697973
    DFT Exchange-Correlation Energy =       0.0000000000000000
    Empirical Dispersion Energy =           0.0000000000000000
    PCM Polarization Energy =               0.0000000000000000
    EFP Energy =                            0.0000000000000000
    Total Energy =                       -305.9860815886601131
    Molecular point group: c1
  Basis Set: CC-PVTZ
  Basis Set:

  -Total Gradient:
     Atom            X                  Y                   Z
    ------   -----------------  -----------------  -----------------
       1        0.000026885156    -0.000002773578    -0.000050192968
       2       -0.000255511671     0.000416794396    -0.000066186514
       3        0.000216081767    -0.000361277075     0.000258426297
       4        0.000162623059    -0.000264730759     0.000051360593
       5        0.000009908764    -0.000018518692     0.000016788907
       6       -0.000140965318     0.000224410080    -0.000229842141
       7        0.000007695267    -0.000002405347    -0.000000537645
       8        0.000002582807    -0.000008986289     0.000010152744
       9       -0.000015194518     0.000007106334    -0.000007626832
      10       -0.000005057593     0.000009868921    -0.000002383050
      11       -0.000004204949     0.000006272544     0.000015778265
      12       -0.000003638605     0.000006254046     0.000000742827
      13       -0.000004731511    -0.000003535847    -0.000001238869
      14        0.000003527343    -0.000008478734     0.000004758391

  **** Optimization is complete! (in 6 steps) ****
    Final optimized geometry and variables:
    Molecular point group: c1

    Geometry (in Angstrom), charge = 0, multiplicity = 1:

    O            0.648110947982     0.300885687975     1.271094725398
    C            0.159474251397    -0.165168919015     0.298148880665
    C           -1.122091518550    -0.957341892965     0.284336309830
    O            0.671214646531    -0.017857479734    -0.912014941137
    C           -2.332333521058    -0.028901092409     0.148743972736
    H           -1.099608776386    -1.660928478409    -0.536236465378
    H           -1.174704445492    -1.502468982049     1.215998111219
    H           -2.295627833002     0.525575215137    -0.781045395154
    H           -3.247777285075    -0.606440928565     0.158741241926
    H           -2.368231463688     0.677729535269     0.967977041496
    C            1.851220291327     0.752278031347    -1.026740590646
    H            1.683116591106     1.760804303337    -0.679174583824
    H            2.103327685978     0.756204858595    -2.074717920762
    H            2.651102622460     0.310080071579    -0.451794843234

  Mulliken Charges: (a.u.)
   Center  Symbol    Alpha    Beta     Spin     Total
       1     O     4.20364  4.20364  0.00000 -0.40727
       2     C     2.79712  2.79712  0.00000  0.40577
       3     C     3.08414  3.08414  0.00000 -0.16829
       4     O     4.14943  4.14943  0.00000 -0.29886
       5     C     3.15055  3.15055  0.00000 -0.30109
       6     H     0.44396  0.44396  0.00000  0.11209
       7     H     0.43996  0.43996  0.00000  0.12008
       8     H     0.44998  0.44998  0.00000  0.10004
       9     H     0.44770  0.44770  0.00000  0.10460
      10     H     0.44492  0.44492  0.00000  0.11015
      11     C     3.03538  3.03538  0.00000 -0.07076
      12     H     0.45445  0.45445  0.00000  0.09109
      13     H     0.44561  0.44561  0.00000  0.10878
      14     H     0.45316  0.45316  0.00000  0.09368

   Total alpha = 24.00000, Total beta = 24.00000, Total charge = -0.00000

*** Psi4 exiting successfully. Buy a developer a beer!
