  ==> Input File <==

--------------------------------------------------------------------------
set {
	reference rhf
	basis cc-pvtz
}

set_num_threads( 4 )
memory 2 gb

molecule MOL {
0 1

H	 -2.698799	 -0.000846	 0.036018
C	 -1.694291	 -0.000483	 0.434279
O	 -0.828718	 -0.000608	 -0.655022
H	 -1.576855	 0.881100	 1.056504
H	 -1.576401	 -0.881658	 1.057001
C	 -1.145038	 -0.792784	 -1.773179
C	 -1.152287	 -2.283084	 -1.451890
C	 -2.426951	 -0.343572	 -2.465390
H	 -0.321136	 -0.605189	 -2.450389
H	 -0.245733	 -2.560176	 -0.928023
H	 -1.203542	 -2.856686	 -2.370095
H	 -2.002125	 -2.566836	 -0.842100
H	 -2.404346	 0.724355	 -2.644455
H	 -2.524621	 -0.846746	 -3.420403
H	 -3.310582	 -0.575763	 -1.882445

	symmetry c1
}
set optking {
	frozen_dihedral = ("
		6 3 2 1
	")
}

ee = optimize('scf')
oeprop('DIPOLE', 'QUADRUPOLE', 'MULLIKEN_CHARGES')
f=open( 'psi4out.xyz', 'w' )
f.write( "15  " )
f.write( str(ee) + "\n" )
f.write( MOL.save_string_xyz() )
f.close()
--------------------------------------------------------------------------

    Molecular point group: c1
  Charge       = 0
  Multiplicity = 1
  Basis Set: CC-PVTZ
  Basis Set:
  @DF-RHF Final Energy:  -232.22312315191854
    Total Energy =                       -232.2231231519183439
    Molecular point group: c1
  Basis Set: CC-PVTZ
  Basis Set:
  Basis Set: CC-PVTZ
  Basis Set:
  @DF-RHF Final Energy:  -232.22500689615248
    Total Energy =                       -232.2250068961524789
  Basis Set: CC-PVTZ
  Basis Set:
  Basis Set: CC-PVTZ
  Basis Set:
  @DF-RHF Final Energy:  -232.22567057945412
    Total Energy =                       -232.2256705794543450
  Basis Set: CC-PVTZ
  Basis Set:
  Basis Set: CC-PVTZ
  Basis Set:
  @DF-RHF Final Energy:  -232.22568807800383
    Total Energy =                       -232.2256880780037704
  Basis Set: CC-PVTZ
  Basis Set:
  Basis Set: CC-PVTZ
  Basis Set:
  @DF-RHF Final Energy:  -232.22569389416813
    Total Energy =                       -232.2256938941679891
  Basis Set: CC-PVTZ
  Basis Set:
  Charge       = 0
  Multiplicity = 1
  Basis Set: CC-PVTZ
  Basis Set:

    Orbital Energies (a.u.)
    -----------------------

    Doubly Occupied:

       1A    -20.541162     2A    -11.272815     3A    -11.258854
       4A    -11.209478     5A    -11.207936     6A     -1.373039
       7A     -1.051343     8A     -0.940781     9A     -0.931200
      10A     -0.781617    11A     -0.676643    12A     -0.641830
      13A     -0.634427    14A     -0.572814    15A     -0.564127
      16A     -0.553257    17A     -0.535173    18A     -0.499894
      19A     -0.497802    20A     -0.444771    21A     -0.408053

  @DF-RHF Final Energy:  -232.22569380989796

   => Energetics <=

    Nuclear Repulsion Energy =            199.0660049622368319
    One-Electron Energy =                -709.3893692319809361
    Two-Electron Energy =                 278.0976704598464266
    DFT Exchange-Correlation Energy =       0.0000000000000000
    Empirical Dispersion Energy =           0.0000000000000000
    PCM Polarization Energy =               0.0000000000000000
    EFP Energy =                            0.0000000000000000
    Total Energy =                       -232.2256938098976775
    Molecular point group: c1
  Basis Set: CC-PVTZ
  Basis Set:

  -Total Gradient:
     Atom            X                  Y                   Z
    ------   -----------------  -----------------  -----------------
       1        0.000222100614    -0.001470019509    -0.000082290329
       2       -0.000415595333     0.002381901539    -0.000050263214
       3        0.000981473731    -0.001827212806     0.000589370740
       4       -0.000052025465    -0.000007890865     0.000050205364
       5       -0.000012105740    -0.000008796730    -0.000027328710
       6       -0.000693515146     0.000900893428    -0.000489249152
       7       -0.000021656451     0.000029605299     0.000054146598
       8       -0.000001198727    -0.000047265947    -0.000052191057
       9        0.000006422502     0.000013683203    -0.000003966878
      10       -0.000001875034     0.000010514679     0.000005413928
      11       -0.000001619927     0.000027678783     0.000004597871
      12       -0.000017930474    -0.000016751205     0.000025933068
      13       -0.000004400639     0.000005186895     0.000011108965
      14       -0.000013780930     0.000014262979     0.000000383606
      15        0.000025707022    -0.000005789741    -0.000035870800

  **** Optimization is complete! (in 6 steps) ****
    Final optimized geometry and variables:
    Molecular point group: c1

    Geometry (in Angstrom), charge = 0, multiplicity = 1:

    H           -1.270734737288     0.516132589206     1.365799597654
    C           -0.221648712692     0.622339219401     1.619229236656
    O            0.597262697309     0.713815945514     0.496697411638
    H           -0.096345537514     1.533404337622     2.187003554296
    H            0.057618711670    -0.216033864007     2.250910596618
    C            0.319338248413    -0.103826999073    -0.613122442352
    C            0.297317666462    -1.586254149747    -0.259737219362
    C           -0.937983815852     0.338124119515    -1.353929686592
    H            1.163833364582     0.068269185688    -1.268840235930
    H            1.198851747647    -1.861687925030     0.273927830134
    H            0.242790781103    -2.180981789020    -1.164046270740
    H           -0.557258767416    -1.844664022172     0.355386669122
    H           -0.894234638559     1.399704788080    -1.562828368854
    H           -1.017190160212    -0.192320081234    -2.296083305608
    H           -1.841193674956     0.136833989196    -0.790064269353

  Mulliken Charges: (a.u.)
   Center  Symbol    Alpha    Beta     Spin     Total
       1     H     0.47053  0.47053  0.00000  0.05894
       2     C     3.04015  3.04015  0.00000 -0.08029
       3     O     4.18438  4.18438  0.00000 -0.36876
       4     H     0.44291  0.44291  0.00000  0.11418
       5     H     0.46566  0.46566  0.00000  0.06867
       6     C     2.93643  2.93643  0.00000  0.12714
       7     C     3.16031  3.16031  0.00000 -0.32062
       8     C     3.15343  3.15343  0.00000 -0.30685
       9     H     0.44680  0.44680  0.00000  0.10640
      10     H     0.44401  0.44401  0.00000  0.11198
      11     H     0.44817  0.44817  0.00000  0.10365
      12     H     0.45495  0.45495  0.00000  0.09010
      13     H     0.44471  0.44471  0.00000  0.11059
      14     H     0.45139  0.45139  0.00000  0.09723
      15     H     0.45617  0.45617  0.00000  0.08766

   Total alpha = 21.00000, Total beta = 21.00000, Total charge =  0.00000
