  ==> Input File <==

--------------------------------------------------------------------------
set {
	reference rhf
	basis 6-31G*
}

set_num_threads( 4 )
memory 2 gb

molecule MOL {
0 1

H	 1.047021	 0.311472	 2.322806
C	 1.553116	 0.257133	 1.351355
C	 0.692068	 0.589600	 0.160137
O	 2.700401	 -0.046818	 1.292351
C	 -0.558097	 -0.297372	 0.091132
H	 1.296416	 0.491245	 -0.734050
H	 0.389859	 1.632428	 0.249628
C	 -1.850991	 0.512573	 -0.019058
H	 -0.476753	 -0.965681	 -0.762987
H	 -0.604799	 -0.930658	 0.975228
C	 -3.096943	 -0.368295	 -0.099594
H	 -1.800724	 1.150330	 -0.898172
H	 -1.931651	 1.177355	 0.838044
H	 -3.060452	 -1.020287	 -0.967456
H	 -3.996858	 0.233488	 -0.175704
H	 -3.191959	 -0.995686	 0.782074

	symmetry c1
}
set optking {
	frozen_dihedral = ("
		6 3 5 9
	")
}

ee = optimize('scf')
oeprop('DIPOLE', 'QUADRUPOLE', 'MULLIKEN_CHARGES')
f=open( 'psi4out.xyz', 'w' )
f.write( "16  " )
f.write( str(ee) + "\n" )
f.write( MOL.save_string_xyz() )
f.close()
--------------------------------------------------------------------------

    Molecular point group: c1
  Charge       = 0
  Multiplicity = 1
  Basis Set: 6-31G*
  Basis Set:
  @DF-RHF Final Energy:  -270.01503840259790
    Total Energy =                       -270.0150384025977246
    Molecular point group: c1
  Basis Set: 6-31G*
  Basis Set:
  Basis Set: 6-31G*
  Basis Set:
  @DF-RHF Final Energy:  -270.01491670182872
    Total Energy =                       -270.0149167018289518
  Basis Set: 6-31G*
  Basis Set:
  Basis Set: 6-31G*
  Basis Set:
  @DF-RHF Final Energy:  -270.01185277049797
    Total Energy =                       -270.0118527704983649
  Basis Set: 6-31G*
  Basis Set:
  Basis Set: 6-31G*
  Basis Set:
  @DF-RHF Final Energy:  -270.01532400618237
    Total Energy =                       -270.0153240061823681
  Basis Set: 6-31G*
  Basis Set:
  @DF-RHF Final Energy:  -270.01533555709057
    Total Energy =                       -270.0153355570907934
  Basis Set: 6-31G*
  Basis Set:
  @DF-RHF Final Energy:  -270.01536660871750
    Total Energy =                       -270.0153666087176134
  Basis Set: 6-31G*
  Basis Set:
  Basis Set: 6-31G*
  Basis Set:
  @DF-RHF Final Energy:  -270.01537045071632
    Total Energy =                       -270.0153704507160910
  Basis Set: 6-31G*
  Basis Set:
  Basis Set: 6-31G*
  Basis Set:
  @DF-RHF Final Energy:  -270.01537213915634
    Total Energy =                       -270.0153721391563977
  Basis Set: 6-31G*
  Basis Set:
  Charge       = 0
  Multiplicity = 1
  Basis Set: 6-31G*
  Basis Set:

    Orbital Energies (a.u.)
    -----------------------

    Doubly Occupied:

       1A    -20.562235     2A    -11.326960     3A    -11.236481
       4A    -11.235234     5A    -11.230169     6A    -11.218941
       7A     -1.402587     8A     -1.094958     9A     -1.018218
      10A     -0.906613    11A     -0.815508    12A     -0.794083
      13A     -0.670205    14A     -0.654371    15A     -0.620708
      16A     -0.606070    17A     -0.581724    18A     -0.554355
      19A     -0.534811    20A     -0.505770    21A     -0.484496
      22A     -0.482281    23A     -0.476323    24A     -0.409659

  @DF-RHF Final Energy:  -270.01537246301370

   => Energetics <=

    Nuclear Repulsion Energy =            228.8456593953658853
    One-Electron Energy =                -818.8765473641997232
    Two-Electron Energy =                 320.0155155058202467
    DFT Exchange-Correlation Energy =       0.0000000000000000
    Empirical Dispersion Energy =           0.0000000000000000
    PCM Polarization Energy =               0.0000000000000000
    EFP Energy =                            0.0000000000000000
    Total Energy =                       -270.0153724630136480
    Molecular point group: c1
  Basis Set: 6-31G*
  Basis Set:

  -Total Gradient:
     Atom            X                  Y                   Z
    ------   -----------------  -----------------  -----------------
       1       -0.000004581017     0.000008931634     0.000003654994
       2        0.000002245626     0.000016823803    -0.000010552596
       3       -0.001238128822     0.001897921793    -0.001166242557
       4        0.000002491328    -0.000019621184    -0.000000950273
       5        0.001133039304    -0.001750845371     0.001406247445
       6        0.000857909125    -0.001283057996     0.000742616051
       7       -0.000005223280    -0.000008452144     0.000010458689
       8        0.000003465712    -0.000005849666    -0.000016888045
       9       -0.000744471468     0.001143450050    -0.000977249614
      10       -0.000000041546    -0.000001467984     0.000000174267
      11       -0.000005943602     0.000002733527     0.000003950846
      12       -0.000000618867     0.000004785624     0.000002494074
      13        0.000000346733    -0.000004267222     0.000001935737
      14        0.000002879866     0.000000621139     0.000000676385
      15       -0.000001192181    -0.000001776902    -0.000001211553
      16       -0.000002176911     0.000000070899     0.000000886146

  **** Optimization is complete! (in 9 steps) ****
    Final optimized geometry and variables:
    Molecular point group: c1

    Geometry (in Angstrom), charge = 0, multiplicity = 1:

    H            1.148622776889     0.111636946368     1.846854178197
    C            1.666932785542     0.140967375471     0.880426899046
    C            0.791907796809     0.465928343184    -0.304686773848
    O            2.834407203932    -0.069873737365     0.821926909283
    C           -0.480095046237    -0.411552275493    -0.360238644761
    H            1.399974264896     0.357206271437    -1.193790758072
    H            0.517725900598     1.515779128188    -0.216591625553
    C           -1.774291489033     0.396949052680    -0.484413157686
    H           -0.406872638516    -1.087952568506    -1.205792404935
    H           -0.543286445741    -1.040203804491     0.526015331049
    C           -3.018674028936    -0.484231092684    -0.572528316599
    H           -1.715221711201     1.031857813931    -1.365644078343
    H           -1.862866945566     1.066171048522     0.368908293070
    H           -2.974317780146    -1.139815773004    -1.437407759743
    H           -3.918443998571     0.116421299354    -0.658620622553
    H           -3.120977425499    -1.108822058424     0.310374793259

  Mulliken Charges: (a.u.)
   Center  Symbol    Alpha    Beta     Spin     Total
       1     H     0.43224  0.43224  0.00000  0.13552
       2     C     2.83195  2.83195  0.00000  0.33611
       3     C     3.21030  3.21030  0.00000 -0.42059
       4     O     4.23787  4.23787  0.00000 -0.47574
       5     C     3.16583  3.16583  0.00000 -0.33167
       6     H     0.39662  0.39662  0.00000  0.20676
       7     H     0.40549  0.40549  0.00000  0.18901
       8     C     3.15427  3.15427  0.00000 -0.30854
       9     H     0.41051  0.41051  0.00000  0.17898
      10     H     0.41700  0.41700  0.00000  0.16601
      11     C     3.24114  3.24114  0.00000 -0.48227
      12     H     0.41895  0.41895  0.00000  0.16210
      13     H     0.42188  0.42188  0.00000  0.15625
      14     H     0.41945  0.41945  0.00000  0.16109
      15     H     0.41638  0.41638  0.00000  0.16725
      16     H     0.42013  0.42013  0.00000  0.15973

   Total alpha = 24.00000, Total beta = 24.00000, Total charge = -0.00000
