  ==> Input File <==

--------------------------------------------------------------------------
set {
	reference rhf
	basis cc-pvtz
}

set_num_threads( 4 )
memory 2 gb

molecule MOL {
0 1

H	 -2.548226	 -1.028295	 0.184276
O	 -2.313989	 -0.142475	 -0.025864
C	 -0.943808	 -0.065018	 -0.330000
H	 -0.812293	 -0.225641	 -1.398673
C	 -0.231030	 -1.182113	 0.407592
C	 -0.353797	 1.300461	 0.050970
H	 -0.312800	 -0.992012	 1.473041
H	 -0.738841	 -2.119564	 0.220514
C	 1.246176	 -1.268044	 -0.015480
H	 -0.539537	 2.008579	 -0.751815
H	 -0.889989	 1.662858	 0.920677
C	 1.153605	 1.231851	 0.356834
H	 1.823096	 -1.684665	 0.802361
H	 1.352335	 -1.958223	 -0.845114
C	 1.826409	 0.100723	 -0.416008
H	 1.622968	 2.181508	 0.128734
H	 1.301983	 1.066493	 1.419367
H	 2.897299	 0.112407	 -0.249665
H	 1.683458	 0.265621	 -1.480024

	symmetry c1
}
set optking {
	frozen_dihedral = ("
		1 2 3 4
	")
}

ee = optimize('scf')
oeprop('DIPOLE', 'QUADRUPOLE', 'MULLIKEN_CHARGES')
f=open( 'psi4out.xyz', 'w' )
f.write( "19  " )
f.write( str(ee) + "\n" )
f.write( MOL.save_string_xyz() )
f.close()
--------------------------------------------------------------------------

    Molecular point group: c1
  Charge       = 0
  Multiplicity = 1
  Basis Set: CC-PVTZ
  Basis Set:
  @DF-RHF Final Energy:  -309.16066704905353
    Total Energy =                       -309.1606670490534157
    Molecular point group: c1
  Basis Set: CC-PVTZ
  Basis Set:
  Basis Set: CC-PVTZ
  Basis Set:
  @DF-RHF Final Energy:  -309.16224735135478
    Total Energy =                       -309.1622473513547220
  Basis Set: CC-PVTZ
  Basis Set:
  Basis Set: CC-PVTZ
  Basis Set:
  @DF-RHF Final Energy:  -309.16253148913472
    Total Energy =                       -309.1625314891348921
  Basis Set: CC-PVTZ
  Basis Set:
  Basis Set: CC-PVTZ
  Basis Set:
  @DF-RHF Final Energy:  -309.16253730051056
    Total Energy =                       -309.1625373005106212
  Basis Set: CC-PVTZ
  Basis Set:
  Charge       = 0
  Multiplicity = 1
  Basis Set: CC-PVTZ
  Basis Set:

    Orbital Energies (a.u.)
    -----------------------

    Doubly Occupied:

       1A    -20.541870     2A    -11.267185     3A    -11.218358
       4A    -11.216815     5A    -11.214613     6A    -11.213078
       7A    -11.206575     8A     -1.362272     9A     -1.111354
      10A     -1.004980    11A     -0.989932    12A     -0.852165
      13A     -0.832619    14A     -0.739356    15A     -0.695740
      16A     -0.662027    17A     -0.621087    18A     -0.610907
      19A     -0.574476    20A     -0.548718    21A     -0.530623
      22A     -0.522046    23A     -0.499736    24A     -0.489339
      25A     -0.467657    26A     -0.449403    27A     -0.427288
      28A     -0.415652

  @DF-RHF Final Energy:  -309.16253784623996

   => Energetics <=

    Nuclear Repulsion Energy =            332.0384027773577600
    One-Electron Energy =               -1077.8301400116158675
    Two-Electron Energy =                 436.6291993880180371
    DFT Exchange-Correlation Energy =       0.0000000000000000
    Empirical Dispersion Energy =           0.0000000000000000
    PCM Polarization Energy =               0.0000000000000000
    EFP Energy =                            0.0000000000000000
    Total Energy =                       -309.1625378462400704
    Molecular point group: c1
  Basis Set: CC-PVTZ
  Basis Set:

  -Total Gradient:
     Atom            X                  Y                   Z
    ------   -----------------  -----------------  -----------------
       1        0.000442902791     0.000302508960     0.002133464617
       2       -0.000546899058     0.000064457216    -0.002690106297
       3        0.000139678895    -0.002215335085     0.000839359013
       4       -0.000019715343     0.001856733668    -0.000247251595
       5       -0.000018270018     0.000012962859    -0.000033726958
       6        0.000001580753    -0.000000444046    -0.000004638378
       7        0.000002873510     0.000000408411    -0.000011756913
       8        0.000004255471     0.000005035864    -0.000001574275
       9        0.000012642917     0.000003578468     0.000013902810
      10        0.000003284267     0.000005522962    -0.000003505046
      11       -0.000003582089    -0.000013236064    -0.000000194827
      12        0.000013511248     0.000009628231    -0.000007946216
      13        0.000019625044    -0.000007483453     0.000012458416
      14       -0.000001812227     0.000000763788     0.000009370776
      15       -0.000030015624    -0.000011723748    -0.000007852277
      16       -0.000010543528     0.000004755660     0.000002850156
      17       -0.000005066663    -0.000002270089     0.000002715753
      18       -0.000005108838    -0.000023869895    -0.000001433593
      19        0.000000658495     0.000008006295    -0.000004135167

  **** Optimization is complete! (in 5 steps) ****
    Final optimized geometry and variables:
    Molecular point group: c1

    Geometry (in Angstrom), charge = 0, multiplicity = 1:

    H           -2.631989352606    -0.922085422421     0.140820387722
    O           -2.324363019773    -0.054596488268    -0.046500111447
    C           -0.945786910230    -0.076225370797    -0.325319083846
    H           -0.816272232366    -0.225235288684    -1.395393132625
    C           -0.213678548848    -1.186176408275     0.411324813698
    C           -0.367759945600     1.293414009570     0.047542389161
    H           -0.287406977166    -0.997459229320     1.478159277407
    H           -0.700627379709    -2.140283570116     0.229581918632
    C            1.260993385284    -1.260842143594    -0.023384387664
    H           -0.565548598372     1.990332577590    -0.758941207371
    H           -0.908997518839     1.656279443342     0.912357376505
    C            1.140151405979     1.237090241801     0.350086037220
    H            1.846962347289    -1.674147830639     0.789632886408
    H            1.364818328217    -1.949075021739    -0.854710199674
    C            1.823967023565     0.114567555032    -0.425522228306
    H            1.599571779336     2.191366805702     0.121524315189
    H            1.295020800655     1.072584910029     1.412252459069
    H            2.895092118813     0.136042002362    -0.262071903696
    H            1.675433263502     0.277582771849    -1.488716537104

  Mulliken Charges: (a.u.)
   Center  Symbol    Alpha    Beta     Spin     Total
       1     H     0.39368  0.39368  0.00000  0.21265
       2     O     4.20543  4.20543  0.00000 -0.41086
       3     C     2.92582  2.92582  0.00000  0.14836
       4     H     0.46046  0.46046  0.00000  0.07909
       5     C     3.10878  3.10878  0.00000 -0.21756
       6     C     3.11069  3.11069  0.00000 -0.22139
       7     H     0.45133  0.45133  0.00000  0.09733
       8     H     0.45050  0.45050  0.00000  0.09900
       9     C     3.11381  3.11381  0.00000 -0.22762
      10     H     0.44619  0.44619  0.00000  0.10762
      11     H     0.44443  0.44443  0.00000  0.11114
      12     C     3.10131  3.10131  0.00000 -0.20262
      13     H     0.44688  0.44688  0.00000  0.10624
      14     H     0.44702  0.44702  0.00000  0.10596
      15     C     3.10186  3.10186  0.00000 -0.20372
      16     H     0.44181  0.44181  0.00000  0.11638
      17     H     0.45412  0.45412  0.00000  0.09175
      18     H     0.44278  0.44278  0.00000  0.11443
      19     H     0.45309  0.45309  0.00000  0.09382

   Total alpha = 28.00000, Total beta = 28.00000, Total charge = -0.00000
