  ==> Input File <==

--------------------------------------------------------------------------
set {
	reference rhf
	basis 6-31G*
}

set_num_threads( 4 )
memory 2 gb

molecule MOL {
0 1

H	 -0.821032	 -1.655889	 0.000000
O	 -1.037828	 -0.728600	 0.000000
C	 0.100509	 -0.036935	 0.000000
C	 0.940217	 -0.342326	 1.207282
O	 0.383340	 0.721524	 -0.868314
H	 0.384415	 -0.105669	 2.107167
H	 1.850862	 0.236036	 1.170211
H	 1.171427	 -1.400928	 1.232127

	symmetry c1
}
set optking {
	frozen_dihedral = ("
		4 3 2 1
	")
}

ee = optimize('scf')
oeprop('DIPOLE', 'QUADRUPOLE', 'MULLIKEN_CHARGES')
f=open( 'psi4out.xyz', 'w' )
f.write( "8  " )
f.write( str(ee) + "\n" )
f.write( MOL.save_string_xyz() )
f.close()
--------------------------------------------------------------------------

    Molecular point group: c1
  Charge       = 0
  Multiplicity = 1
  Basis Set: 6-31G*
  Basis Set:
  @DF-RHF Final Energy:  -227.78856682813188
    Total Energy =                       -227.7885668281318488
    Molecular point group: c1
  Basis Set: 6-31G*
  Basis Set:
  Basis Set: 6-31G*
  Basis Set:
  @DF-RHF Final Energy:  -227.78881313936404
    Total Energy =                       -227.7888131393640947
  Basis Set: 6-31G*
  Basis Set:
  Basis Set: 6-31G*
  Basis Set:
  @DF-RHF Final Energy:  -227.79014298616175
    Total Energy =                       -227.7901429861616975
  Basis Set: 6-31G*
  Basis Set:
  Basis Set: 6-31G*
  Basis Set:
  @DF-RHF Final Energy:  -227.79076724923829
    Total Energy =                       -227.7907672492382574
  Basis Set: 6-31G*
  Basis Set:
  Basis Set: 6-31G*
  Basis Set:
  @DF-RHF Final Energy:  -227.79080292155624
    Total Energy =                       -227.7908029215562919
  Basis Set: 6-31G*
  Basis Set:
  Basis Set: 6-31G*
  Basis Set:
  @DF-RHF Final Energy:  -227.79082026962979
    Total Energy =                       -227.7908202696298190
  Basis Set: 6-31G*
  Basis Set:
  Basis Set: 6-31G*
  Basis Set:
  @DF-RHF Final Energy:  -227.79083097564052
    Total Energy =                       -227.7908309756405174
  Basis Set: 6-31G*
  Basis Set:
  Charge       = 0
  Multiplicity = 1
  Basis Set: 6-31G*
  Basis Set:

    Orbital Energies (a.u.)
    -----------------------

    Doubly Occupied:

       1A    -20.603223     2A    -20.559494     3A    -11.385780
       4A    -11.247161     5A     -1.464503     6A     -1.371886
       7A     -1.024154     8A     -0.831895     9A     -0.714348
      10A     -0.666663    11A     -0.660847    12A     -0.597221
      13A     -0.576444    14A     -0.524563    15A     -0.489901
      16A     -0.448994

  @DF-RHF Final Energy:  -227.79083173779122

   => Energetics <=

    Nuclear Repulsion Energy =            121.8504618633010779
    One-Electron Energy =                -552.9484348458852310
    Two-Electron Energy =                 203.3071412447930584
    DFT Exchange-Correlation Energy =       0.0000000000000000
    Empirical Dispersion Energy =           0.0000000000000000
    PCM Polarization Energy =               0.0000000000000000
    EFP Energy =                            0.0000000000000000
    Total Energy =                       -227.7908317377911089
    Molecular point group: c1
  Basis Set: 6-31G*
  Basis Set:

  -Total Gradient:
     Atom            X                  Y                   Z
    ------   -----------------  -----------------  -----------------
       1        0.000211623130     0.000136921499    -0.006038468936
       2       -0.001075652653     0.000948704398     0.008450942270
       3        0.002647073113    -0.003482625369    -0.004135843709
       4       -0.001796110329     0.002652333022     0.001821096274
       5        0.000041217267    -0.000240829865    -0.000098780240
       6       -0.000008303950    -0.000001927738     0.000000548253
       7       -0.000010308297    -0.000000830972    -0.000008028674
       8       -0.000009538282    -0.000011744978     0.000008534766

  **** Optimization is complete! (in 8 steps) ****
    Final optimized geometry and variables:
    Molecular point group: c1

    Geometry (in Angstrom), charge = 0, multiplicity = 1:

    H           -0.954111449405    -1.578801912034    -0.156032678009
    O           -1.112738160302    -0.643230301042    -0.141810508096
    C            0.039290289553     0.066534619641    -0.093028820291
    C            0.893590151825    -0.216144354490     1.117258179653
    O            0.266924877971     0.908577937045    -0.885797999134
    H            0.349189059318     0.098811957257     2.000937140400
    H            1.823722411329     0.327515443077     1.047615983918
    H            1.097222963066    -1.277407547441     1.221048765822

  Mulliken Charges: (a.u.)
   Center  Symbol    Alpha    Beta     Spin     Total
       1     H     0.26885  0.26885  0.00000  0.46229
       2     O     4.35617  4.35617  0.00000 -0.71234
       3     C     2.63899  2.63899  0.00000  0.72201
       4     C     3.29118  3.29118  0.00000 -0.58236
       5     O     4.24491  4.24491  0.00000 -0.48981
       6     H     0.39415  0.39415  0.00000  0.21170
       7     H     0.39279  0.39279  0.00000  0.21443
       8     H     0.41296  0.41296  0.00000  0.17409

   Total alpha = 16.00000, Total beta = 16.00000, Total charge =  0.00000
