  ==> Input File <==

--------------------------------------------------------------------------
set {
	reference rhf
	basis cc-pvtz
}

set_num_threads( 4 )
memory 2 gb

molecule MOL {
0 1

H	 -1.424317	 0.899614	 -2.516309
O	 -1.738318	 1.592067	 -1.962807
C	 -0.870152	 1.764303	 -0.885658
C	 -0.793473	 0.591216	 0.050087
H	 -1.224748	 2.631824	 -0.341626
H	 0.133672	 2.004408	 -1.231179
C	 -1.534243	 -0.493009	 -0.013340
H	 -0.055233	 0.686086	 0.829350
H	 -1.101195	 -1.466332	 -0.144046
H	 -2.604242	 -0.437780	 0.050785

	symmetry c1
}
set optking {
	frozen_dihedral = ("
		3 4 7 9
	")
}

ee = optimize('scf')
oeprop('DIPOLE', 'QUADRUPOLE', 'MULLIKEN_CHARGES')
f=open( 'psi4out.xyz', 'w' )
f.write( "10  " )
f.write( str(ee) + "\n" )
f.write( MOL.save_string_xyz() )
f.close()
--------------------------------------------------------------------------

    Molecular point group: c1
  Charge       = 0
  Multiplicity = 1
  Basis Set: CC-PVTZ
  Basis Set:
  @DF-RHF Final Energy:  -191.91833901748194
    Total Energy =                       -191.9183390174819692
    Molecular point group: c1
  Basis Set: CC-PVTZ
  Basis Set:
  Basis Set: CC-PVTZ
  Basis Set:
  @DF-RHF Final Energy:  -191.94413747322272
    Total Energy =                       -191.9441374732228383
  Basis Set: CC-PVTZ
  Basis Set:
  Basis Set: CC-PVTZ
  Basis Set:
  @DF-RHF Final Energy:  -191.96271171004457
    Total Energy =                       -191.9627117100444309
  Basis Set: CC-PVTZ
  Basis Set:
  Basis Set: CC-PVTZ
  Basis Set:
  @DF-RHF Final Energy:  -191.96533848674210
    Total Energy =                       -191.9653384867420698
  Basis Set: CC-PVTZ
  Basis Set:
  @DF-RHF Final Energy:  -191.96555606208003
    Total Energy =                       -191.9655560620800543
  @DF-RHF Final Energy:  -191.96557287296849
    Total Energy =                       -191.9655728729684085
  @DF-RHF Final Energy:  -191.96522722188064
    Total Energy =                       -191.9652272218807809
  @DF-RHF Final Energy:  -191.96556447543333
    Total Energy =                       -191.9655644754333537
  @DF-RHF Final Energy:  -191.96493243507544
    Total Energy =                       -191.9649324350754114
  @DF-RHF Final Energy:  -191.96552133587937
    Total Energy =                       -191.9655213358793731
  @DF-RHF Final Energy:  -191.96270799190438
    Total Energy =                       -191.9627079919043240
  @DF-RHF Final Energy:  -191.96105610340186
    Total Energy =                       -191.9610561034016882
  @DF-RHF Final Energy:  -191.96552651139109
    Total Energy =                       -191.9655265113910900
  @DF-RHF Final Energy:  -191.96556146989457
    Total Energy =                       -191.9655614698948511
  @DF-RHF Final Energy:  -191.96556272979956
    Total Energy =                       -191.9655627297995579
  @DF-RHF Final Energy:  -191.96160232512554
    Total Energy =                       -191.9616023251256252
  @DF-RHF Final Energy:  -191.95856706861801
    Total Energy =                       -191.9585670686180379
  @DF-RHF Final Energy:  -191.95951900961828
    Total Energy =                       -191.9595190096181625
  @DF-RHF Final Energy:  -191.96188855109966
    Total Energy =                       -191.9618885510996336
  @DF-RHF Final Energy:  -191.96525254772047
    Total Energy =                       -191.9652525477206098
  @DF-RHF Final Energy:  -191.93501129243447
    Total Energy =                       -191.9350112924344103
  @DF-RHF Final Energy:  -191.89470023742950
    Total Energy =                       -191.8947002374295892
  @DF-RHF Final Energy:  -191.87847461232258
    Total Energy =                       -191.8784746123225489
  @DF-RHF Final Energy:  -191.94786341326989
    Total Energy =                       -191.9478634132698573
  @DF-RHF Final Energy:  -191.96307140167596
    Total Energy =                       -191.9630714016759612
  @DF-RHF Final Energy:  -191.96462068210775
    Total Energy =                       -191.9646206821078351
  @DF-RHF Final Energy:  -191.96539780213513
    Total Energy =                       -191.9653978021351577
  @DF-RHF Final Energy:  -191.96555528909835
    Total Energy =                       -191.9655552890982904
  @DF-RHF Final Energy:  -191.96557549880725
    Total Energy =                       -191.9655754988073113
  @DF-RHF Final Energy:  -191.96557972546958
    Total Energy =                       -191.9655797254697234
  @DF-RHF Final Energy:  -191.96558192801206
    Total Energy =                       -191.9655819280120852
  @DF-RHF Final Energy:  -191.96558088440634
    Total Energy =                       -191.9655808844063074
  @DF-RHF Final Energy:  -191.96558083977379
    Total Energy =                       -191.9655808397737360
  @DF-RHF Final Energy:  -191.96558134088170
    Total Energy =                       -191.9655813408815561
  @DF-RHF Final Energy:  -191.96556473783014
    Total Energy =                       -191.9655647378301353
  @DF-RHF Final Energy:  -191.96557830085663
    Total Energy =                       -191.9655783008566914
  Basis Set: CC-PVTZ
  Basis Set:
  @DF-RHF Final Energy:  -191.96558006610840
    Total Energy =                       -191.9655800661083731
  Basis Set: CC-PVTZ
  Basis Set:
  Basis Set: CC-PVTZ
  Basis Set:
  @DF-RHF Final Energy:  -191.96557962658812
    Total Energy =                       -191.9655796265881520
  Basis Set: CC-PVTZ
  Basis Set:
  Basis Set: CC-PVTZ
  Basis Set:
  @DF-RHF Final Energy:  -191.96557900695382
    Total Energy =                       -191.9655790069539307
  Basis Set: CC-PVTZ
  Basis Set:
  Charge       = 0
  Multiplicity = 1
  Basis Set: CC-PVTZ
  Basis Set:

    Orbital Energies (a.u.)
    -----------------------

    Doubly Occupied:

       1A    -20.557085     2A    -11.286745     3A    -11.240789
       4A    -11.220741     5A     -1.378872     6A     -1.066262
       7A     -0.937395     8A     -0.775891     9A     -0.696627
      10A     -0.659914    11A     -0.625078    12A     -0.583228
      13A     -0.531741    14A     -0.503676    15A     -0.453725
      16A     -0.357898

  @DF-RHF Final Energy:  -191.96557752250618

   => Energetics <=

    Nuclear Repulsion Energy =            119.1608340088149021
    One-Electron Energy =                -496.5014894595526584
    Two-Electron Energy =                 185.3750779282317183
    DFT Exchange-Correlation Energy =       0.0000000000000000
    Empirical Dispersion Energy =           0.0000000000000000
    PCM Polarization Energy =               0.0000000000000000
    EFP Energy =                            0.0000000000000000
    Total Energy =                       -191.9655775225060381
    Molecular point group: c1
  Basis Set: CC-PVTZ
  Basis Set:

  -Total Gradient:
     Atom            X                  Y                   Z
    ------   -----------------  -----------------  -----------------
       1        0.000079344891    -0.000428183638    -0.000247637634
       2        0.000165372223     0.000441333661     0.000484033228
       3        0.022426928356    -0.010832001135    -0.010002815227
       4       -0.037253742477     0.018034453744     0.000368382731
       5       -0.000088042961     0.000352880050     0.000141108225
       6        0.000366791824    -0.000023458472    -0.000160427502
       7        0.008221270776    -0.007934300009     0.046151198292
       8        0.000357025434     0.000267990909    -0.000214030879
       9        0.005511497703    -0.000147731967    -0.035882941546
      10        0.000213554230     0.000269016856    -0.000636869692

    Molecular point group: c1

    Geometry (in Angstrom), charge = 0, multiplicity = 1:

    H           -0.447854473768    -0.041279265451    -1.614362526036
    O           -0.528580152196     0.774510655023    -1.154699060910
    C            0.414194583241     0.839269487801    -0.136887380363
    C            0.362931789499    -0.278727340648     0.870672333719
    H            0.303182853168     1.815824799975     0.322089499845
    H            1.427786561387     0.789420137017    -0.529081676049
    C           -0.220133036639    -1.459430258512     0.755875243379
    H            1.235005994415    -0.230956988950     1.512122045876
    H            0.297736621100    -2.398736422850     0.821288089111
    H           -1.058931190694    -1.523411655713     0.076727848909

  Mulliken Charges: (a.u.)
   Center  Symbol    Alpha    Beta     Spin     Total
       1     H     0.39089  0.39089  0.00000  0.21821
       2     O     4.19780  4.19780  0.00000 -0.39561
       3     C     2.94955  2.94955  0.00000  0.10089
       4     C     3.06958  3.06958  0.00000 -0.13917
       5     H     0.45015  0.45015  0.00000  0.09970
       6     H     0.46676  0.46676  0.00000  0.06648
       7     C     3.17709  3.17709  0.00000 -0.35418
       8     H     0.43320  0.43320  0.00000  0.13360
       9     H     0.42252  0.42252  0.00000  0.15497
      10     H     0.44245  0.44245  0.00000  0.11510

   Total alpha = 16.00000, Total beta = 16.00000, Total charge =  0.00000
