                              Psi4 1.0.54 Driver

  ==> Input File <==

--------------------------------------------------------------------------
set {
	reference rhf
	basis cc-pvtz
}

set_num_threads( 4 )
memory 2 gb

molecule MOL {
0 1

H	 -2.305146	 -1.764267	 2.202201
O	 -1.975569	 -1.657327	 1.322620
C	 -0.896870	 -0.880654	 1.368688
C	 -0.310616	 -0.658853	 0.000791
O	 -0.484611	 -0.436330	 2.383867
C	 0.926581	 0.227233	 0.000178
H	 -1.096600	 -0.239835	 -0.619193
H	 -0.095705	 -1.637224	 -0.416725
C	 2.220156	 -0.582071	 -0.000088
H	 0.899945	 0.878221	 -0.866390
H	 0.900542	 0.878581	 0.866486
C	 3.466689	 0.296012	 -0.000457
H	 2.239073	 -1.234095	 -0.869382
H	 2.239505	 -1.233985	 0.869270
H	 3.493549	 0.935857	 -0.875887
H	 4.368821	 -0.304526	 -0.001199
H	 3.494559	 0.935166	 0.875458

	symmetry c1
}
set optking {
	frozen_dihedral = ("
		7 4 6 10
	")
}

ee,wfn = optimize('scf', return_wfn=True)
oeprop( wfn, 'DIPOLE', 'QUADRUPOLE', 'MULLIKEN_CHARGES')
f=open( 'psi4out.xyz', 'w' )
f.write( "17  " )
f.write( str(ee) + "\n" )
f.write( MOL.save_string_xyz() )
f.close()
--------------------------------------------------------------------------

    Molecular point group: c1
  Charge       = 0
  Multiplicity = 1
  Basis Set: CC-PVTZ
  Basis Set:
  @DF-RHF Final Energy:  -345.04598440555878
    Total Energy =                       -345.0459844055584995
    Molecular point group: c1
  Basis Set: CC-PVTZ
  Basis Set:
  Basis Set: CC-PVTZ
  Basis Set:
  @DF-RHF Final Energy:  -345.04621523575139
    Total Energy =                       -345.0462152357515606
  Basis Set: CC-PVTZ
  Basis Set:
  Basis Set: CC-PVTZ
  Basis Set:
  @DF-RHF Final Energy:  -345.04521057887217
    Total Energy =                       -345.0452105788718882
  Basis Set: CC-PVTZ
  Basis Set:
  Basis Set: CC-PVTZ
  Basis Set:
  @DF-RHF Final Energy:  -345.04630228892398
    Total Energy =                       -345.0463022889238118
  Basis Set: CC-PVTZ
  Basis Set:
  Basis Set: CC-PVTZ
  Basis Set:
  @DF-RHF Final Energy:  -345.04631135697787
    Total Energy =                       -345.0463113569780376
  Basis Set: CC-PVTZ
  Basis Set:
  Basis Set: CC-PVTZ
  Basis Set:
  @DF-RHF Final Energy:  -345.04631329285405
    Total Energy =                       -345.0463132928539949
  Basis Set: CC-PVTZ
  Basis Set:
  Charge       = 0
  Multiplicity = 1
  Basis Set: CC-PVTZ
  Basis Set:

    Orbital Energies (a.u.)
    -----------------------

    Doubly Occupied:

       1A    -20.604807     2A    -20.541645     3A    -11.374760
       4A    -11.239228     5A    -11.220139     6A    -11.217314
       7A    -11.207924     8A     -1.478657     9A     -1.370059
      10A     -1.090288    11A     -1.017752    12A     -0.914168
      13A     -0.827043    14A     -0.788219    15A     -0.706067
      16A     -0.697359    17A     -0.657979    18A     -0.628538
      19A     -0.588429    20A     -0.584940    21A     -0.582497
      22A     -0.526132    23A     -0.521076    24A     -0.487419
      25A     -0.480662    26A     -0.470797    27A     -0.466750
      28A     -0.448843

  @DF-RHF Final Energy:  -345.04631388612398

   => Energetics <=

    Nuclear Repulsion Energy =            308.7685175398475508
    One-Electron Energy =               -1082.1506881356517624
    Two-Electron Energy =                 428.3358567096798879
    DFT Exchange-Correlation Energy =       0.0000000000000000
    Empirical Dispersion Energy =           0.0000000000000000
    PCM Polarization Energy =               0.0000000000000000
    EFP Energy =                            0.0000000000000000
    Total Energy =                       -345.0463138861242669
    Molecular point group: c1
  Basis Set: CC-PVTZ
  Basis Set:

  -Total Gradient:
     Atom            X                  Y                   Z
    ------   -----------------  -----------------  -----------------
       1       -0.000017225175    -0.000007002419    -0.000000217005
       2        0.000017971411    -0.000007528763     0.000043362945
       3        0.000061541937     0.000021691144     0.000004001835
       4       -0.001787563446     0.002781180159     0.004028478803
       5       -0.000061743141    -0.000003158353    -0.000050171324
       6        0.002292315201    -0.003441549445    -0.003065363267
       7        0.001183308346    -0.001724781400    -0.002825806101
       8       -0.000014967814    -0.000013269535    -0.000023943417
       9       -0.000041496917    -0.000008790250    -0.000000192372
      10       -0.001640507813     0.002395647916     0.001880699862
      11       -0.000004479786     0.000011801909     0.000014496855
      12       -0.000001471828     0.000007741558    -0.000003161619
      13        0.000010784525     0.000006749172     0.000006721710
      14        0.000005078607    -0.000009773775    -0.000008128829
      15        0.000001058120    -0.000007133047     0.000005671549
      16        0.000001773527     0.000002172774     0.000001509041
      17       -0.000004375760    -0.000003997646    -0.000007958666

  **** Optimization is complete! (in 7 steps) ****
    Final optimized geometry and variables:
    Molecular point group: c1

    Geometry (in Angstrom), charge = 0, multiplicity = 1:

    H           -2.694802813041    -1.243984637145     1.434672992200
    O           -2.385032083750    -1.095155243942     0.553994218176
    C           -1.284048395900    -0.352115012522     0.615200018517
    C           -0.724599246240    -0.077942696969    -0.755006246362
    O           -0.833857375768     0.019671260983     1.643515404213
    C            0.537265161072     0.786171871311    -0.767081033902
    H           -1.516153055145     0.353039993453    -1.356504213272
    H           -0.537911137426    -1.047609027942    -1.206961708852
    C            1.831872228352    -0.020667190310    -0.760158856393
    H            0.506386610315     1.442573918319    -1.630273504117
    H            0.520432950628     1.436226361451     0.098941152250
    C            3.076633087646     0.858416229256    -0.728221203255
    H            1.863098694766    -0.659853721741    -1.638735762141
    H            1.833890306484    -0.679974843961     0.102591598440
    H            3.114686581413     1.514986776203    -1.591341498989
    H            3.979385702927     0.258795392547    -0.729094594388
    H            3.091865011814     1.479386454586     0.160670785616

  Mulliken Charges: (a.u.)
   Center  Symbol    Alpha    Beta     Spin     Total
       1     H     0.38255  0.38255  0.00000  0.23490
       2     O     4.15929  4.15929  0.00000 -0.31858
       3     C     2.80061  2.80061  0.00000  0.39877
       4     C     3.12036  3.12036  0.00000 -0.24071
       5     O     4.19252  4.19252  0.00000 -0.38504
       6     C     3.09404  3.09404  0.00000 -0.18807
       7     H     0.42842  0.42842  0.00000  0.14317
       8     H     0.43851  0.43851  0.00000  0.12297
       9     C     3.08256  3.08256  0.00000 -0.16512
      10     H     0.44615  0.44615  0.00000  0.10771
      11     H     0.44213  0.44213  0.00000  0.11574
      12     C     3.15120  3.15120  0.00000 -0.30239
      13     H     0.45621  0.45621  0.00000  0.08758
      14     H     0.44969  0.44969  0.00000  0.10062
      15     H     0.45617  0.45617  0.00000  0.08767
      16     H     0.44818  0.44818  0.00000  0.10364
      17     H     0.45144  0.45144  0.00000  0.09713

   Total alpha = 28.00000, Total beta = 28.00000, Total charge = -0.00000

*** Psi4 exiting successfully. Buy a developer a beer!
