                              Psi4 1.0.54 Driver

  ==> Input File <==

--------------------------------------------------------------------------
set {
	reference rhf
	basis cc-pvtz
}

set_num_threads( 4 )
memory 2 gb

molecule MOL {
0 1

O	 1.837975	 1.282914	 0.171804
C	 1.704209	 0.119472	 -0.000093
C	 0.394120	 -0.584644	 -0.244074
O	 2.715427	 -0.733672	 0.000025
C	 -0.809890	 0.346246	 -0.255393
H	 0.487103	 -1.118444	 -1.184213
H	 0.293289	 -1.348430	 0.520065
C	 -2.117690	 -0.399160	 -0.504487
H	 -0.667744	 1.105005	 -1.016545
H	 -0.861629	 0.874952	 0.689637
C	 -3.337060	 0.518118	 -0.518873
H	 -2.058261	 -0.929228	 -1.452509
H	 -2.252594	 -1.160702	 0.260427
C	 -4.644105	 -0.226749	 -0.768312
H	 -3.203828	 1.278563	 -1.283157
H	 -3.398338	 1.046846	 0.428149
H	 -4.627045	 -0.738289	 -1.725009
H	 -5.488382	 0.452893	 -0.772452
H	 -4.823298	 -0.971568	 0.000042
C	 4.020999	 -0.192556	 0.000019
H	 4.182809	 0.412891	 -0.879449
H	 4.692590	 -1.035653	 0.000152
H	 4.182726	 0.413087	 0.879368

	symmetry c1
}
set optking {
	frozen_dihedral = ("
		1 2 4 20
	")
}

ee,wfn = optimize('scf', return_wfn=True)
oeprop( wfn, 'DIPOLE', 'QUADRUPOLE', 'MULLIKEN_CHARGES')
f=open( 'psi4out.xyz', 'w' )
f.write( "23  " )
f.write( str(ee) + "\n" )
f.write( MOL.save_string_xyz() )
f.close()
--------------------------------------------------------------------------

    Molecular point group: c1
  Charge       = 0
  Multiplicity = 1
  Basis Set: CC-PVTZ
  Basis Set:
  @DF-RHF Final Energy:  -423.13047373914446
    Total Energy =                       -423.1304737391442359
    Molecular point group: c1
  Basis Set: CC-PVTZ
  Basis Set:
  Basis Set: CC-PVTZ
  Basis Set:
  @DF-RHF Final Energy:  -423.12896617314897
    Total Energy =                       -423.1289661731486831
  Basis Set: CC-PVTZ
  Basis Set:
  Basis Set: CC-PVTZ
  Basis Set:
  @DF-RHF Final Energy:  -423.13054729478847
    Total Energy =                       -423.1305472947877888
  Basis Set: CC-PVTZ
  Basis Set:
  Basis Set: CC-PVTZ
  Basis Set:
  @DF-RHF Final Energy:  -423.13055693918801
    Total Energy =                       -423.1305569391881818
  Basis Set: CC-PVTZ
  Basis Set:
  @DF-RHF Final Energy:  -423.13056016107271
    Total Energy =                       -423.1305601610728218
  Basis Set: CC-PVTZ
  Basis Set:
  @DF-RHF Final Energy:  -423.13056157419840
    Total Energy =                       -423.1305615741983956
  Basis Set: CC-PVTZ
  Basis Set:
  Basis Set: CC-PVTZ
  Basis Set:
  @DF-RHF Final Energy:  -423.13056042925052
    Total Energy =                       -423.1305604292497264
  Basis Set: CC-PVTZ
  Basis Set:
  Basis Set: CC-PVTZ
  Basis Set:
  @DF-RHF Final Energy:  -423.13056224410730
    Total Energy =                       -423.1305622441075229
  Basis Set: CC-PVTZ
  Basis Set:
  Charge       = 0
  Multiplicity = 1
  Basis Set: CC-PVTZ
  Basis Set:

    Orbital Energies (a.u.)
    -----------------------

    Doubly Occupied:

       1A    -20.595799     2A    -20.534358     3A    -11.364655
       4A    -11.278743     5A    -11.233830     6A    -11.217220
       7A    -11.215862     8A    -11.214537     9A    -11.207788
      10A     -1.471768    11A     -1.365799    12A     -1.094537
      13A     -1.044754    14A     -0.987895    15A     -0.932866
      16A     -0.844248    17A     -0.795609    18A     -0.769189
      19A     -0.699002    20A     -0.686551    21A     -0.675353
      22A     -0.652818    23A     -0.609823    24A     -0.601135
      25A     -0.573807    26A     -0.561353    27A     -0.556496
      28A     -0.525693    29A     -0.521827    30A     -0.508294
      31A     -0.484863    32A     -0.470227    33A     -0.467234
      34A     -0.463614    35A     -0.458771    36A     -0.438194

  @DF-RHF Final Energy:  -423.13056246718105

   => Energetics <=

    Nuclear Repulsion Energy =            452.8489643876577588
    One-Electron Energy =               -1473.7100315227366991
    Two-Electron Energy =                 597.7305046678975486
    DFT Exchange-Correlation Energy =       0.0000000000000000
    Empirical Dispersion Energy =           0.0000000000000000
    PCM Polarization Energy =               0.0000000000000000
    EFP Energy =                            0.0000000000000000
    Total Energy =                       -423.1305624671813348
    Molecular point group: c1
  Basis Set: CC-PVTZ
  Basis Set:

  -Total Gradient:
     Atom            X                  Y                   Z
    ------   -----------------  -----------------  -----------------
       1       -0.000557277964    -0.000161001438     0.003389299297
       2        0.000844107100     0.000334751659    -0.006466926614
       3        0.000009452797    -0.000018812799     0.000093049087
       4       -0.000484320844     0.000006269061     0.005520455091
       5        0.000004520995     0.000004476131     0.000011477784
       6        0.000000145282    -0.000007856100     0.000015084465
       7        0.000002920178    -0.000018818632     0.000016909841
       8       -0.000005585851    -0.000010715814    -0.000007412936
       9       -0.000002816814     0.000011070046    -0.000002661672
      10        0.000001770546     0.000006773367    -0.000004367357
      11        0.000000368432     0.000010243324     0.000002489667
      12        0.000001207239    -0.000006373950    -0.000002447775
      13        0.000000932129    -0.000008442806    -0.000001028290
      14       -0.000008792168    -0.000004685416     0.000001005672
      15       -0.000000055304     0.000006828937    -0.000000456234
      16       -0.000001215320     0.000008946968     0.000001623555
      17        0.000003412221    -0.000007992059    -0.000001882074
      18       -0.000001349548     0.000011466358     0.000001980882
      19        0.000001907915    -0.000009761317     0.000000009743
      20        0.000132357268    -0.000209406887    -0.002626983199
      21        0.000012761767     0.000053426989    -0.000034969860
      22        0.000041428870    -0.000057029138     0.000013558976
      23        0.000004121085     0.000066643516     0.000082191950

  **** Optimization is complete! (in 9 steps) ****
    Final optimized geometry and variables:
    Molecular point group: c1

    Geometry (in Angstrom), charge = 0, multiplicity = 1:

    O            1.829640570498     1.274440338722     0.356209470390
    C            1.689859674347     0.105724994641     0.232243311598
    C            0.382098329861    -0.596987096077    -0.026562930427
    O            2.687571998091    -0.758151871549     0.336443639452
    C           -0.821281999109     0.334495373742    -0.049554361066
    H            0.486123605525    -1.125660608162    -0.968935847320
    H            0.272833693935    -1.364909532938     0.731762725968
    C           -2.126094233071    -0.409105628130    -0.319001970310
    H           -0.668685383624     1.096840076649    -0.804852009078
    H           -0.885378640053     0.858609365613     0.897500043139
    C           -3.344757647876     0.508845247183    -0.344592911775
    H           -2.054585592392    -0.934429407599    -1.268857172508
    H           -2.271200997843    -1.174413040822     0.440255702815
    C           -4.648852365383    -0.234271285000    -0.613944563914
    H           -3.201520758006     1.272749013755    -1.103604149427
    H           -3.417827022686     1.033216654820     0.604025476447
    H           -4.619984576691    -0.741192000822    -1.572832290863
    H           -5.492757964371     0.445777526065    -0.625315156749
    H           -4.837848425287    -0.982783860234     0.148466174282
    C            3.998284789431    -0.232492871580     0.391960852231
    H            4.201788895373     0.371964148461    -0.480001052949
    H            4.659794579297    -1.083286323749     0.417206265604
    H            4.132914905741     0.370338214650     1.277740618937

  Mulliken Charges: (a.u.)
   Center  Symbol    Alpha    Beta     Spin     Total
       1     O     4.19638  4.19638  0.00000 -0.39275
       2     C     2.80679  2.80679  0.00000  0.38643
       3     C     3.10121  3.10121  0.00000 -0.20243
       4     O     4.14698  4.14698  0.00000 -0.29395
       5     C     3.08350  3.08350  0.00000 -0.16699
       6     H     0.44136  0.44136  0.00000  0.11727
       7     H     0.43912  0.43912  0.00000  0.12175
       8     C     3.08926  3.08926  0.00000 -0.17853
       9     H     0.44578  0.44578  0.00000  0.10844
      10     H     0.44688  0.44688  0.00000  0.10624
      11     C     3.08400  3.08400  0.00000 -0.16801
      12     H     0.45586  0.45586  0.00000  0.08828
      13     H     0.45573  0.45573  0.00000  0.08855
      14     C     3.15039  3.15039  0.00000 -0.30077
      15     H     0.45325  0.45325  0.00000  0.09349
      16     H     0.45328  0.45328  0.00000  0.09343
      17     H     0.45534  0.45534  0.00000  0.08932
      18     H     0.44773  0.44773  0.00000  0.10455
      19     H     0.45531  0.45531  0.00000  0.08939
      20     C     3.03767  3.03767  0.00000 -0.07535
      21     H     0.45633  0.45633  0.00000  0.08734
      22     H     0.44532  0.44532  0.00000  0.10935
      23     H     0.45253  0.45253  0.00000  0.09494

   Total alpha = 36.00000, Total beta = 36.00000, Total charge = -0.00000

*** Psi4 exiting successfully. Buy a developer a beer!
