  ==> Input File <==

--------------------------------------------------------------------------
set {
	reference rhf
	basis 6-31G*
}

set_num_threads( 4 )
memory 2 gb

molecule MOL {
0 1

H	 -2.556862	 -0.212514	 -2.873506
C	 -1.657899	 -0.279397	 -2.288301
C	 -1.435436	 -1.373717	 -1.459328
C	 -0.706881	 0.718358	 -2.347486
H	 -2.165865	 -2.161022	 -1.400553
C	 -0.283934	 -1.462932	 -0.707476
H	 -0.861915	 1.572202	 -2.983097
C	 0.460504	 0.643438	 -1.595119
H	 -0.099557	 -2.302455	 -0.063240
C	 0.672202	 -0.451582	 -0.772201
H	 1.180945	 1.435302	 -1.662818
O	 1.765256	 -0.628444	 0.000000
C	 2.778419	 0.335181	 0.000000
H	 2.731280	 0.961222	 -0.884976
H	 3.711703	 -0.207767	 0.000000
H	 2.731280	 0.961222	 0.884976

	symmetry c1
}
set optking {
	frozen_dihedral = ("
		10 12 13 14
	")
}

ee = optimize('scf')
oeprop('DIPOLE', 'QUADRUPOLE', 'MULLIKEN_CHARGES')
f=open( 'psi4out.xyz', 'w' )
f.write( "16  " )
f.write( str(ee) + "\n" )
f.write( MOL.save_string_xyz() )
f.close()
--------------------------------------------------------------------------

    Molecular point group: c1
  Charge       = 0
  Multiplicity = 1
  Basis Set: 6-31G*
  Basis Set:
  @DF-RHF Final Energy:  -344.57629213713238
    Total Energy =                       -344.5762921371324410
    Molecular point group: c1
  Basis Set: 6-31G*
  Basis Set:
  Basis Set: 6-31G*
  Basis Set:
  @DF-RHF Final Energy:  -344.57559672181577
    Total Energy =                       -344.5755967218156002
  Basis Set: 6-31G*
  Basis Set:
  Basis Set: 6-31G*
  Basis Set:
  @DF-RHF Final Energy:  -344.57871541344252
    Total Energy =                       -344.5787154134426373
  Basis Set: 6-31G*
  Basis Set:
  Basis Set: 6-31G*
  Basis Set:
  @DF-RHF Final Energy:  -344.57941338203796
    Total Energy =                       -344.5794133820380694
  Basis Set: 6-31G*
  Basis Set:
  Basis Set: 6-31G*
  Basis Set:
  @DF-RHF Final Energy:  -344.57982646098134
    Total Energy =                       -344.5798264609813941
  Basis Set: 6-31G*
  Basis Set:
  Basis Set: 6-31G*
  Basis Set:
  @DF-RHF Final Energy:  -344.57984727264289
    Total Energy =                       -344.5798472726429509
  Basis Set: 6-31G*
  Basis Set:
  Basis Set: 6-31G*
  Basis Set:
  @DF-RHF Final Energy:  -344.57985095983588
    Total Energy =                       -344.5798509598357100
  Basis Set: 6-31G*
  Basis Set:
  Charge       = 0
  Multiplicity = 1
  Basis Set: 6-31G*
  Basis Set:

    Orbital Energies (a.u.)
    -----------------------

    Doubly Occupied:

       1A    -20.579500     2A    -11.292425     3A    -11.278671
       4A    -11.233120     5A    -11.231547     6A    -11.224369
       7A    -11.220703     8A    -11.219838     9A     -1.408062
      10A     -1.146002    11A     -1.020283    12A     -1.013086
      13A     -0.939553    14A     -0.831438    15A     -0.804885
      16A     -0.718900    17A     -0.663997    18A     -0.661584
      19A     -0.649551    20A     -0.615225    21A     -0.589168
      22A     -0.580204    23A     -0.525024    24A     -0.514731
      25A     -0.507886    26A     -0.479408    27A     -0.452446
      28A     -0.334452    29A     -0.307586

  @DF-RHF Final Energy:  -344.57985141772389

   => Energetics <=

    Nuclear Repulsion Energy =            347.7716384030874792
    One-Electron Energy =               -1156.6156937226239734
    Two-Electron Energy =                 464.2642039018126070
    DFT Exchange-Correlation Energy =       0.0000000000000000
    Empirical Dispersion Energy =           0.0000000000000000
    PCM Polarization Energy =               0.0000000000000000
    EFP Energy =                            0.0000000000000000
    Total Energy =                       -344.5798514177238303
    Molecular point group: c1
  Basis Set: 6-31G*
  Basis Set:

  -Total Gradient:
     Atom            X                  Y                   Z
    ------   -----------------  -----------------  -----------------
       1       -0.000003696969    -0.000009822480    -0.000000493592
       2        0.000022882190     0.000074216565     0.000000005938
       3        0.000031519211    -0.000039727015     0.000021404290
       4       -0.000056981807    -0.000015661840    -0.000043170543
       5       -0.000004146108     0.000011061857    -0.000007891501
       6        0.000030480100    -0.000027340441    -0.000006439349
       7        0.000000992228    -0.000001899911    -0.000000306303
       8        0.000057259307    -0.000042294765     0.000024172677
       9        0.000001768276     0.000001406175     0.000003697595
      10        0.000680143685    -0.002023599364    -0.001212027994
      11        0.000008610409    -0.000012229778     0.000000549129
      12       -0.001596755954     0.003844800223     0.001912689367
      13        0.002158283287    -0.004370254965    -0.001088545892
      14       -0.001335413200     0.002631233319     0.000416772334
      15        0.000013699538    -0.000002410685    -0.000015199844
      16       -0.000008644193    -0.000017476895    -0.000005216317

  **** Optimization is complete! (in 8 steps) ****
    Final optimized geometry and variables:
    Molecular point group: c1

    Geometry (in Angstrom), charge = 0, multiplicity = 1:

    H           -2.727643638516    -0.060860718812    -1.942298794837
    C           -1.876130351143    -0.065468851395    -1.286412919088
    C           -1.619607334637    -1.162754746782    -0.474663135712
    C           -1.024384846152     1.021798776964    -1.236474514404
    H           -2.274424053944    -2.015623127759    -0.501220694311
    C           -0.523743803094    -1.175354882301     0.365460676150
    H           -1.214615304812     1.883284755690    -1.851822750492
    C            0.076422502229     1.025599627512    -0.390350311674
    H           -0.310909101449    -2.018945360882     0.995396896856
    C            0.331540542277    -0.080235927340     0.406706950676
    H            0.713867320119     1.889012443409    -0.347167087779
    O            1.363910032905    -0.149421429480     1.277501345083
    C            2.575938131162     0.496208757878     0.986777299740
    H            2.675687998914     0.705070586025    -0.070704662963
    H            3.376366811912    -0.155276310758     1.308534768673
    H            2.643080227320     1.432822166596     1.530108399787

  Mulliken Charges: (a.u.)
   Center  Symbol    Alpha    Beta     Spin     Total
       1     H     0.40098  0.40098  0.00000  0.19803
       2     C     3.11097  3.11097  0.00000 -0.22195
       3     C     3.09290  3.09290  0.00000 -0.18581
       4     C     3.09225  3.09225  0.00000 -0.18450
       5     H     0.39873  0.39873  0.00000  0.20254
       6     C     3.12494  3.12494  0.00000 -0.24988
       7     H     0.39937  0.39937  0.00000  0.20125
       8     C     3.13760  3.13760  0.00000 -0.27519
       9     H     0.39318  0.39318  0.00000  0.21365
      10     C     2.78716  2.78716  0.00000  0.42568
      11     H     0.39751  0.39751  0.00000  0.20498
      12     O     4.33000  4.33000  0.00000 -0.66001
      13     C     3.08765  3.08765  0.00000 -0.17529
      14     H     0.41943  0.41943  0.00000  0.16113
      15     H     0.40878  0.40878  0.00000  0.18243
      16     H     0.41854  0.41854  0.00000  0.16291

   Total alpha = 29.00000, Total beta = 29.00000, Total charge = -0.00000
