  ==> Input File <==

--------------------------------------------------------------------------
set {
	reference rhf
	basis 6-31G*
}

set_num_threads( 1 )
memory 2 gb

molecule MOL {
0 1

H	 -2.631529	 -0.070682	 2.297065
C	 -2.964616	 -0.338855	 1.286739
C	 -2.688713	 0.698637	 0.228392
O	 -3.499543	 -1.381658	 1.091378
C	 -1.220012	 1.144545	 0.209990
H	 -2.995898	 0.298732	 -0.730995
H	 -3.320980	 1.557579	 0.450004
C	 -0.252658	 0.041456	 -0.226725
H	 -1.126582	 1.992911	 -0.461450
H	 -0.940469	 1.508173	 1.197607
C	 1.180775	 0.282413	 0.250794
H	 -0.266029	 -0.034465	 -1.312038
H	 -0.597733	 -0.921000	 0.146291
C	 2.148627	 -0.814315	 -0.201312
H	 1.516199	 1.249228	 -0.115937
H	 1.192670	 0.346017	 1.338083
C	 3.580890	 -0.659131	 0.322722
H	 2.166869	 -0.852443	 -1.289387
H	 1.762857	 -1.776509	 0.128956
C	 4.324889	 0.564933	 -0.213704
H	 4.142010	 -1.551473	 0.056605
H	 3.564836	 -0.624694	 1.410140
H	 4.342616	 0.565491	 -1.300421
H	 3.866655	 1.493402	 0.110242
H	 5.353900	 0.572371	 0.132816

	symmetry c1
}
set optking {
	frozen_dihedral = ("
		6 3 5 8,
		6 3 2 4,
		12 8 11 14,
		8 11 14 18,
		20 17 14 18
	")
}

ee = energy('scf')
oeprop('DIPOLE', 'QUADRUPOLE', 'MULLIKEN_CHARGES')
f=open( 'psi4out.xyz', 'w' )
f.write( "25  " )
f.write( str(ee) + "\n" )
f.write( MOL.save_string_xyz() )
f.close()
--------------------------------------------------------------------------

    Molecular point group: c1

    Geometry (in Angstrom), charge = 0, multiplicity = 1:

       Center              X                  Y                   Z               Mass
    ------------   -----------------  -----------------  -----------------  -----------------
           H         -2.705601014407    -0.013850149489     1.989440147149     1.007825032070
           C         -3.038688014407    -0.282023149489     0.979114147149    12.000000000000
           C         -2.762785014407     0.755468850511    -0.079232852851    12.000000000000
           O         -3.573615014407    -1.324826149489     0.783753147149    15.994914619560
           C         -1.294084014407     1.201376850511    -0.097634852851    12.000000000000
           H         -3.069970014407     0.355563850511    -1.038619852851     1.007825032070
           H         -3.395052014407     1.614410850511     0.142379147149     1.007825032070
           C         -0.326730014407     0.098287850511    -0.534349852851    12.000000000000
           H         -1.200654014407     2.049742850511    -0.769074852851     1.007825032070
           H         -1.014541014407     1.565004850511     0.889982147149     1.007825032070
           C          1.106702985593     0.339244850511    -0.056830852851    12.000000000000
           H         -0.340101014407     0.022366850511    -1.619662852851     1.007825032070
           H         -0.671805014407    -0.864168149489    -0.161333852851     1.007825032070
           C          2.074554985593    -0.757483149489    -0.508936852851    12.000000000000
           H          1.442126985593     1.306059850511    -0.423561852851     1.007825032070
           H          1.118597985593     0.402848850511     1.030458147149     1.007825032070
           C          3.506817985593    -0.602299149489     0.015097147149    12.000000000000
           H          2.092796985593    -0.795611149489    -1.597011852851     1.007825032070
           H          1.688784985593    -1.719677149489    -0.178668852851     1.007825032070
           C          4.250816985593     0.621764850511    -0.521328852851    12.000000000000
           H          4.067937985593    -1.494641149489    -0.251019852851     1.007825032070
           H          3.490763985593    -0.567862149489     1.102515147149     1.007825032070
           H          4.268543985593     0.622322850511    -1.608045852851     1.007825032070
           H          3.792582985593     1.550233850511    -0.197382852851     1.007825032070
           H          5.279827985593     0.629202850511    -0.174808852851     1.007825032070

  Charge       = 0
  Multiplicity = 1
  Basis Set: 6-31G*
  Basis Set:

    Orbital Energies (a.u.)
    -----------------------

    Doubly Occupied:

       1A    -20.562671     2A    -11.326525     3A    -11.235052
       4A    -11.234418     5A    -11.223167     6A    -11.219838
       7A    -11.217794     8A    -11.216667     9A    -11.210573
      10A     -1.402620    11A     -1.103983    12A     -1.069545
      13A     -1.013146    14A     -0.942433    15A     -0.875521
      16A     -0.819996    17A     -0.788859    18A     -0.780854
      19A     -0.664450    20A     -0.661490    21A     -0.634795
      22A     -0.624457    23A     -0.606171    24A     -0.589974
      25A     -0.574302    26A     -0.553608    27A     -0.534119
      28A     -0.524617    29A     -0.508564    30A     -0.496710
      31A     -0.488906    32A     -0.478910    33A     -0.464600
      34A     -0.458362    35A     -0.440910    36A     -0.410106

  @DF-RHF Final Energy:  -387.12033740387881

   => Energetics <=

    Nuclear Repulsion Energy =            440.7367770672863116
    One-Electron Energy =               -1397.7968397575700692
    Two-Electron Energy =                 569.9397252864060874
    DFT Exchange-Correlation Energy =       0.0000000000000000
    Empirical Dispersion Energy =           0.0000000000000000
    PCM Polarization Energy =               0.0000000000000000
    EFP Energy =                            0.0000000000000000
    Total Energy =                       -387.1203374038776701

  Mulliken Charges: (a.u.)
   Center  Symbol    Alpha    Beta     Spin     Total
       1     H     0.43251  0.43251  0.00000  0.13499
       2     C     2.83033  2.83033  0.00000  0.33935
       3     C     3.20801  3.20801  0.00000 -0.41602
       4     O     4.23810  4.23810  0.00000 -0.47620
       5     C     3.16720  3.16720  0.00000 -0.33439
       6     H     0.39976  0.39976  0.00000  0.20048
       7     H     0.40712  0.40712  0.00000  0.18575
       8     C     3.15726  3.15726  0.00000 -0.31452
       9     H     0.41178  0.41178  0.00000  0.17645
      10     H     0.41934  0.41934  0.00000  0.16132
      11     C     3.15496  3.15496  0.00000 -0.30991
      12     H     0.41757  0.41757  0.00000  0.16487
      13     H     0.41595  0.41595  0.00000  0.16811
      14     C     3.15338  3.15338  0.00000 -0.30677
      15     H     0.42081  0.42081  0.00000  0.15838
      16     H     0.42391  0.42391  0.00000  0.15218
      17     C     3.15275  3.15275  0.00000 -0.30550
      18     H     0.42339  0.42339  0.00000  0.15322
      19     H     0.42006  0.42006  0.00000  0.15989
      20     C     3.24129  3.24129  0.00000 -0.48257
      21     H     0.41995  0.41995  0.00000  0.16009
      22     H     0.42315  0.42315  0.00000  0.15369
      23     H     0.42203  0.42203  0.00000  0.15593
      24     H     0.42072  0.42072  0.00000  0.15857
      25     H     0.41868  0.41868  0.00000  0.16264

   Total alpha = 36.00000, Total beta = 36.00000, Total charge = -0.00000
