  ==> Input File <==

--------------------------------------------------------------------------
set {
	reference rhf
	basis 6-31G*
}

set_num_threads( 4 )
memory 2 gb

molecule MOL {
0 1

O	 3.225979	 0.970355	 -0.599647
C	 2.701189	 0.057885	 -0.047330
C	 1.245376	 -0.013843	 0.345420
O	 3.347903	 -1.046386	 0.304773
C	 0.455112	 1.231400	 -0.050772
H	 0.838542	 -0.913825	 -0.103701
H	 1.208210	 -0.175333	 1.419774
C	 -0.998893	 1.219485	 0.433193
H	 0.482531	 1.345121	 -1.130325
H	 0.957290	 2.103070	 0.354729
C	 -1.883438	 0.145884	 -0.207175
H	 -1.431207	 2.195402	 0.224832
H	 -1.019646	 1.105716	 1.516076
C	 -1.076464	 -0.977880	 -0.860587
H	 -2.539103	 -0.277164	 0.552399
H	 -2.532677	 0.593242	 -0.956396
C	 -1.949976	 -2.053772	 -1.508326
H	 -0.433225	 -1.440065	 -0.113684
H	 -0.412834	 -0.554237	 -1.612797
C	 -1.136486	 -3.174251	 -2.155211
H	 -2.614452	 -2.477463	 -0.758260
H	 -2.590562	 -1.594393	 -2.258260
H	 -1.783249	 -3.920953	 -2.605476
H	 -0.510541	 -3.677015	 -1.423353
H	 -0.486062	 -2.786956	 -2.934459
C	 4.728119	 -1.109107	 -0.004993
H	 4.882018	 -1.033965	 -1.071845
H	 5.068212	 -2.067527	 0.355250
H	 5.265056	 -0.311663	 0.488280

	symmetry c1
}
set optking {
	frozen_dihedral = ("
		15 11 8 5
	")
}

ee = optimize('scf')
oeprop('DIPOLE', 'QUADRUPOLE', 'MULLIKEN_CHARGES')
f=open( 'psi4out.xyz', 'w' )
f.write( "29  " )
f.write( str(ee) + "\n" )
f.write( MOL.save_string_xyz() )
f.close()
--------------------------------------------------------------------------

    Molecular point group: c1
  Charge       = 0
  Multiplicity = 1
  Basis Set: 6-31G*
  Basis Set:
  @DF-RHF Final Energy:  -501.00646461635438
    Total Energy =                       -501.0064646163543784
    Molecular point group: c1
  Basis Set: 6-31G*
  Basis Set:
  Basis Set: 6-31G*
  Basis Set:
  @DF-RHF Final Energy:  -501.02618483588560
    Total Energy =                       -501.0261848358863972
  Basis Set: 6-31G*
  Basis Set:
  Basis Set: 6-31G*
  Basis Set:
  @DF-RHF Final Energy:  -501.03089909360074
    Total Energy =                       -501.0308990935994871
  Basis Set: 6-31G*
  Basis Set:
  Basis Set: 6-31G*
  Basis Set:
  @DF-RHF Final Energy:  -501.02948763219524
    Total Energy =                       -501.0294876321958100
  Basis Set: 6-31G*
  Basis Set:
  @DF-RHF Final Energy:  -501.03250413374178
    Total Energy =                       -501.0325041337414405
  Basis Set: 6-31G*
  Basis Set:
  @DF-RHF Final Energy:  -501.03279567298421
    Total Energy =                       -501.0327956729843208
  Basis Set: 6-31G*
  Basis Set:
  Basis Set: 6-31G*
  Basis Set:
  @DF-RHF Final Energy:  -501.03282275938011
    Total Energy =                       -501.0328227593799966
  Basis Set: 6-31G*
  Basis Set:
  Basis Set: 6-31G*
  Basis Set:
  @DF-RHF Final Energy:  -501.03282679544429
    Total Energy =                       -501.0328267954444073
  Basis Set: 6-31G*
  Basis Set:
  Charge       = 0
  Multiplicity = 1
  Basis Set: 6-31G*
  Basis Set:

    Orbital Energies (a.u.)
    -----------------------

    Doubly Occupied:

       1A    -20.603080     2A    -20.544868     3A    -11.371525
       4A    -11.280452     5A    -11.233563     6A    -11.219101
       7A    -11.218407     8A    -11.216560     9A    -11.216259
      10A    -11.215184    11A    -11.209438    12A     -1.468720
      13A     -1.362164    14A     -1.095008    15A     -1.065062
      16A     -1.017277    17A     -0.975771    18A     -0.931532
      19A     -0.865322    20A     -0.808624    21A     -0.777049
      22A     -0.762588    23A     -0.698408    24A     -0.682308
      25A     -0.671893    26A     -0.649757    27A     -0.630789
      28A     -0.604736    29A     -0.592892    30A     -0.580879
      31A     -0.564299    32A     -0.553521    33A     -0.538626
      34A     -0.525497    35A     -0.519967    36A     -0.506831
      37A     -0.492913    38A     -0.483390    39A     -0.472712
      40A     -0.457376    41A     -0.455919    42A     -0.450861
      43A     -0.439392    44A     -0.434247

  @DF-RHF Final Energy:  -501.03282718409048

   => Energetics <=

    Nuclear Repulsion Energy =            628.5835674365010846
    One-Electron Energy =               -1928.3032517255107905
    Two-Electron Energy =                 798.6868571049187722
    DFT Exchange-Correlation Energy =       0.0000000000000000
    Empirical Dispersion Energy =           0.0000000000000000
    PCM Polarization Energy =               0.0000000000000000
    EFP Energy =                            0.0000000000000000
    Total Energy =                       -501.0328271840910475
    Molecular point group: c1
  Basis Set: 6-31G*
  Basis Set:

  -Total Gradient:
     Atom            X                  Y                   Z
    ------   -----------------  -----------------  -----------------
       1       -0.000013140429     0.000004058132     0.000013062067
       2        0.000012110191    -0.000001682686    -0.000024595135
       3       -0.000007000529    -0.000014158720    -0.000033945457
       4       -0.000000537260    -0.000014577205     0.000004357744
       5        0.000922866129    -0.002308180057     0.002333183410
       6       -0.000003814906    -0.000002179494     0.000021149052
       7       -0.000002397471     0.000014172211     0.000007292552
       8       -0.000711408987     0.002725259522    -0.003352810319
       9        0.000004219343     0.000021881407     0.000027122366
      10        0.000014784802     0.000009769037     0.000006533392
      11       -0.003201381003     0.002821769930     0.000392567746
      12        0.000006304534     0.000004037238     0.000003742644
      13       -0.000000459390     0.000005718400    -0.000004428788
      14        0.000008255736     0.000011824774    -0.000031356441
      15        0.002989010462    -0.003244557416     0.000600059930
      16        0.000003031741    -0.000002778954     0.000008946255
      17        0.000000764075    -0.000008008453    -0.000006250925
      18       -0.000006488035    -0.000001362646     0.000002644061
      19       -0.000012312258    -0.000023242444     0.000018000623
      20        0.000004057018     0.000003209308    -0.000004056919
      21        0.000004108666    -0.000005060011     0.000009109160
      22       -0.000001431373    -0.000001502105     0.000008829963
      23       -0.000002261422     0.000000718155    -0.000002392591
      24       -0.000003423253     0.000000288092    -0.000000462410
      25        0.000004820010    -0.000001994034     0.000000946127
      26       -0.000009401614     0.000006053580     0.000003181155
      27       -0.000001858362     0.000000364301     0.000000044497
      28       -0.000001389171    -0.000000230176    -0.000000117089
      29        0.000004372743     0.000000390311    -0.000000356674

  **** Optimization is complete! (in 9 steps) ****
    Final optimized geometry and variables:
    Molecular point group: c1

    Geometry (in Angstrom), charge = 0, multiplicity = 1:

    O            2.483167175918     1.447485006632    -0.311521504588
    C            2.074200981138     0.621846599391     0.439676814496
    C            0.641870565663     0.475892940173     0.894157759300
    O            2.848718382119    -0.304002694834     0.991859648606
    C           -0.289540906002     1.515995505798     0.274348347559
    H            0.339074352584    -0.539934435756     0.672699868951
    H            0.639742466972     0.555373936002     1.978188872659
    C           -1.739008555958     1.459114443904     0.787057239688
    H           -0.254460764494     1.442430913209    -0.806785530462
    H            0.111551706486     2.496084802636     0.509525012933
    C           -2.724540373178     0.430806000463     0.164441981656
    H           -2.173048398363     2.445381216913     0.657594601246
    H           -1.702205188129     1.303062896108     1.862989700261
    C           -2.144968140061    -0.764703794037    -0.602675940123
    H           -3.333206264823     0.018892419860     0.964933697177
    H           -3.401816134681     0.956893606523    -0.502547676162
    C           -3.240588130969    -1.617398743139    -1.248090539761
    H           -1.568821014012    -1.395211490469     0.069690188595
    H           -1.461342742206    -0.428861232690    -1.377741271626
    C           -2.689353260334    -2.830951959363    -1.995892128770
    H           -3.936437397360    -1.951911510821    -0.481530012983
    H           -3.817078645670    -1.001923946445    -1.935233799716
    H           -3.488569318985    -3.412236127492    -2.445274189525
    H           -2.139100403976    -3.487438703606    -1.327611984157
    H           -2.013635220760    -2.528257907609    -2.790875994760
    C            4.222777472054    -0.278946769585     0.651178013911
    H            4.353216895153    -0.416023833434    -0.412642202630
    H            4.675819895825    -1.095425127967     1.191665819644
    H            4.670527398325     0.659274271922     0.945838091623

  Mulliken Charges: (a.u.)
   Center  Symbol    Alpha    Beta     Spin     Total
       1     O     4.28618  4.28618  0.00000 -0.57235
       2     C     2.60562  2.60562  0.00000  0.78876
       3     C     3.20927  3.20927  0.00000 -0.41854
       4     O     4.30749  4.30749  0.00000 -0.61498
       5     C     3.15779  3.15779  0.00000 -0.31559
       6     H     0.39684  0.39684  0.00000  0.20632
       7     H     0.40140  0.40140  0.00000  0.19720
       8     C     3.16078  3.16078  0.00000 -0.32155
       9     H     0.41020  0.41020  0.00000  0.17961
      10     H     0.40945  0.40945  0.00000  0.18111
      11     C     3.15457  3.15457  0.00000 -0.30914
      12     H     0.41562  0.41562  0.00000  0.16876
      13     H     0.42313  0.42313  0.00000  0.15373
      14     C     3.15670  3.15670  0.00000 -0.31341
      15     H     0.42088  0.42088  0.00000  0.15825
      16     H     0.42054  0.42054  0.00000  0.15893
      17     C     3.15100  3.15100  0.00000 -0.30199
      18     H     0.42483  0.42483  0.00000  0.15034
      19     H     0.42118  0.42118  0.00000  0.15764
      20     C     3.23943  3.23943  0.00000 -0.47886
      21     H     0.42310  0.42310  0.00000  0.15379
      22     H     0.42234  0.42234  0.00000  0.15532
      23     H     0.41893  0.41893  0.00000  0.16215
      24     H     0.42222  0.42222  0.00000  0.15555
      25     H     0.42128  0.42128  0.00000  0.15744
      26     C     3.09234  3.09234  0.00000 -0.18468
      27     H     0.40913  0.40913  0.00000  0.18174
      28     H     0.40858  0.40858  0.00000  0.18284
      29     H     0.40919  0.40919  0.00000  0.18162

   Total alpha = 44.00000, Total beta = 44.00000, Total charge =  0.00000
