  ==> Input File <==

--------------------------------------------------------------------------
set {
	reference rhf
	basis 6-31G*
}

set_num_threads( 1 )
memory 2 gb

molecule MOL {
0 1

O	 3.780578	 -1.625394	 2.397051
C	 2.997309	 -1.329956	 1.553092
C	 1.502655	 -1.225299	 1.737068
O	 3.347903	 -1.046386	 0.304773
C	 1.050954	 -1.531093	 3.163452
H	 1.212445	 -0.228003	 1.423427
H	 1.041228	 -1.906066	 1.026197
C	 -0.471086	 -1.531895	 3.342026
H	 1.500721	 -0.813966	 3.843568
H	 1.442659	 -2.501188	 3.449641
C	 -1.143925	 -0.169479	 3.151709
H	 -0.692414	 -1.891629	 4.344188
H	 -0.916010	 -2.253043	 2.657922
C	 -2.644696	 -0.200539	 3.447889
H	 -0.664183	 0.560338	 3.802118
H	 -0.994225	 0.183410	 2.133852
C	 -3.328555	 1.154313	 3.255947
H	 -2.802699	 -0.540257	 4.470073
H	 -3.123375	 -0.937844	 2.805280
C	 -4.826324	 1.115590	 3.557428
H	 -2.850789	 1.892494	 3.896628
H	 -3.175429	 1.493507	 2.233558
H	 -5.282510	 2.089993	 3.412375
H	 -5.011823	 0.813219	 4.584247
H	 -5.338762	 0.410690	 2.908739
C	 4.728119	 -1.109107	 -0.004993
H	 4.882018	 -1.033965	 -1.071845
H	 5.068212	 -2.067527	 0.355250
H	 5.265056	 -0.311663	 0.488280

	symmetry c1
}
set optking {
	frozen_dihedral = ("
		21 17 14 11,
		17 14 11 15,
		15 11 8 5,
		6 3 5 9,
		11 8 5 9,
		1 2 4 26,
		6 3 2 1
	")
}

ee = energy('scf')
oeprop('DIPOLE', 'QUADRUPOLE', 'MULLIKEN_CHARGES')
f=open( 'psi4out.xyz', 'w' )
f.write( "29  " )
f.write( str(ee) + "\n" )
f.write( MOL.save_string_xyz() )
f.close()
--------------------------------------------------------------------------

    Molecular point group: c1

    Geometry (in Angstrom), charge = 0, multiplicity = 1:

       Center              X                  Y                   Z               Mass
    ------------   -----------------  -----------------  -----------------  -----------------
           O          3.288129066898    -0.943925526768     0.064876848236    15.994914619560
           C          2.504860066898    -0.648487526768    -0.779082151764    12.000000000000
           C          1.010206066898    -0.543830526768    -0.595106151764    12.000000000000
           O          2.855454066898    -0.364917526768    -2.027401151764    15.994914619560
           C          0.558505066898    -0.849624526768     0.831277848236    12.000000000000
           H          0.719996066898     0.453465473232    -0.908747151764     1.007825032070
           H          0.548779066898    -1.224597526768    -1.305977151764     1.007825032070
           C         -0.963534933102    -0.850426526768     1.009851848236    12.000000000000
           H          1.008272066898    -0.132497526768     1.511393848236     1.007825032070
           H          0.950210066898    -1.819719526768     1.117466848236     1.007825032070
           C         -1.636373933102     0.511989473232     0.819534848236    12.000000000000
           H         -1.184862933102    -1.210160526768     2.012013848236     1.007825032070
           H         -1.408458933102    -1.571574526768     0.325747848236     1.007825032070
           C         -3.137144933102     0.480929473232     1.115714848236    12.000000000000
           H         -1.156631933102     1.241806473232     1.469943848236     1.007825032070
           H         -1.486673933102     0.864878473232    -0.198322151764     1.007825032070
           C         -3.821003933102     1.835781473232     0.923772848236    12.000000000000
           H         -3.295147933102     0.141211473232     2.137898848236     1.007825032070
           H         -3.615823933102    -0.256375526768     0.473105848236     1.007825032070
           C         -5.318772933102     1.797058473232     1.225253848236    12.000000000000
           H         -3.343237933102     2.573962473232     1.564453848236     1.007825032070
           H         -3.667877933102     2.174975473232    -0.098616151764     1.007825032070
           H         -5.774958933102     2.771461473232     1.080200848236     1.007825032070
           H         -5.504271933102     1.494687473232     2.252072848236     1.007825032070
           H         -5.831210933102     1.092158473232     0.576564848236     1.007825032070
           C          4.235670066898    -0.427638526768    -2.337167151764    12.000000000000
           H          4.389569066898    -0.352496526768    -3.404019151764     1.007825032070
           H          4.575763066898    -1.386058526768    -1.976924151764     1.007825032070
           H          4.772607066898     0.369805473232    -1.843894151764     1.007825032070

  Charge       = 0
  Multiplicity = 1
  Basis Set: 6-31G*
  Basis Set:

    Orbital Energies (a.u.)
    -----------------------

    Doubly Occupied:

       1A    -20.602443     2A    -20.545226     3A    -11.372541
       4A    -11.280268     5A    -11.234871     6A    -11.219182
       7A    -11.217679     8A    -11.216002     9A    -11.215854
      10A    -11.214472    11A    -11.209047    12A     -1.469050
      13A     -1.362430    14A     -1.098120    15A     -1.066842
      16A     -1.019406    17A     -0.976779    18A     -0.928363
      19A     -0.861596    20A     -0.799235    21A     -0.790459
      22A     -0.762935    23A     -0.701055    24A     -0.683478
      25A     -0.672605    26A     -0.651318    27A     -0.629099
      28A     -0.606431    29A     -0.595200    30A     -0.581897
      31A     -0.567401    32A     -0.548993    33A     -0.532166
      34A     -0.528440    35A     -0.512926    36A     -0.511495
      37A     -0.496425    38A     -0.477816    39A     -0.470200
      40A     -0.462382    41A     -0.458820    42A     -0.455524
      43A     -0.441029    44A     -0.435775

  @DF-RHF Final Energy:  -501.04225911320043

   => Energetics <=

    Nuclear Repulsion Energy =            610.3021799845224677
    One-Electron Energy =               -1891.7224752353090480
    Two-Electron Energy =                 780.3780361375872872
    DFT Exchange-Correlation Energy =       0.0000000000000000
    Empirical Dispersion Energy =           0.0000000000000000
    PCM Polarization Energy =               0.0000000000000000
    EFP Energy =                            0.0000000000000000
    Total Energy =                       -501.0422591131994068

  Mulliken Charges: (a.u.)
   Center  Symbol    Alpha    Beta     Spin     Total
       1     O     4.28593  4.28593  0.00000 -0.57186
       2     C     2.60470  2.60470  0.00000  0.79061
       3     C     3.20953  3.20953  0.00000 -0.41906
       4     O     4.30843  4.30843  0.00000 -0.61687
       5     C     3.15387  3.15387  0.00000 -0.30775
       6     H     0.39862  0.39862  0.00000  0.20276
       7     H     0.40125  0.40125  0.00000  0.19749
       8     C     3.15663  3.15663  0.00000 -0.31326
       9     H     0.41305  0.41305  0.00000  0.17391
      10     H     0.40876  0.40876  0.00000  0.18248
      11     C     3.15508  3.15508  0.00000 -0.31017
      12     H     0.41821  0.41821  0.00000  0.16359
      13     H     0.42385  0.42385  0.00000  0.15231
      14     C     3.15030  3.15030  0.00000 -0.30060
      15     H     0.42260  0.42260  0.00000  0.15480
      16     H     0.42358  0.42358  0.00000  0.15283
      17     C     3.15147  3.15147  0.00000 -0.30293
      18     H     0.42332  0.42332  0.00000  0.15336
      19     H     0.42397  0.42397  0.00000  0.15206
      20     C     3.23935  3.23935  0.00000 -0.47870
      21     H     0.42280  0.42280  0.00000  0.15441
      22     H     0.42342  0.42342  0.00000  0.15316
      23     H     0.41922  0.41922  0.00000  0.16155
      24     H     0.42154  0.42154  0.00000  0.15691
      25     H     0.42183  0.42183  0.00000  0.15635
      26     C     3.09331  3.09331  0.00000 -0.18662
      27     H     0.40768  0.40768  0.00000  0.18464
      28     H     0.40665  0.40665  0.00000  0.18670
      29     H     0.41105  0.41105  0.00000  0.17791

   Total alpha = 44.00000, Total beta = 44.00000, Total charge =  0.00000
