  ==> Input File <==

--------------------------------------------------------------------------
set {
	reference rhf
	basis 6-31G*
}

set_num_threads( 4 )
memory 2 gb

molecule MOL {
0 1

H	 -2.708833	 2.174416	 -1.434537
C	 -2.931382	 1.100222	 -1.448764
C	 -1.915821	 0.248473	 -2.166935
O	 -3.913669	 0.686821	 -0.923443
C	 -0.484381	 0.494762	 -1.670372
H	 -2.202386	 -0.791042	 -2.057395
H	 -1.976507	 0.501872	 -3.224650
C	 -0.252658	 0.041456	 -0.226725
H	 0.202681	 -0.029626	 -2.327827
H	 -0.246013	 1.552997	 -1.765641
C	 1.180775	 0.282413	 0.250794
H	 -0.490075	 -1.017117	 -0.143642
H	 -0.943290	 0.557537	 0.437524
C	 2.148627	 -0.814315	 -0.201312
H	 1.516199	 1.249228	 -0.115937
H	 1.192670	 0.346017	 1.338083
C	 3.580890	 -0.659131	 0.322722
H	 2.166869	 -0.852443	 -1.289387
H	 1.762857	 -1.776509	 0.128956
C	 4.324889	 0.564933	 -0.213704
H	 4.142010	 -1.551473	 0.056605
H	 3.564836	 -0.624694	 1.410140
H	 4.342616	 0.565491	 -1.300421
H	 3.866655	 1.493402	 0.110242
H	 5.353900	 0.572371	 0.132816

	symmetry c1
}
set optking {
	frozen_dihedral = ("
		12 8 11 14
	")
}

ee = optimize('scf')
oeprop('DIPOLE', 'QUADRUPOLE', 'MULLIKEN_CHARGES')
f=open( 'psi4out.xyz', 'w' )
f.write( "25  " )
f.write( str(ee) + "\n" )
f.write( MOL.save_string_xyz() )
f.close()
--------------------------------------------------------------------------

    Molecular point group: c1
  Charge       = 0
  Multiplicity = 1
  Basis Set: 6-31G*
  Basis Set:
  @DF-RHF Final Energy:  -387.11943716000269
    Total Energy =                       -387.1194371600030308
    Molecular point group: c1
  Basis Set: 6-31G*
  Basis Set:
  Basis Set: 6-31G*
  Basis Set:
  @DF-RHF Final Energy:  -387.11936466290024
    Total Energy =                       -387.1193646629006935
  Basis Set: 6-31G*
  Basis Set:
  Basis Set: 6-31G*
  Basis Set:
  @DF-RHF Final Energy:  -387.11708707543920
    Total Energy =                       -387.1170870754392581
  Basis Set: 6-31G*
  Basis Set:
  Basis Set: 6-31G*
  Basis Set:
  @DF-RHF Final Energy:  -387.11962309670048
    Total Energy =                       -387.1196230967010479
  Basis Set: 6-31G*
  Basis Set:
  @DF-RHF Final Energy:  -387.11961970478688
    Total Energy =                       -387.1196197047869418
  @DF-RHF Final Energy:  -387.11959327841959
    Total Energy =                       -387.1195932784191882
  Basis Set: 6-31G*
  Basis Set:
  @DF-RHF Final Energy:  -387.11967870647368
    Total Energy =                       -387.1196787064732234
  Basis Set: 6-31G*
  Basis Set:
  Basis Set: 6-31G*
  Basis Set:
  @DF-RHF Final Energy:  -387.11967109039654
    Total Energy =                       -387.1196710903967642
  Basis Set: 6-31G*
  Basis Set:
  Basis Set: 6-31G*
  Basis Set:
  @DF-RHF Final Energy:  -387.11967812171241
    Total Energy =                       -387.1196781217129228
  Basis Set: 6-31G*
  Basis Set:
  Charge       = 0
  Multiplicity = 1
  Basis Set: 6-31G*
  Basis Set:

    Orbital Energies (a.u.)
    -----------------------

    Doubly Occupied:

       1A    -20.561908     2A    -11.326047     3A    -11.234997
       4A    -11.234411     5A    -11.224210     6A    -11.220113
       7A    -11.219175     8A    -11.218442     9A    -11.211783
      10A     -1.401841    11A     -1.104007    12A     -1.069308
      13A     -1.012866    14A     -0.941373    15A     -0.879719
      16A     -0.822555    17A     -0.789162    18A     -0.778494
      19A     -0.665491    20A     -0.652293    21A     -0.635252
      22A     -0.622665    23A     -0.607949    24A     -0.598771
      25A     -0.576414    26A     -0.551180    27A     -0.531507
      28A     -0.522976    29A     -0.519862    30A     -0.501429
      31A     -0.485012    32A     -0.477984    33A     -0.461154
      34A     -0.454028    35A     -0.447004    36A     -0.409147

  @DF-RHF Final Energy:  -387.11968024740344

   => Energetics <=

    Nuclear Repulsion Energy =            442.3649201241078686
    One-Electron Energy =               -1401.0281389887327350
    Two-Electron Energy =                 571.5435386172216568
    DFT Exchange-Correlation Energy =       0.0000000000000000
    Empirical Dispersion Energy =           0.0000000000000000
    PCM Polarization Energy =               0.0000000000000000
    EFP Energy =                            0.0000000000000000
    Total Energy =                       -387.1196802474032665
    Molecular point group: c1
  Basis Set: 6-31G*
  Basis Set:

  -Total Gradient:
     Atom            X                  Y                   Z
    ------   -----------------  -----------------  -----------------
       1       -0.000007990562     0.000000243786     0.000000394630
       2        0.000003837745    -0.000002657188     0.000011937315
       3        0.000005722280    -0.000007353438    -0.000003851735
       4       -0.000002151447     0.000009105458    -0.000000157562
       5        0.000003749934     0.000001717073    -0.000003081157
       6        0.000001655881     0.000000690275     0.000000552351
       7        0.000009593860    -0.000001509405     0.000000278673
       8       -0.001080635106     0.000041325966     0.003186667448
       9       -0.000001615078    -0.000000308981    -0.000002238576
      10       -0.000002136672     0.000001583755     0.000000191861
      11        0.000653774736     0.001151910939    -0.002457031300
      12        0.000749786634    -0.000328150630    -0.002119910668
      13       -0.000001408557    -0.000001025788    -0.000001417844
      14       -0.000333566159    -0.000870861654     0.001387877131
      15        0.000010266998     0.000012971012     0.000006199273
      16       -0.000003338899    -0.000007015951    -0.000009731879
      17       -0.000003176161     0.000001004290     0.000002564081
      18       -0.000005343977     0.000003970840     0.000000564045
      19        0.000005223174    -0.000006342587    -0.000000300627
      20        0.000000211739    -0.000000279673     0.000000384283
      21       -0.000004989524    -0.000000621750    -0.000000378165
      22        0.000003849916     0.000000778784     0.000001987821
      23        0.000001439824     0.000000568397    -0.000001129508
      24       -0.000002048963     0.000000060321    -0.000000299020
      25       -0.000000711594     0.000000196149    -0.000000070872

  **** Optimization is complete! (in 10 steps) ****
    Final optimized geometry and variables:
    Molecular point group: c1

    Geometry (in Angstrom), charge = 0, multiplicity = 1:

    H           -2.931861757852     1.946076532220    -0.732043793564
    C           -3.139089399766     0.868753789980    -0.748794878659
    C           -2.115226556335     0.034257149640    -1.475587838234
    O           -4.115816635486     0.440663605670    -0.224746170586
    C           -0.685259590542     0.293597866043    -0.980703487830
    H           -2.389464370554    -1.009329153937    -1.372754132731
    H           -2.181670793590     0.294393169266    -2.531265265910
    C           -0.450186529760    -0.163747866209     0.463742392540
    H            0.003400579989    -0.215531413152    -1.647276889670
    H           -0.461045882483     1.355526866683    -1.067010210066
    C            0.991173303569     0.053317462082     0.947874323340
    H           -0.702456150705    -1.219368567254     0.535800591659
    H           -1.134829817842     0.363806308021     1.123059734587
    C            1.965412192526    -1.041173155190     0.498389269330
    H            1.335709728683     1.030314400320     0.619305882160
    H            0.994427600809     0.081945126231     2.035330615270
    C            3.394109904932    -0.875424443791     1.029423219284
    H            1.997129525138    -1.092443729966    -0.588423789054
    H            1.580338527904    -2.000710664873     0.836390893713
    C            4.142883939667     0.336985936197     0.472824211180
    H            3.956904732777    -1.773368537534     0.786788133640
    H            3.369237697980    -0.817943096362     2.115710690143
    H            4.175429280612     0.310550230823    -0.613174515497
    H            3.679217839331     1.272541623216     0.767450012414
    H            5.167080924410     0.355115011134     0.832292374730

  Mulliken Charges: (a.u.)
   Center  Symbol    Alpha    Beta     Spin     Total
       1     H     0.43265  0.43265  0.00000  0.13470
       2     C     2.83096  2.83096  0.00000  0.33807
       3     C     3.20810  3.20810  0.00000 -0.41620
       4     O     4.23780  4.23780  0.00000 -0.47559
       5     C     3.16767  3.16767  0.00000 -0.33533
       6     H     0.39974  0.39974  0.00000  0.20051
       7     H     0.40676  0.40676  0.00000  0.18648
       8     C     3.15707  3.15707  0.00000 -0.31414
       9     H     0.41159  0.41159  0.00000  0.17682
      10     H     0.41986  0.41986  0.00000  0.16029
      11     C     3.15704  3.15704  0.00000 -0.31408
      12     H     0.41780  0.41780  0.00000  0.16441
      13     H     0.41600  0.41600  0.00000  0.16800
      14     C     3.15414  3.15414  0.00000 -0.30827
      15     H     0.42099  0.42099  0.00000  0.15802
      16     H     0.41901  0.41901  0.00000  0.16199
      17     C     3.15276  3.15276  0.00000 -0.30553
      18     H     0.42440  0.42440  0.00000  0.15120
      19     H     0.42062  0.42062  0.00000  0.15875
      20     C     3.24120  3.24120  0.00000 -0.48240
      21     H     0.42019  0.42019  0.00000  0.15961
      22     H     0.42245  0.42245  0.00000  0.15510
      23     H     0.42260  0.42260  0.00000  0.15480
      24     H     0.42026  0.42026  0.00000  0.15947
      25     H     0.41835  0.41835  0.00000  0.16330

   Total alpha = 36.00000, Total beta = 36.00000, Total charge = -0.00000
