  ==> Input File <==

--------------------------------------------------------------------------
set {
	reference rhf
	basis 6-31G*
}

set_num_threads( 1 )
memory 2 gb

molecule MOL {
0 1

H	 -4.080290	 -0.194313	 0.536820
O	 -3.517110	 -0.026191	 -0.205115
C	 -2.306886	 0.532354	 0.237577
C	 -1.177863	 -0.397191	 -0.171080
H	 -2.156308	 1.517575	 -0.201710
H	 -2.315015	 0.655684	 1.319734
C	 0.198102	 0.111031	 0.262842
H	 -1.208843	 -0.518759	 -1.250427
H	 -1.368741	 -1.376554	 0.258909
C	 1.331804	 -0.827780	 -0.158768
H	 0.361943	 1.100838	 -0.156218
H	 0.217265	 0.229072	 1.345532
C	 2.723619	 -0.410569	 0.329459
H	 1.342964	 -0.912588	 -1.244120
H	 1.116806	 -1.824343	 0.220779
C	 3.243875	 0.895854	 -0.272975
H	 3.424222	 -1.207124	 0.091250
H	 2.714788	 -0.329854	 1.414619
H	 3.251977	 0.848779	 -1.358681
H	 2.637085	 1.747371	 0.016682
H	 4.259473	 1.094070	 0.055697

	symmetry c1
}
set optking {
	frozen_dihedral = ("
		2 3 4 8,
		8 4 7 10,
		4 7 10 14,
		16 13 10 14
	")
}

ee = energy('scf')
oeprop('DIPOLE', 'QUADRUPOLE', 'MULLIKEN_CHARGES')
f=open( 'psi4out.xyz', 'w' )
f.write( "21  " )
f.write( str(ee) + "\n" )
f.write( MOL.save_string_xyz() )
f.close()
--------------------------------------------------------------------------

    Molecular point group: c1

    Geometry (in Angstrom), charge = 0, multiplicity = 1:

       Center              X                  Y                   Z               Mass
    ------------   -----------------  -----------------  -----------------  -----------------
           H         -4.081831638567    -0.187083275285     0.531913882549     1.007825032070
           O         -3.518651638567    -0.018961275285    -0.210021117451    15.994914619560
           C         -2.308427638567     0.539583724715     0.232670882549    12.000000000000
           C         -1.179404638567    -0.389961275285    -0.175986117451    12.000000000000
           H         -2.157849638567     1.524804724715    -0.206616117451     1.007825032070
           H         -2.316556638567     0.662913724715     1.314827882549     1.007825032070
           C          0.196560361433     0.118260724715     0.257935882549    12.000000000000
           H         -1.210384638567    -0.511529275285    -1.255333117451     1.007825032070
           H         -1.370282638567    -1.369324275285     0.254002882549     1.007825032070
           C          1.330262361433    -0.820550275285    -0.163674117451    12.000000000000
           H          0.360401361433     1.108067724715    -0.161124117451     1.007825032070
           H          0.215723361433     0.236301724715     1.340625882549     1.007825032070
           C          2.722077361433    -0.403339275285     0.324552882549    12.000000000000
           H          1.341422361433    -0.905358275285    -1.249026117451     1.007825032070
           H          1.115264361433    -1.817113275285     0.215872882549     1.007825032070
           C          3.242333361433     0.903083724715    -0.277881117451    12.000000000000
           H          3.422680361433    -1.199894275285     0.086343882549     1.007825032070
           H          2.713246361433    -0.322624275285     1.409712882549     1.007825032070
           H          3.250435361433     0.856008724715    -1.363587117451     1.007825032070
           H          2.635543361433     1.754600724715     0.011775882549     1.007825032070
           H          4.257931361433     1.101299724715     0.050790882549     1.007825032070

  Charge       = 0
  Multiplicity = 1
  Basis Set: 6-31G*
  Basis Set:

    Orbital Energies (a.u.)
    -----------------------

    Doubly Occupied:

       1A    -20.551217     2A    -11.267636     3A    -11.215146
       4A    -11.214934     5A    -11.213517     6A    -11.208884
       7A    -11.208069     8A     -1.359125     9A     -1.085961
      10A     -1.032756    11A     -0.954089    12A     -0.876124
      13A     -0.809206    14A     -0.778690    15A     -0.700170
      16A     -0.651416    17A     -0.619290    18A     -0.609482
      19A     -0.586452    20A     -0.567860    21A     -0.541196
      22A     -0.524483    23A     -0.501501    24A     -0.494878
      25A     -0.471816    26A     -0.463797    27A     -0.460192
      28A     -0.455365    29A     -0.419102

  @DF-RHF Final Energy:  -310.21036467846324

   => Energetics <=

    Nuclear Repulsion Energy =            312.6221506550936624
    One-Electron Energy =               -1039.9804038152037720
    Two-Electron Energy =                 417.1478884816468167
    DFT Exchange-Correlation Energy =       0.0000000000000000
    Empirical Dispersion Energy =           0.0000000000000000
    PCM Polarization Energy =               0.0000000000000000
    EFP Energy =                            0.0000000000000000
    Total Energy =                       -310.2103646784632360

  Mulliken Charges: (a.u.)
   Center  Symbol    Alpha    Beta     Spin     Total
       1     H     0.27967  0.27967  0.00000  0.44065
       2     O     4.37206  4.37206  0.00000 -0.74413
       3     C     2.99470  2.99470  0.00000  0.01061
       4     C     3.15476  3.15476  0.00000 -0.30952
       5     H     0.42382  0.42382  0.00000  0.15236
       6     H     0.43289  0.43289  0.00000  0.13422
       7     C     3.16310  3.16310  0.00000 -0.32619
       8     H     0.41460  0.41460  0.00000  0.17081
       9     H     0.42172  0.42172  0.00000  0.15656
      10     C     3.15136  3.15136  0.00000 -0.30272
      11     H     0.42103  0.42103  0.00000  0.15793
      12     H     0.42567  0.42567  0.00000  0.14866
      13     C     3.15236  3.15236  0.00000 -0.30472
      14     H     0.42285  0.42285  0.00000  0.15429
      15     H     0.42185  0.42185  0.00000  0.15629
      16     C     3.24117  3.24117  0.00000 -0.48233
      17     H     0.42083  0.42083  0.00000  0.15835
      18     H     0.42393  0.42393  0.00000  0.15213
      19     H     0.42184  0.42184  0.00000  0.15633
      20     H     0.42047  0.42047  0.00000  0.15907
      21     H     0.41932  0.41932  0.00000  0.16137

   Total alpha = 29.00000, Total beta = 29.00000, Total charge =  0.00000
