  ==> Input File <==

--------------------------------------------------------------------------
set {
	reference rhf
	basis 6-31G*
}

set_num_threads( 4 )
memory 2 gb

molecule MOL {
0 1

H	 2.370596	 -0.153586	 -0.859790
O	 1.654024	 -0.625927	 -0.460906
C	 1.135793	 0.118896	 0.612333
C	 0.031547	 1.023609	 0.088541
H	 1.915668	 0.729681	 1.063582
H	 0.754543	 -0.542641	 1.387006
C	 -1.134819	 0.293262	 -0.585751
H	 0.474374	 1.714721	 -0.623187
H	 -0.338529	 1.620940	 0.920081
C	 -1.917817	 -0.639439	 0.339494
H	 -0.758119	 -0.268455	 -1.433105
H	 -1.813832	 1.041889	 -0.986690
H	 -2.777680	 -1.057197	 -0.174994
H	 -1.310268	 -1.471279	 0.680599
H	 -2.283753	 -0.111424	 1.216626

	symmetry c1
}
set optking {
	frozen_dihedral = ("
		1 2 3 4
	")
}

ee = optimize('scf')
oeprop('DIPOLE', 'QUADRUPOLE', 'MULLIKEN_CHARGES')
f=open( 'psi4out.xyz', 'w' )
f.write( "15  " )
f.write( str(ee) + "\n" )
f.write( MOL.save_string_xyz() )
f.close()
--------------------------------------------------------------------------

    Molecular point group: c1
  Charge       = 0
  Multiplicity = 1
  Basis Set: 6-31G*
  Basis Set:
  @DF-RHF Final Energy:  -232.14158779807380
    Total Energy =                       -232.1415877980738287
    Molecular point group: c1
  Basis Set: 6-31G*
  Basis Set:
  Basis Set: 6-31G*
  Basis Set:
  @DF-RHF Final Energy:  -232.14274626267627
    Total Energy =                       -232.1427462626760985
  Basis Set: 6-31G*
  Basis Set:
  Basis Set: 6-31G*
  Basis Set:
  @DF-RHF Final Energy:  -232.14297074211018
    Total Energy =                       -232.1429707421098101
  Basis Set: 6-31G*
  Basis Set:
  Basis Set: 6-31G*
  Basis Set:
  @DF-RHF Final Energy:  -232.14296151636464
    Total Energy =                       -232.1429615163646076
  Basis Set: 6-31G*
  Basis Set:
  Basis Set: 6-31G*
  Basis Set:
  @DF-RHF Final Energy:  -232.14297654201820
    Total Energy =                       -232.1429765420182889
  Basis Set: 6-31G*
  Basis Set:
  Charge       = 0
  Multiplicity = 1
  Basis Set: 6-31G*
  Basis Set:

    Orbital Energies (a.u.)
    -----------------------

    Doubly Occupied:

       1A    -20.553351     2A    -11.267724     3A    -11.214192
       4A    -11.210358     5A    -11.204526     6A     -1.359516
       7A     -1.064342     8A     -0.969401     9A     -0.872466
      10A     -0.783168    11A     -0.690093    12A     -0.639873
      13A     -0.622276    14A     -0.577003    15A     -0.560872
      16A     -0.534627    17A     -0.504891    18A     -0.485097
      19A     -0.468217    20A     -0.453148    21A     -0.425325

  @DF-RHF Final Energy:  -232.14297673499757

   => Energetics <=

    Nuclear Repulsion Energy =            191.4404631299973687
    One-Electron Energy =                -694.2459452537927973
    Two-Electron Energy =                 270.6625053887979107
    DFT Exchange-Correlation Energy =       0.0000000000000000
    Empirical Dispersion Energy =           0.0000000000000000
    PCM Polarization Energy =               0.0000000000000000
    EFP Energy =                            0.0000000000000000
    Total Energy =                       -232.1429767349974895
    Molecular point group: c1
  Basis Set: 6-31G*
  Basis Set:

  -Total Gradient:
     Atom            X                  Y                   Z
    ------   -----------------  -----------------  -----------------
       1        0.001228763013    -0.000786537315     0.001277750310
       2       -0.001872303000     0.000578201154    -0.001478387576
       3        0.001469003209     0.001080013120    -0.000084762961
       4       -0.000800314998    -0.000898762432     0.000258631175
       5       -0.000012982513     0.000016357545     0.000010479983
       6       -0.000011830426     0.000002263185    -0.000000805305
       7        0.000002741417     0.000021341596    -0.000000952592
       8        0.000004699069    -0.000018918947     0.000009263737
       9       -0.000017807870     0.000013228924     0.000002061455
      10        0.000002693380    -0.000009883837     0.000003951646
      11        0.000000974428     0.000004028649    -0.000005988235
      12        0.000006837627     0.000002932636     0.000003673486
      13        0.000003469328    -0.000007057159    -0.000000241855
      14        0.000005253549     0.000001878287     0.000009824060
      15       -0.000009196214     0.000000914595    -0.000004497330

  **** Optimization is complete! (in 6 steps) ****
    Final optimized geometry and variables:
    Molecular point group: c1

    Geometry (in Angstrom), charge = 0, multiplicity = 1:

    H            2.395437331163    -0.213436006128    -0.848409315934
    O            1.680537833763    -0.672559300222    -0.432834789196
    C            1.139885084764     0.120787929420     0.596351665292
    C            0.013699489787     1.023392051914     0.102732081943
    H            1.915622050960     0.721808339937     1.065278275735
    H            0.774282981955    -0.564356664797     1.350519427952
    C           -1.144358618618     0.285142522964    -0.576592529254
    H            0.430464350929     1.744180948074    -0.598792870355
    H           -0.360180192470     1.598276434976     0.949093545597
    C           -1.927609124330    -0.647834179880     0.348520253578
    H           -0.757270541373    -0.280127978931    -1.417527004994
    H           -1.825687089816     1.026380892505    -0.987052362940
    H           -2.777110080708    -1.078775891998    -0.172195865901
    H           -1.316067475921    -1.470193137185     0.704370376896
    H           -2.308986557021    -0.114800374815     1.215865099034

  Mulliken Charges: (a.u.)
   Center  Symbol    Alpha    Beta     Spin     Total
       1     H     0.28108  0.28108  0.00000  0.43784
       2     O     4.36995  4.36995  0.00000 -0.73989
       3     C     3.00274  3.00274  0.00000 -0.00547
       4     C     3.16201  3.16201  0.00000 -0.32401
       5     H     0.42823  0.42823  0.00000  0.14353
       6     H     0.41609  0.41609  0.00000  0.16783
       7     C     3.15247  3.15247  0.00000 -0.30495
       8     H     0.42534  0.42534  0.00000  0.14931
       9     H     0.42534  0.42534  0.00000  0.14933
      10     C     3.24370  3.24370  0.00000 -0.48739
      11     H     0.40993  0.40993  0.00000  0.18015
      12     H     0.42287  0.42287  0.00000  0.15426
      13     H     0.41888  0.41888  0.00000  0.16225
      14     H     0.41659  0.41659  0.00000  0.16681
      15     H     0.42479  0.42479  0.00000  0.15042

   Total alpha = 21.00000, Total beta = 21.00000, Total charge =  0.00000
