                              Psi4 1.0.54 Driver

  ==> Input File <==

--------------------------------------------------------------------------
set {
	reference rhf
	basis cc-pvtz
}

set_num_threads( 4 )
memory 2 gb

molecule MOL {
0 1

H	 -1.013131	 -0.713598	 -0.722379
N	 -0.712187	 0.000026	 -0.093397
C	 0.734067	 -0.000020	 0.038424
H	 -1.150506	 -0.178339	 0.784957
H	 1.140372	 -0.872115	 -0.458226
H	 1.140363	 0.872301	 -0.457869
H	 1.095085	 -0.000244	 1.065614

	symmetry c1
}
set optking {
	frozen_dihedral = ("
		1 2 3 7
	")
}

ee,wfn = optimize('scf', return_wfn=True)
oeprop( wfn, 'DIPOLE', 'QUADRUPOLE', 'MULLIKEN_CHARGES')
f=open( 'psi4out.xyz', 'w' )
f.write( "7  " )
f.write( str(ee) + "\n" )
f.write( MOL.save_string_xyz() )
f.close()
--------------------------------------------------------------------------

    Molecular point group: c1
  Charge       = 0
  Multiplicity = 1
  Basis Set: CC-PVTZ
  Basis Set:
  @DF-RHF Final Energy:   -95.24968912837551
    Total Energy =                        -95.2496891283754934
    Molecular point group: c1
  Basis Set: CC-PVTZ
  Basis Set:
  Basis Set: CC-PVTZ
  Basis Set:
  @DF-RHF Final Energy:   -95.25048892852553
    Total Energy =                        -95.2504889285254990
  Basis Set: CC-PVTZ
  Basis Set:
  Basis Set: CC-PVTZ
  Basis Set:
  @DF-RHF Final Energy:   -95.25063331931219
    Total Energy =                        -95.2506333193121719
  Basis Set: CC-PVTZ
  Basis Set:
  Charge       = 0
  Multiplicity = 1
  Basis Set: CC-PVTZ
  Basis Set:

    Orbital Energies (a.u.)
    -----------------------

    Doubly Occupied:

       1A    -15.526760     2A    -11.235680     3A     -1.169566
       4A     -0.898071     5A     -0.665200     6A     -0.601104
       7A     -0.560417     8A     -0.517022     9A     -0.384544

  @DF-RHF Final Energy:   -95.25063402736495

   => Energetics <=

    Nuclear Repulsion Energy =             42.3036391193930044
    One-Electron Energy =                -211.9918156859872056
    Two-Electron Energy =                  74.4375425392291845
    DFT Exchange-Correlation Energy =       0.0000000000000000
    Empirical Dispersion Energy =           0.0000000000000000
    PCM Polarization Energy =               0.0000000000000000
    EFP Energy =                            0.0000000000000000
    Total Energy =                        -95.2506340273650096
    Molecular point group: c1
  Basis Set: CC-PVTZ
  Basis Set:

  -Total Gradient:
     Atom            X                  Y                   Z
    ------   -----------------  -----------------  -----------------
       1       -0.000046669669    -0.000916931440     0.001119517196
       2        0.000108758871     0.000810000834    -0.001366442120
       3       -0.000065349951     0.001369118510     0.000254043502
       4       -0.000002095061     0.000019603953    -0.000010286239
       5        0.000012432051     0.000025400253     0.000000119868
       6       -0.000007009355     0.000012527474     0.000001500230
       7       -0.000000066885    -0.001319719584     0.000001547561

  **** Optimization is complete! (in 4 steps) ****
    Final optimized geometry and variables:
    Molecular point group: c1

    Geometry (in Angstrom), charge = 0, multiplicity = 1:

    H           -1.041287111427    -0.678226689719    -0.684508305354
    N           -0.718418509706     0.028662409589    -0.061767409012
    C            0.736886562228     0.028103903991     0.041841967644
    H           -1.144242042427    -0.146120601807     0.821232811979
    H            1.185795305182    -0.841868069601    -0.426705566700
    H            1.156315823585     0.909546490296    -0.428481221916
    H            1.051394382428     0.023794942296     1.078475157447

  Mulliken Charges: (a.u.)
   Center  Symbol    Alpha    Beta     Spin     Total
       1     H     0.42814  0.42814  0.00000  0.14372
       2     N     3.68697  3.68697  0.00000 -0.37393
       3     C     3.06925  3.06925  0.00000 -0.13851
       4     H     0.42767  0.42767  0.00000  0.14465
       5     H     0.46568  0.46568  0.00000  0.06864
       6     H     0.46075  0.46075  0.00000  0.07850
       7     H     0.46154  0.46154  0.00000  0.07692

   Total alpha =  9.00000, Total beta =  9.00000, Total charge = -0.00000

*** Psi4 exiting successfully. Buy a developer a beer!
