  ==> Input File <==

--------------------------------------------------------------------------
set {
	reference rhf
	basis 6-31G*
}

set_num_threads( 4 )
memory 2 gb

molecule MOL {
0 1

H	 0.335535	 -1.381928	 1.133814
C	 -0.645966	 -1.083955	 0.779965
N	 -0.528168	 0.128977	 -0.000000
H	 -1.268046	 -0.899837	 1.648385
H	 -1.069744	 -1.926270	 0.226627
C	 0.248044	 -0.037491	 -1.209632
H	 -1.439111	 0.474560	 -0.227560
H	 0.998722	 0.743888	 -1.266824
H	 -0.398417	 0.061950	 -2.074060
H	 0.763621	 -0.999315	 -1.275517

	symmetry c1
}
set optking {
	frozen_dihedral = ("
		2 3 6 8
	")
}

ee = optimize('scf')
oeprop('DIPOLE', 'QUADRUPOLE', 'MULLIKEN_CHARGES')
f=open( 'psi4out.xyz', 'w' )
f.write( "10  " )
f.write( str(ee) + "\n" )
f.write( MOL.save_string_xyz() )
f.close()
--------------------------------------------------------------------------

    Molecular point group: c1
  Charge       = 0
  Multiplicity = 1
  Basis Set: 6-31G*
  Basis Set:
  @DF-RHF Final Energy:  -134.23251391909292
    Total Energy =                       -134.2325139190929235
    Molecular point group: c1
  Basis Set: 6-31G*
  Basis Set:
  Basis Set: 6-31G*
  Basis Set:
  @DF-RHF Final Energy:  -134.23347803505618
    Total Energy =                       -134.2334780350562085
  Basis Set: 6-31G*
  Basis Set:
  Basis Set: 6-31G*
  Basis Set:
  @DF-RHF Final Energy:  -134.23363771010048
    Total Energy =                       -134.2336377101004530
  Basis Set: 6-31G*
  Basis Set:
  Basis Set: 6-31G*
  Basis Set:
  @DF-RHF Final Energy:  -134.23365050310031
    Total Energy =                       -134.2336505031003355
  Basis Set: 6-31G*
  Basis Set:
  Charge       = 0
  Multiplicity = 1
  Basis Set: 6-31G*
  Basis Set:

    Orbital Energies (a.u.)
    -----------------------

    Doubly Occupied:

       1A    -15.533938     2A    -11.236083     3A    -11.235562
       4A     -1.193804     5A     -0.947555     6A     -0.854741
       7A     -0.659732     8A     -0.607860     9A     -0.587611
      10A     -0.545929    11A     -0.511518    12A     -0.506168
      13A     -0.353894

  @DF-RHF Final Energy:  -134.23365207768970

   => Energetics <=

    Nuclear Repulsion Energy =             84.3678578761866618
    One-Electron Energy =                -347.6542264214655233
    Two-Electron Energy =                 129.0527164675892209
    DFT Exchange-Correlation Energy =       0.0000000000000000
    Empirical Dispersion Energy =           0.0000000000000000
    PCM Polarization Energy =               0.0000000000000000
    EFP Energy =                            0.0000000000000000
    Total Energy =                       -134.2336520776896123
    Molecular point group: c1
  Basis Set: 6-31G*
  Basis Set:

  -Total Gradient:
     Atom            X                  Y                   Z
    ------   -----------------  -----------------  -----------------
       1       -0.000001403798    -0.000003369001     0.000007144820
       2        0.001203665267     0.000274817221     0.000754773975
       3       -0.001421883925    -0.000736237358    -0.000740362706
       4        0.000002614388    -0.000010623400    -0.000003918304
       5       -0.000002911021     0.000026440896     0.000002410240
       6       -0.000988864981     0.001585144125    -0.000946967740
       7        0.000019021170     0.000008128121    -0.000040659491
       8        0.001185938659    -0.001118959310     0.000899165793
       9       -0.000000269928    -0.000015649979     0.000054381454
      10        0.000004094169    -0.000009691314     0.000014031959

  **** Optimization is complete! (in 5 steps) ****
    Final optimized geometry and variables:
    Molecular point group: c1

    Geometry (in Angstrom), charge = 0, multiplicity = 1:

    H            0.645373830861    -1.056542072200     1.292292904756
    C           -0.333650227598    -0.748765171113     0.941520753403
    N           -0.209573933390     0.460703309312     0.158231408361
    H           -0.945727203482    -0.550079667476     1.814068682075
    H           -0.775101537981    -1.590908966721     0.402008076335
    C            0.564287367134     0.334691779011    -1.067138424482
    H           -1.109660569271     0.849274246363    -0.029425248012
    H            1.314039697477     1.116793187910    -1.135282473034
    H           -0.054158517280     0.374640651846    -1.960921935495
    H            1.090971028753    -0.614049586858    -1.085554528648

  Mulliken Charges: (a.u.)
   Center  Symbol    Alpha    Beta     Spin     Total
       1     H     0.41784  0.41784  0.00000  0.16432
       2     C     3.14212  3.14212  0.00000 -0.28425
       3     N     3.84704  3.84704  0.00000 -0.69408
       4     H     0.41820  0.41820  0.00000  0.16361
       5     H     0.43514  0.43514  0.00000  0.12972
       6     C     3.14357  3.14357  0.00000 -0.28714
       7     H     0.33052  0.33052  0.00000  0.33897
       8     H     0.41655  0.41655  0.00000  0.16691
       9     H     0.42726  0.42726  0.00000  0.14548
      10     H     0.42176  0.42176  0.00000  0.15647

   Total alpha = 13.00000, Total beta = 13.00000, Total charge = -0.00000
