                              Psi4 1.0.54 Driver

  ==> Input File <==

--------------------------------------------------------------------------
set {
	reference rhf
	basis cc-pvtz
}

set_num_threads( 4 )
memory 2 gb

molecule MOL {
0 1

O	 3.219313	 0.959291	 -0.614106
C	 2.698710	 0.058177	 -0.050237
C	 1.246364	 -0.005813	 0.348416
O	 3.344101	 -1.038700	 0.312317
C	 0.453207	 1.232821	 -0.049003
H	 0.839270	 -0.907818	 -0.092281
H	 1.216683	 -0.160521	 1.422434
C	 -0.998367	 1.217982	 0.432195
H	 0.481498	 1.345443	 -1.127236
H	 0.951413	 2.105557	 0.354893
C	 -1.882951	 0.151251	 -0.211235
H	 -1.429490	 2.193659	 0.228843
H	 -1.019755	 1.099323	 1.513279
C	 -3.342450	 0.243269	 0.226009
H	 -1.826223	 0.246578	 -1.293162
H	 -1.508033	 -0.839650	 0.027695
C	 -3.769616	 -0.885913	 1.159417
H	 -3.981454	 0.241010	 -0.653769
H	 -3.509940	 1.197744	 0.719759
C	 -5.229245	 -0.788084	 1.590335
H	 -3.603035	 -1.840291	 0.667345
H	 -3.133695	 -0.883296	 2.040583
H	 -5.499449	 -1.603433	 2.251531
H	 -5.893479	 -0.823638	 0.733224
H	 -5.420581	 0.141355	 2.116396
C	 4.720529	 -1.114346	 0.001449
H	 4.874321	 -1.055557	 -1.065852
H	 5.057824	 -2.067950	 0.373977
H	 5.264321	 -0.313596	 0.480350

	symmetry c1
}
set optking {
	frozen_dihedral = ("
		17 14 11 15
	")
}

ee,wfn = optimize('scf', return_wfn=True)
oeprop( wfn, 'DIPOLE', 'QUADRUPOLE', 'MULLIKEN_CHARGES')
f=open( 'psi4out.xyz', 'w' )
f.write( "29  " )
f.write( str(ee) + "\n" )
f.write( MOL.save_string_xyz() )
f.close()
--------------------------------------------------------------------------

    Molecular point group: c1
  Charge       = 0
  Multiplicity = 1
  Basis Set: CC-PVTZ
  Basis Set:
  @DF-RHF Final Energy:  -501.21966423105027
    Total Energy =                       -501.2196642310500465
    Molecular point group: c1
  Basis Set: CC-PVTZ
  Basis Set:
  Basis Set: CC-PVTZ
  Basis Set:
  @DF-RHF Final Energy:  -501.21992379225060
    Total Energy =                       -501.2199237922508246
  Basis Set: CC-PVTZ
  Basis Set:
  Basis Set: CC-PVTZ
  Basis Set:
  @DF-RHF Final Energy:  -501.21997828606084
    Total Energy =                       -501.2199782860600408
  Basis Set: CC-PVTZ
  Basis Set:
  Basis Set: CC-PVTZ
  Basis Set:
  @DF-RHF Final Energy:  -501.21989377267084
    Total Energy =                       -501.2198937726709573
  Basis Set: CC-PVTZ
  Basis Set:
  Basis Set: CC-PVTZ
  Basis Set:
  @DF-RHF Final Energy:  -501.22000676337541
    Total Energy =                       -501.2200067633755225
  Basis Set: CC-PVTZ
  Basis Set:
  Charge       = 0
  Multiplicity = 1
  Basis Set: CC-PVTZ
  Basis Set:

    Orbital Energies (a.u.)
    -----------------------

    Doubly Occupied:

       1A    -20.596031     2A    -20.533847     3A    -11.364294
       4A    -11.278272     5A    -11.233013     6A    -11.217029
       7A    -11.216064     8A    -11.214725     9A    -11.213422
      10A    -11.212106    11A    -11.207243    12A     -1.471913
      13A     -1.365458    14A     -1.098513    15A     -1.067246
      16A     -1.020060    17A     -0.977494    18A     -0.929066
      19A     -0.862702    20A     -0.805899    21A     -0.787992
      22A     -0.765785    23A     -0.702757    24A     -0.685455
      25A     -0.675895    26A     -0.635931    27A     -0.633936
      28A     -0.613762    29A     -0.596436    30A     -0.581515
      31A     -0.563486    32A     -0.555849    33A     -0.540877
      34A     -0.526772    35A     -0.517100    36A     -0.510967
      37A     -0.495857    38A     -0.479371    39A     -0.475078
      40A     -0.461547    41A     -0.458789    42A     -0.450048
      43A     -0.444888    44A     -0.438109

  @DF-RHF Final Energy:  -501.22000772304750

   => Energetics <=

    Nuclear Repulsion Energy =            614.6515117426681627
    One-Electron Energy =               -1900.7778374761860505
    Two-Electron Energy =                 784.9063180104699313
    DFT Exchange-Correlation Energy =       0.0000000000000000
    Empirical Dispersion Energy =           0.0000000000000000
    PCM Polarization Energy =               0.0000000000000000
    EFP Energy =                            0.0000000000000000
    Total Energy =                       -501.2200077230479565
    Molecular point group: c1
  Basis Set: CC-PVTZ
  Basis Set:

  -Total Gradient:
     Atom            X                  Y                   Z
    ------   -----------------  -----------------  -----------------
       1        0.000050214566     0.000062026511    -0.000102879283
       2       -0.000041933971    -0.000062446966     0.000211381716
       3        0.000011707978     0.000011761449    -0.000053501514
       4       -0.000017685619     0.000005728446    -0.000037509209
       5        0.000010787887     0.000027706524    -0.000010568124
       6       -0.000008564909     0.000006497514     0.000000364392
       7        0.000010795969     0.000004839360    -0.000003184816
       8        0.000000492493    -0.000053512150    -0.000017407686
       9        0.000008667666    -0.000004838925     0.000004692279
      10        0.000039230262    -0.000009192960    -0.000002548431
      11       -0.000051225846     0.002395478433    -0.000113700744
      12       -0.000023576659    -0.000025458409    -0.000002015344
      13       -0.000003161875    -0.000013369553    -0.000011687482
      14        0.000628242632     0.000616866003     0.001725326827
      15       -0.000127346309    -0.002166862868    -0.000282486806
      16        0.000016010459     0.000030685704     0.000024175958
      17       -0.000443856258    -0.000846757365    -0.001377254955
      18       -0.000021129841    -0.000009922164    -0.000002794972
      19       -0.000013325580    -0.000008371641     0.000020322881
      20       -0.000015610502     0.000016692874     0.000068655586
      21        0.000011077761     0.000013785787    -0.000021349371
      22       -0.000009288361     0.000008637637    -0.000021707072
      23       -0.000015059331     0.000004298247     0.000022197105
      24        0.000024282426    -0.000008345177     0.000001892769
      25       -0.000026835816     0.000003272364    -0.000002626660
      26        0.000015264930    -0.000003381296    -0.000020405575
      27        0.000005216735     0.000001826473    -0.000000812583
      28       -0.000003370186     0.000000762116     0.000003177545
      29       -0.000010020699     0.000001594038     0.000002253571

  **** Optimization is complete! (in 6 steps) ****
    Final optimized geometry and variables:
    Molecular point group: c1

    Geometry (in Angstrom), charge = 0, multiplicity = 1:

    O            3.157032092347     0.971173728509    -0.811590013854
    C            2.613994627303     0.076815536605    -0.258058781474
    C            1.148609188420     0.021308301692     0.091107485346
    O            3.242383344954    -1.019523628368     0.134564425473
    C            0.374646796052     1.260128651180    -0.342277181959
    H            0.753581089996    -0.882747395221    -0.356182845336
    H            1.081689280365    -0.124960758214     1.164613908883
    C           -1.093201382481     1.255077620447     0.086333273519
    H            0.441845924997     1.366076959559    -1.419520933593
    H            0.862103374148     2.133269608262     0.073801034683
    C           -1.966291465201     0.205422810899    -0.600606773603
    H           -1.508325202328     2.236364218962    -0.121997061373
    H           -1.155751345175     1.125353577578     1.164936985744
    C           -3.441530301402     0.249201816919    -0.157591786379
    H           -1.897403687337     0.330458938103    -1.676765953875
    H           -1.572486547312    -0.785932033342    -0.400461429379
    C           -3.846457158824    -0.914171578486     0.745457115969
    H           -4.086489902350     0.244186377467    -1.030877769378
    H           -3.642856013422     1.185822242817     0.354376763036
    C           -5.294920138841    -0.834413828011     1.214641525494
    H           -3.690555443627    -1.847488457385     0.211807150294
    H           -3.189001538019    -0.945713436872     1.610810362704
    H           -5.550962892996    -1.677368183680     1.846280687299
    H           -5.978822878977    -0.832747242915     0.372267817847
    H           -5.472866961184     0.071720531644     1.784185761392
    C            4.628191563286    -1.102777965083    -0.129314015197
    H            4.817956525128    -1.053003462101    -1.191270309043
    H            4.949028498285    -2.054622094304     0.261799890026
    H            5.158714794392    -0.300237684200     0.361325545225

  Mulliken Charges: (a.u.)
   Center  Symbol    Alpha    Beta     Spin     Total
       1     O     4.19703  4.19703  0.00000 -0.39407
       2     C     2.80468  2.80468  0.00000  0.39064
       3     C     3.10181  3.10181  0.00000 -0.20362
       4     O     4.14726  4.14726  0.00000 -0.29451
       5     C     3.09317  3.09317  0.00000 -0.18635
       6     H     0.43924  0.43924  0.00000  0.12151
       7     H     0.43979  0.43979  0.00000  0.12041
       8     C     3.10189  3.10189  0.00000 -0.20377
       9     H     0.44619  0.44619  0.00000  0.10763
      10     H     0.43957  0.43957  0.00000  0.12086
      11     C     3.10313  3.10313  0.00000 -0.20627
      12     H     0.44436  0.44436  0.00000  0.11128
      13     H     0.45336  0.45336  0.00000  0.09328
      14     C     3.09365  3.09365  0.00000 -0.18730
      15     H     0.44576  0.44576  0.00000  0.10847
      16     H     0.45377  0.45377  0.00000  0.09247
      17     C     3.08294  3.08294  0.00000 -0.16589
      18     H     0.44764  0.44764  0.00000  0.10472
      19     H     0.45477  0.45477  0.00000  0.09046
      20     C     3.15050  3.15050  0.00000 -0.30099
      21     H     0.45412  0.45412  0.00000  0.09176
      22     H     0.45520  0.45520  0.00000  0.08961
      23     H     0.44852  0.44852  0.00000  0.10296
      24     H     0.45486  0.45486  0.00000  0.09027
      25     H     0.45477  0.45477  0.00000  0.09046
      26     C     3.03820  3.03820  0.00000 -0.07641
      27     H     0.45434  0.45434  0.00000  0.09133
      28     H     0.44527  0.44527  0.00000  0.10946
      29     H     0.45420  0.45420  0.00000  0.09160

   Total alpha = 44.00000, Total beta = 44.00000, Total charge =  0.00000

*** Psi4 exiting successfully. Buy a developer a beer!
