  ==> Input File <==

--------------------------------------------------------------------------
set {
	reference rhf
	basis 6-31G*
}

set_num_threads( 4 )
memory 2 gb

molecule MOL {
0 1

O	 1.245739	 1.229211	 -0.616345
C	 0.861134	 0.272526	 -0.014869
C	 -0.623889	 -0.118271	 -0.003699
C	 1.852424	 -0.576556	 0.761280
C	 -0.895332	 -1.256461	 -1.002431
C	 -1.473649	 1.103340	 -0.370799
C	 -0.983900	 -0.581483	 1.422328
H	 -0.615301	 -0.972064	 -2.012700
H	 -1.954261	 -1.493213	 -1.010207
H	 -0.360539	 -2.164946	 -0.747760
H	 -1.227476	 1.468527	 -1.361691
H	 -2.526716	 0.838935	 -0.358521
H	 -1.314819	 1.915855	 0.325860
H	 -2.039679	 -0.828001	 1.472951
H	 -0.427637	 -1.464071	 1.720694
H	 -0.789023	 0.202493	 2.147048
H	 2.090592	 -1.468310	 0.188994
H	 2.760235	 -0.006640	 0.903386
H	 1.467339	 -0.898614	 1.721076

	symmetry c1
}
set optking {
	frozen_dihedral = ("
		1 2 3 5
	")
}

ee = optimize('scf')
oeprop('DIPOLE', 'QUADRUPOLE', 'MULLIKEN_CHARGES')
f=open( 'psi4out.xyz', 'w' )
f.write( "19  " )
f.write( str(ee) + "\n" )
f.write( MOL.save_string_xyz() )
f.close()
--------------------------------------------------------------------------

    Molecular point group: c1
  Charge       = 0
  Multiplicity = 1
  Basis Set: 6-31G*
  Basis Set:
  @DF-RHF Final Energy:  -309.05939877093198
    Total Energy =                       -309.0593987709321482
    Molecular point group: c1
  Basis Set: 6-31G*
  Basis Set:
  Basis Set: 6-31G*
  Basis Set:
  @DF-RHF Final Energy:  -309.06023338047635
    Total Energy =                       -309.0602333804764612
  Basis Set: 6-31G*
  Basis Set:
  Basis Set: 6-31G*
  Basis Set:
  @DF-RHF Final Energy:  -309.06176496655792
    Total Energy =                       -309.0617649665578597
  Basis Set: 6-31G*
  Basis Set:
  Basis Set: 6-31G*
  Basis Set:
  @DF-RHF Final Energy:  -309.06120779263614
    Total Energy =                       -309.0612077926363099
  Basis Set: 6-31G*
  Basis Set:
  @DF-RHF Final Energy:  -309.06229472420461
    Total Energy =                       -309.0622947242044347
  @DF-RHF Final Energy:  -309.06272379634436
    Total Energy =                       -309.0627237963444713
  @DF-RHF Final Energy:  -309.06302553774776
    Total Energy =                       -309.0630255377478193
  @DF-RHF Final Energy:  -309.06304741523314
    Total Energy =                       -309.0630474152329157
  Basis Set: 6-31G*
  Basis Set:
  @DF-RHF Final Energy:  -309.06309312673602
    Total Energy =                       -309.0630931267359074
  Basis Set: 6-31G*
  Basis Set:
  Basis Set: 6-31G*
  Basis Set:
  @DF-RHF Final Energy:  -309.06309660079501
    Total Energy =                       -309.0630966007951201
  Basis Set: 6-31G*
  Basis Set:
  Basis Set: 6-31G*
  Basis Set:
  @DF-RHF Final Energy:  -309.06309778093515
    Total Energy =                       -309.0630977809348678
  Basis Set: 6-31G*
  Basis Set:
  Charge       = 0
  Multiplicity = 1
  Basis Set: 6-31G*
  Basis Set:

    Orbital Energies (a.u.)
    -----------------------

    Doubly Occupied:

       1A    -20.548257     2A    -11.322834     3A    -11.246430
       4A    -11.226883     5A    -11.224453     6A    -11.223933
       7A    -11.208587     8A     -1.394613     9A     -1.109602
      10A     -1.002151    11A     -0.946659    12A     -0.934954
      13A     -0.834988    14A     -0.703624    15A     -0.664497
      16A     -0.631683    17A     -0.620202    18A     -0.596421
      19A     -0.591348    20A     -0.565657    21A     -0.546240
      22A     -0.544978    23A     -0.524406    24A     -0.512672
      25A     -0.499061    26A     -0.471731    27A     -0.465400
      28A     -0.392459

  @DF-RHF Final Energy:  -309.06309875411552

   => Energetics <=

    Nuclear Repulsion Energy =            326.3057735834408390
    One-Electron Energy =               -1065.6282996809497945
    Two-Electron Energy =                 430.2594273433934973
    DFT Exchange-Correlation Energy =       0.0000000000000000
    Empirical Dispersion Energy =           0.0000000000000000
    PCM Polarization Energy =               0.0000000000000000
    EFP Energy =                            0.0000000000000000
    Total Energy =                       -309.0630987541154013
    Molecular point group: c1
  Basis Set: 6-31G*
  Basis Set:

  -Total Gradient:
     Atom            X                  Y                   Z
    ------   -----------------  -----------------  -----------------
       1        0.000024732299    -0.000200084398    -0.000327359928
       2       -0.000080334067     0.000350861044     0.000374144896
       3        0.000077394040    -0.000347090201     0.000123805479
       4       -0.000019510143    -0.000005659049     0.000021529387
       5       -0.000029766462     0.000186256729    -0.000198920037
       6        0.000019499423     0.000012124853    -0.000014006194
       7       -0.000000770778     0.000004807079     0.000010112644
       8       -0.000006227864     0.000001299715    -0.000004740133
       9        0.000003451208     0.000003423525     0.000006456181
      10        0.000000754241    -0.000000609800    -0.000000025508
      11        0.000000535427     0.000006114242    -0.000002706693
      12        0.000014669733    -0.000002161848    -0.000000440351
      13       -0.000003380699     0.000009832348     0.000004471397
      14        0.000004630748    -0.000001481292     0.000004009663
      15        0.000011075718    -0.000004549992     0.000003690051
      16       -0.000009721709    -0.000000126379     0.000011189148
      17       -0.000002682461    -0.000015594387     0.000002703112
      18       -0.000003272109     0.000008529728    -0.000006189453
      19       -0.000001076548    -0.000005891919    -0.000007723661

  **** Optimization is complete! (in 12 steps) ****
    Final optimized geometry and variables:
    Molecular point group: c1

    Geometry (in Angstrom), charge = 0, multiplicity = 1:

    O            1.228553723385     1.255544324832    -0.597793041618
    C            0.859749891686     0.277777913367    -0.020662644295
    C           -0.622297607151    -0.125425824690    -0.007451183674
    C            1.869307143678    -0.601444562717     0.695067300686
    C           -0.810906352028    -1.236067534558    -1.060599355234
    C           -1.480861530269     1.086339026174    -0.388254126591
    C           -1.046124829073    -0.644469160031     1.376663034253
    H           -0.515472171429    -0.890714973841    -2.045778987774
    H           -1.855681909899    -1.526607137386    -1.106327520085
    H           -0.234056067988    -2.125162901939    -0.826372298712
    H           -1.209826729120     1.468465347103    -1.363178174877
    H           -2.529819156844     0.806143124128    -0.405981756263
    H           -1.358682377652     1.893062570161     0.326434485287
    H           -2.103704733307    -0.886973062226     1.369065751080
    H           -0.508849321308    -1.541638018230     1.663837638200
    H           -0.887496154104     0.104750990185     2.147096358133
    H            1.695922908511    -1.656964936330     0.521267663310
    H            2.861532754035    -0.333823852080     0.359524299847
    H            1.806986918852    -0.433293980370     1.766080472242

  Mulliken Charges: (a.u.)
   Center  Symbol    Alpha    Beta     Spin     Total
       1     O     4.26446  4.26446  0.00000 -0.52892
       2     C     2.72504  2.72504  0.00000  0.54992
       3     C     3.06879  3.06879  0.00000 -0.13758
       4     C     3.28952  3.28952  0.00000 -0.57904
       5     C     3.24109  3.24109  0.00000 -0.48218
       6     C     3.22732  3.22732  0.00000 -0.45464
       7     C     3.24150  3.24150  0.00000 -0.48300
       8     H     0.40888  0.40888  0.00000  0.18224
       9     H     0.41307  0.41307  0.00000  0.17386
      10     H     0.41870  0.41870  0.00000  0.16260
      11     H     0.40550  0.40550  0.00000  0.18901
      12     H     0.42340  0.42340  0.00000  0.15320
      13     H     0.41608  0.41608  0.00000  0.16783
      14     H     0.41355  0.41355  0.00000  0.17289
      15     H     0.41723  0.41723  0.00000  0.16555
      16     H     0.41561  0.41561  0.00000  0.16879
      17     H     0.41014  0.41014  0.00000  0.17971
      18     H     0.39589  0.39589  0.00000  0.20822
      19     H     0.40424  0.40424  0.00000  0.19153

   Total alpha = 28.00000, Total beta = 28.00000, Total charge =  0.00000
