  ==> Input File <==

--------------------------------------------------------------------------
set {
	reference rhf
	basis cc-pvtz
}

set_num_threads( 4 )
memory 2 gb

molecule MOL {
0 1

H	 -0.366580	 2.045936	 -0.305741
C	 0.351829	 1.335402	 0.083179
N	 -0.000018	 0.000080	 -0.334836
H	 1.327156	 1.599860	 -0.305475
H	 0.380566	 1.445403	 1.171445
C	 1.161292	 -0.774757	 -0.700030
C	 -0.813391	 -0.676279	 0.646593
H	 0.856399	 -1.743983	 -1.073839
H	 1.709684	 -0.271064	 -1.485998
H	 1.844673	 -0.935809	 0.139091
H	 -1.708697	 -0.100756	 0.845042
H	 -1.115991	 -1.645731	 0.271462
H	 -0.292589	 -0.828941	 1.596630

	symmetry c1
}
set optking {
	frozen_dihedral = ("
		6 3 2 1
	")
}

ee = optimize('scf')
oeprop('DIPOLE', 'QUADRUPOLE', 'MULLIKEN_CHARGES')
f=open( 'psi4out.xyz', 'w' )
f.write( "13  " )
f.write( str(ee) + "\n" )
f.write( MOL.save_string_xyz() )
f.close()
--------------------------------------------------------------------------

    Molecular point group: c1
  Charge       = 0
  Multiplicity = 1
  Basis Set: CC-PVTZ
  Basis Set:
  @DF-RHF Final Energy:  -173.32943980787775
    Total Energy =                       -173.3294398078776908
    Molecular point group: c1
  Basis Set: CC-PVTZ
  Basis Set:
  Basis Set: CC-PVTZ
  Basis Set:
  @DF-RHF Final Energy:  -173.33004993652014
    Total Energy =                       -173.3300499365201972
  Basis Set: CC-PVTZ
  Basis Set:
  Basis Set: CC-PVTZ
  Basis Set:
  @DF-RHF Final Energy:  -173.33016047327041
    Total Energy =                       -173.3301604732704391
  Basis Set: CC-PVTZ
  Basis Set:
  Basis Set: CC-PVTZ
  Basis Set:
  @DF-RHF Final Energy:  -173.33016759802729
    Total Energy =                       -173.3301675980273160
  Basis Set: CC-PVTZ
  Basis Set:
  Charge       = 0
  Multiplicity = 1
  Basis Set: CC-PVTZ
  Basis Set:

    Orbital Energies (a.u.)
    -----------------------

    Doubly Occupied:

       1A    -15.535393     2A    -11.234337     3A    -11.234041
       4A    -11.233833     5A     -1.223030     6A     -0.953013
       7A     -0.952375     8A     -0.805604     9A     -0.640172
      10A     -0.631149    11A     -0.628898    12A     -0.549786
      13A     -0.543531    14A     -0.515010    15A     -0.503423
      16A     -0.502091    17A     -0.341282

  @DF-RHF Final Energy:  -173.33016824377117

   => Energetics <=

    Nuclear Repulsion Energy =            139.0373261664641120
    One-Electron Energy =                -508.6810501947109628
    Two-Electron Energy =                 196.3135557844756534
    DFT Exchange-Correlation Energy =       0.0000000000000000
    Empirical Dispersion Energy =           0.0000000000000000
    PCM Polarization Energy =               0.0000000000000000
    EFP Energy =                            0.0000000000000000
    Total Energy =                       -173.3301682437712259
    Molecular point group: c1
  Basis Set: CC-PVTZ
  Basis Set:

  -Total Gradient:
     Atom            X                  Y                   Z
    ------   -----------------  -----------------  -----------------
       1        0.002571476782     0.000568759231    -0.004065582170
       2       -0.003455656703    -0.000249824370     0.003746539287
       3        0.001328308586    -0.001459932291     0.003879183788
       4        0.000016358226     0.000010967745    -0.000021716673
       5        0.000001295220    -0.000026018355    -0.000015693882
       6       -0.000447894805     0.001152947668    -0.003536271711
       7       -0.000019136337     0.000047611498     0.000004705380
       8        0.000007726705    -0.000003880566     0.000004900436
       9        0.000020072654    -0.000015100123    -0.000007545769
      10       -0.000007433640    -0.000003066891    -0.000006096503
      11       -0.000017394257    -0.000009469764     0.000018706404
      12        0.000001955293    -0.000004809212     0.000005721901
      13        0.000000322276    -0.000008184568    -0.000006850490

  **** Optimization is complete! (in 5 steps) ****
    Final optimized geometry and variables:
    Molecular point group: c1

    Geometry (in Angstrom), charge = 0, multiplicity = 1:

    H           -0.600180223988     2.071867956738    -0.231591470751
    C            0.150362756924     1.383198528089     0.141071600110
    N           -0.159796646640     0.024415454041    -0.248098841101
    H            1.090127878074     1.688079438890    -0.301747012677
    H            0.244607365274     1.506556071057     1.220098619295
    C            0.985706956024    -0.754234268442    -0.644413951591
    C           -1.018965516808    -0.647229253769     0.690801039519
    H            0.661064542111    -1.720194849019    -1.011290460479
    H            1.512872586237    -0.255919525204    -1.447413281726
    H            1.696774029313    -0.929775855105     0.169546363366
    H           -1.906086459881    -0.051863822825     0.870252763395
    H           -1.336432343391    -1.602108463593     0.290506415009
    H           -0.536816395205    -0.828399665425     1.656771780253

  Mulliken Charges: (a.u.)
   Center  Symbol    Alpha    Beta     Spin     Total
       1     H     0.45129  0.45129  0.00000  0.09743
       2     C     3.08682  3.08682  0.00000 -0.17364
       3     N     3.59760  3.59760  0.00000 -0.19521
       4     H     0.45735  0.45735  0.00000  0.08529
       5     H     0.46903  0.46903  0.00000  0.06194
       6     C     3.08826  3.08826  0.00000 -0.17652
       7     C     3.08964  3.08964  0.00000 -0.17927
       8     H     0.45358  0.45358  0.00000  0.09285
       9     H     0.45259  0.45259  0.00000  0.09482
      10     H     0.47422  0.47422  0.00000  0.05157
      11     H     0.45257  0.45257  0.00000  0.09485
      12     H     0.45359  0.45359  0.00000  0.09283
      13     H     0.47347  0.47347  0.00000  0.05307

   Total alpha = 17.00000, Total beta = 17.00000, Total charge = -0.00000
