                              Psi4 1.0.54 Driver

  ==> Input File <==

--------------------------------------------------------------------------
set {
	reference rhf
	basis cc-pvtz
}

set_num_threads( 4 )
memory 2 gb

molecule MOL {
0 1

H	 2.828711	 -0.346904	 0.001083
C	 1.876752	 0.015931	 -0.363450
C	 0.776285	 -0.474665	 0.563092
H	 1.728113	 -0.357244	 -1.367440
H	 1.906171	 1.096574	 -0.386153
N	 -0.540022	 0.017605	 0.071630
H	 0.707111	 -1.548969	 0.573035
H	 0.886169	 -0.084184	 1.560432
O	 -0.954839	 -0.454407	 -0.933022
O	 -1.070230	 0.868622	 0.703331

	symmetry c1
}
set optking {
	frozen_dihedral = ("
		9 6 3 2
	")
}

ee,wfn = optimize('scf', return_wfn=True)
oeprop( wfn, 'DIPOLE', 'QUADRUPOLE', 'MULLIKEN_CHARGES')
f=open( 'psi4out.xyz', 'w' )
f.write( "10  " )
f.write( str(ee) + "\n" )
f.write( MOL.save_string_xyz() )
f.close()
--------------------------------------------------------------------------

    Molecular point group: c1
  Charge       = 0
  Multiplicity = 1
  Basis Set: CC-PVTZ
  Basis Set:
  @DF-RHF Final Energy:  -282.81323007101867
    Total Energy =                       -282.8132300710186087
    Molecular point group: c1
  Basis Set: CC-PVTZ
  Basis Set:
  Basis Set: CC-PVTZ
  Basis Set:
  @DF-RHF Final Energy:  -282.81105868357599
    Total Energy =                       -282.8110586835759932
  Basis Set: CC-PVTZ
  Basis Set:
  Basis Set: CC-PVTZ
  Basis Set:
  @DF-RHF Final Energy:  -282.81326439505216
    Total Energy =                       -282.8132643950521015
  Basis Set: CC-PVTZ
  Basis Set:
  Basis Set: CC-PVTZ
  Basis Set:
  @DF-RHF Final Energy:  -282.81329591064815
    Total Energy =                       -282.8132959106483213
  Basis Set: CC-PVTZ
  Basis Set:
  Basis Set: CC-PVTZ
  Basis Set:
  @DF-RHF Final Energy:  -282.81329677116452
    Total Energy =                       -282.8132967711644596
  Basis Set: CC-PVTZ
  Basis Set:
  Charge       = 0
  Multiplicity = 1
  Basis Set: CC-PVTZ
  Basis Set:

    Orbital Energies (a.u.)
    -----------------------

    Doubly Occupied:

       1A    -20.593668     2A    -20.590390     3A    -15.838544
       4A    -11.301992     5A    -11.249874     6A     -1.637773
       7A     -1.422140     8A     -1.126127     9A     -0.966861
      10A     -0.839231    11A     -0.763934    12A     -0.740605
      13A     -0.730345    14A     -0.658133    15A     -0.590616
      16A     -0.561228    17A     -0.547361    18A     -0.488870
      19A     -0.479384    20A     -0.455072

  @DF-RHF Final Energy:  -282.81329829774882

   => Energetics <=

    Nuclear Repulsion Energy =            186.7271693865183977
    One-Electron Energy =                -755.9166410800470430
    Two-Electron Energy =                 286.3761733957796309
    DFT Exchange-Correlation Energy =       0.0000000000000000
    Empirical Dispersion Energy =           0.0000000000000000
    PCM Polarization Energy =               0.0000000000000000
    EFP Energy =                            0.0000000000000000
    Total Energy =                       -282.8132982977489860
    Molecular point group: c1
  Basis Set: CC-PVTZ
  Basis Set:

  -Total Gradient:
     Atom            X                  Y                   Z
    ------   -----------------  -----------------  -----------------
       1       -0.000008432722    -0.000000893034     0.000006220290
       2       -0.000037308230    -0.000096057613    -0.000039837218
       3        0.000074141158     0.000155849297     0.000026866400
       4       -0.000018295616    -0.000006700048     0.000010115009
       5        0.000020755207     0.000018903581    -0.000013927247
       6       -0.000042226528    -0.000413115521     0.000050423204
       7        0.000024207012    -0.000010008081     0.000008166816
       8        0.000052225725    -0.000005848133     0.000017765668
       9        0.000063480437     0.000208190986    -0.000074000585
      10       -0.000128546445     0.000149678566     0.000008207660

  **** Optimization is complete! (in 6 steps) ****
    Final optimized geometry and variables:
    Molecular point group: c1

    Geometry (in Angstrom), charge = 0, multiplicity = 1:

    H            2.831867044130    -0.366365590471    -0.018606765544
    C            1.882002722569     0.001828341139    -0.383644347599
    C            0.781629190593    -0.477779511323     0.546822920478
    H            1.727087535616    -0.369563013889    -1.385880981237
    H            1.922553907440     1.083080743301    -0.408164470462
    N           -0.539796381707     0.023888801299     0.075499254444
    H            0.700814411053    -1.553119179951     0.544222445390
    H            0.899722296729    -0.107199598413     1.549723932448
    O           -0.966145785761    -0.446454567740    -0.925793934623
    O           -1.068879877671     0.865358935759     0.719549644065

  Mulliken Charges: (a.u.)
   Center  Symbol    Alpha    Beta     Spin     Total
       1     H     0.44820  0.44820  0.00000  0.10360
       2     C     3.14115  3.14115  0.00000 -0.28230
       3     C     3.03761  3.03761  0.00000 -0.07522
       4     H     0.43792  0.43792  0.00000  0.12416
       5     H     0.44369  0.44369  0.00000  0.11261
       6     N     3.27732  3.27732  0.00000  0.44535
       7     H     0.43655  0.43655  0.00000  0.12689
       8     H     0.43316  0.43316  0.00000  0.13367
       9     O     4.17488  4.17488  0.00000 -0.34977
      10     O     4.16951  4.16951  0.00000 -0.33901

   Total alpha = 20.00000, Total beta = 20.00000, Total charge = -0.00000

*** Psi4 exiting successfully. Buy a developer a beer!
