  ==> Input File <==

--------------------------------------------------------------------------
set {
	reference rhf
	basis 6-31G*
}

set_num_threads( 1 )
memory 2 gb

molecule MOL {
0 1

H	 2.275012	 -0.201236	 0.452310
O	 1.586534	 -0.678666	 -0.000226
C	 0.489431	 0.077273	 0.000046
C	 -0.764129	 -0.759190	 0.000191
O	 0.537743	 1.263962	 0.000257
C	 -2.038368	 0.075731	 -0.000248
H	 -0.717284	 -1.412404	 -0.866059
H	 -0.717458	 -1.411724	 0.866967
H	 -2.086483	 0.712501	 -0.875098
H	 -2.908485	 -0.571682	 -0.000042
H	 -2.086576	 0.713280	 0.874068

	symmetry c1
}
set optking {
	frozen_dihedral = ("
		2 3 4 7
	")
}

ee = energy('scf')
oeprop('DIPOLE', 'QUADRUPOLE', 'MULLIKEN_CHARGES')
f=open( 'psi4out.xyz', 'w' )
f.write( "11  " )
f.write( str(ee) + "\n" )
f.write( MOL.save_string_xyz() )
f.close()
--------------------------------------------------------------------------

    Molecular point group: c1

    Geometry (in Angstrom), charge = 0, multiplicity = 1:

       Center              X                  Y                   Z               Mass
    ------------   -----------------  -----------------  -----------------  -----------------
           H          2.275947682595    -0.199875491455     0.446150252064     1.007825032070
           O          1.587469682595    -0.677305491455    -0.006385747936    15.994914619560
           C          0.490366682595     0.078633508545    -0.006113747936    12.000000000000
           C         -0.763193317405    -0.757829491455    -0.005968747936    12.000000000000
           O          0.538678682595     1.265322508545    -0.005902747936    15.994914619560
           C         -2.037432317405     0.077091508545    -0.006407747936    12.000000000000
           H         -0.716348317405    -1.411043491455    -0.872218747936     1.007825032070
           H         -0.716522317405    -1.410363491455     0.860807252064     1.007825032070
           H         -2.085547317405     0.713861508545    -0.881257747936     1.007825032070
           H         -2.907549317405    -0.570321491455    -0.006201747936     1.007825032070
           H         -2.085640317405     0.714640508545     0.867908252064     1.007825032070

  Charge       = 0
  Multiplicity = 1
  Basis Set: 6-31G*
  Basis Set:

    Orbital Energies (a.u.)
    -----------------------

    Doubly Occupied:

       1A    -20.610227     2A    -20.554285     3A    -11.381781
       4A    -11.243884     5A    -11.220163     6A     -1.474530
       7A     -1.367278     8A     -1.064786     9A     -0.915703
      10A     -0.802179    11A     -0.703942    12A     -0.688992
      13A     -0.662129    14A     -0.606252    15A     -0.580164
      16A     -0.530153    17A     -0.525687    18A     -0.504562
      19A     -0.480963    20A     -0.445863

  @DF-RHF Final Energy:  -266.84073901245961

   => Energetics <=

    Nuclear Repulsion Energy =            179.7755179726576671
    One-Electron Energy =                -720.5054690337075272
    Two-Electron Energy =                 273.8892120485901955
    DFT Exchange-Correlation Energy =       0.0000000000000000
    Empirical Dispersion Energy =           0.0000000000000000
    PCM Polarization Energy =               0.0000000000000000
    EFP Energy =                            0.0000000000000000
    Total Energy =                       -266.8407390124596645

  Mulliken Charges: (a.u.)
   Center  Symbol    Alpha    Beta     Spin     Total
       1     H     0.26664  0.26664  0.00000  0.46672
       2     O     4.35182  4.35182  0.00000 -0.70365
       3     C     2.62828  2.62828  0.00000  0.74343
       4     C     3.20776  3.20776  0.00000 -0.41553
       5     O     4.27297  4.27297  0.00000 -0.54593
       6     C     3.23971  3.23971  0.00000 -0.47941
       7     H     0.39768  0.39768  0.00000  0.20465
       8     H     0.39992  0.39992  0.00000  0.20017
       9     H     0.40856  0.40856  0.00000  0.18289
      10     H     0.41686  0.41686  0.00000  0.16628
      11     H     0.40980  0.40980  0.00000  0.18039

   Total alpha = 20.00000, Total beta = 20.00000, Total charge = -0.00000
