  ==> Input File <==

--------------------------------------------------------------------------
set {
	reference rhf
	basis cc-pvtz
}

set_num_threads( 4 )
memory 2 gb

molecule MOL {
0 1

H	 -3.135559	 0.401989	 1.398262
C	 -2.119616	 0.210130	 1.113368
C	 -1.728843	 -1.058559	 0.708945
C	 -1.182640	 1.216655	 1.142640
H	 -2.446240	 -1.856696	 0.679750
C	 -0.428242	 -1.308778	 0.343090
H	 -1.466089	 2.204683	 1.452714
C	 0.135254	 0.981227	 0.776391
H	 -0.116060	 -2.285324	 0.029131
C	 0.514407	 -0.286506	 0.374921
H	 0.840279	 1.785757	 0.810056
O	 1.760432	 -0.625184	 0.000000
C	 2.773565	 0.334879	 0.000000
H	 2.728295	 0.960928	 -0.884150
H	 3.706387	 -0.206610	 0.000000
H	 2.728295	 0.960928	 0.884150

	symmetry c1
}
set optking {
	frozen_dihedral = ("
		10 12 13 14
	")
}

ee = optimize('scf')
oeprop('DIPOLE', 'QUADRUPOLE', 'MULLIKEN_CHARGES')
f=open( 'psi4out.xyz', 'w' )
f.write( "16  " )
f.write( str(ee) + "\n" )
f.write( MOL.save_string_xyz() )
f.close()
--------------------------------------------------------------------------

    Molecular point group: c1
  Charge       = 0
  Multiplicity = 1
  Basis Set: CC-PVTZ
  Basis Set:
  @DF-RHF Final Energy:  -344.70222780807592
    Total Energy =                       -344.7022278080760316
    Molecular point group: c1
  Basis Set: CC-PVTZ
  Basis Set:
  Basis Set: CC-PVTZ
  Basis Set:
  @DF-RHF Final Energy:  -344.70255091015912
    Total Energy =                       -344.7025509101594025
  Basis Set: CC-PVTZ
  Basis Set:
  Basis Set: CC-PVTZ
  Basis Set:
  @DF-RHF Final Energy:  -344.70293063315432
    Total Energy =                       -344.7029306331545513
  Basis Set: CC-PVTZ
  Basis Set:
  Basis Set: CC-PVTZ
  Basis Set:
  @DF-RHF Final Energy:  -344.70296242824941
    Total Energy =                       -344.7029624282494069
  Basis Set: CC-PVTZ
  Basis Set:
  Basis Set: CC-PVTZ
  Basis Set:
  @DF-RHF Final Energy:  -344.70296422587694
    Total Energy =                       -344.7029642258768263
  Basis Set: CC-PVTZ
  Basis Set:
  Charge       = 0
  Multiplicity = 1
  Basis Set: CC-PVTZ
  Basis Set:

    Orbital Energies (a.u.)
    -----------------------

    Doubly Occupied:

       1A    -20.579451     2A    -11.293425     3A    -11.278271
       4A    -11.231273     5A    -11.229997     6A    -11.221884
       7A    -11.218028     8A    -11.217076     9A     -1.418717
      10A     -1.150964    11A     -1.025466    12A     -1.016712
      13A     -0.943931    14A     -0.834767    15A     -0.808307
      16A     -0.725607    17A     -0.667476    18A     -0.666520
      19A     -0.660241    20A     -0.618934    21A     -0.590393
      22A     -0.580023    23A     -0.528805    24A     -0.522507
      25A     -0.512128    26A     -0.480386    27A     -0.465223
      28A     -0.339707    29A     -0.310359

  @DF-RHF Final Energy:  -344.70296456598948

   => Energetics <=

    Nuclear Repulsion Energy =            348.8051404697803832
    One-Electron Energy =               -1158.7430581223561603
    Two-Electron Energy =                 465.2349530865863017
    DFT Exchange-Correlation Energy =       0.0000000000000000
    Empirical Dispersion Energy =           0.0000000000000000
    PCM Polarization Energy =               0.0000000000000000
    EFP Energy =                            0.0000000000000000
    Total Energy =                       -344.7029645659895323
    Molecular point group: c1
  Basis Set: CC-PVTZ
  Basis Set:

  -Total Gradient:
     Atom            X                  Y                   Z
    ------   -----------------  -----------------  -----------------
       1       -0.000004536983    -0.000011866737    -0.000004996868
       2        0.000034258107     0.000070314202     0.000029196465
       3        0.000050608279    -0.000061855333    -0.000058300357
       4       -0.000071753991    -0.000026283707     0.000002299283
       5       -0.000006297040     0.000001103588     0.000008873101
       6       -0.000114538870    -0.000009471163     0.000003896336
       7        0.000011762962    -0.000000754251    -0.000004146666
       8        0.000049882672    -0.000058276191    -0.000059529175
       9        0.000004210816    -0.000001047220     0.000004562626
      10        0.000463634157    -0.000809953783     0.001946496678
      11        0.000016368555     0.000004581886     0.000009071364
      12       -0.000247745223     0.000933687957    -0.003171337568
      13       -0.001525828502     0.001259876086     0.002703043187
      14        0.001370068085    -0.001324663014    -0.001417935673
      15       -0.000015255539    -0.000003036188    -0.000001654764
      16       -0.000014837484     0.000037643869     0.000010462030

  **** Optimization is complete! (in 6 steps) ****
    Final optimized geometry and variables:
    Molecular point group: c1

    Geometry (in Angstrom), charge = 0, multiplicity = 1:

    H           -3.172669489966     0.432839246325     0.962521048288
    C           -2.166750113693     0.254962229147     0.635922547484
    C           -1.767739980498    -1.014848836210     0.244949128128
    C           -1.252123012761     1.282157701540     0.595411271777
    H           -2.468230063994    -1.828039687709     0.269099224904
    C           -0.478811879716    -1.248197634588    -0.172047437470
    H           -1.544149340096     2.272674529661     0.889120374089
    C            0.051555559087     1.064177706571     0.173955145975
    H           -0.159723879681    -2.226079725447    -0.474704440047
    C            0.441436329824    -0.206753049014    -0.206880158522
    H            0.738025015446     1.885173235221     0.141133643833
    O            1.673939834738    -0.521378802246    -0.644599015385
    C            2.733029854065     0.370646975373    -0.457232438223
    H            2.720695091680     1.159870459480    -1.201158356204
    H            3.639371176444    -0.201455756354    -0.585227559188
    H            2.725598077759     0.800722051180     0.536382227015

  Mulliken Charges: (a.u.)
   Center  Symbol    Alpha    Beta     Spin     Total
       1     H     0.42440  0.42440  0.00000  0.15119
       2     C     3.10048  3.10048  0.00000 -0.20096
       3     C     3.05830  3.05830  0.00000 -0.11661
       4     C     3.06196  3.06196  0.00000 -0.12393
       5     H     0.42297  0.42297  0.00000  0.15407
       6     C     3.11077  3.11077  0.00000 -0.22155
       7     H     0.42341  0.42341  0.00000  0.15318
       8     C     3.14129  3.14129  0.00000 -0.28259
       9     H     0.42065  0.42065  0.00000  0.15870
      10     C     2.85236  2.85236  0.00000  0.29527
      11     H     0.42272  0.42272  0.00000  0.15455
      12     O     4.15285  4.15285  0.00000 -0.30570
      13     C     3.04411  3.04411  0.00000 -0.08822
      14     H     0.46018  0.46018  0.00000  0.07965
      15     H     0.44028  0.44028  0.00000  0.11944
      16     H     0.46325  0.46325  0.00000  0.07350

   Total alpha = 29.00000, Total beta = 29.00000, Total charge = -0.00000
