  ==> Input File <==

--------------------------------------------------------------------------
set {
	reference rhf
	basis cc-pvtz
}

set_num_threads( 4 )
memory 2 gb

molecule MOL {
0 1

H	 2.342730	 0.877684	 -1.045694
C	 2.360424	 0.000000	 -0.411793
C	 1.173749	 0.000000	 0.526870
H	 3.286567	 0.000000	 0.151574
H	 2.342730	 -0.877684	 -1.045694
O	 -0.000000	 0.000000	 -0.223739
H	 1.203779	 0.876757	 1.172538
H	 1.203779	 -0.876757	 1.172538
C	 -1.173749	 0.000000	 0.526870
C	 -1.866641	 1.334712	 0.360349
H	 -0.945161	 -0.177703	 1.576946
H	 -1.826851	 -0.807428	 0.198222
H	 -1.226537	 2.139424	 0.699728
H	 -2.784378	 1.357434	 0.936861
H	 -2.109160	 1.509033	 -0.680454

	symmetry c1
}
set optking {
	frozen_dihedral = ("
		11 9 6 3
	")
}

ee = optimize('scf')
oeprop('DIPOLE', 'QUADRUPOLE', 'MULLIKEN_CHARGES')
f=open( 'psi4out.xyz', 'w' )
f.write( "15  " )
f.write( str(ee) + "\n" )
f.write( MOL.save_string_xyz() )
f.close()
--------------------------------------------------------------------------

    Molecular point group: c1
  Charge       = 0
  Multiplicity = 1
  Basis Set: CC-PVTZ
  Basis Set:
  @DF-RHF Final Energy:  -232.22923841710008
    Total Energy =                       -232.2292384171000208
    Molecular point group: c1
  Basis Set: CC-PVTZ
  Basis Set:
  Basis Set: CC-PVTZ
  Basis Set:
  @DF-RHF Final Energy:  -232.22972074130118
    Total Energy =                       -232.2297207413013211
  Basis Set: CC-PVTZ
  Basis Set:
  Basis Set: CC-PVTZ
  Basis Set:
  @DF-RHF Final Energy:  -232.22984261123958
    Total Energy =                       -232.2298426112395191
  Basis Set: CC-PVTZ
  Basis Set:
  Charge       = 0
  Multiplicity = 1
  Basis Set: CC-PVTZ
  Basis Set:

    Orbital Energies (a.u.)
    -----------------------

    Doubly Occupied:

       1A    -20.542096     2A    -11.266984     3A    -11.265837
       4A    -11.207493     5A    -11.206821     6A     -1.376539
       7A     -1.043001     8A     -0.984708     9A     -0.854705
      10A     -0.820959    11A     -0.672345    12A     -0.659214
      13A     -0.634164    14A     -0.574912    15A     -0.553292
      16A     -0.540056    17A     -0.523026    18A     -0.500773
      19A     -0.486882    20A     -0.463085    21A     -0.407268

  @DF-RHF Final Energy:  -232.22984370901119

   => Energetics <=

    Nuclear Repulsion Energy =            191.8614694165575258
    One-Electron Energy =                -695.0143084197909502
    Two-Electron Energy =                 270.9229952942223463
    DFT Exchange-Correlation Energy =       0.0000000000000000
    Empirical Dispersion Energy =           0.0000000000000000
    PCM Polarization Energy =               0.0000000000000000
    EFP Energy =                            0.0000000000000000
    Total Energy =                       -232.2298437090111065
    Molecular point group: c1
  Basis Set: CC-PVTZ
  Basis Set:

  -Total Gradient:
     Atom            X                  Y                   Z
    ------   -----------------  -----------------  -----------------
       1       -0.000000726696    -0.000003136733    -0.000000165209
       2        0.000010337626     0.000017762847     0.000013345994
       3        0.000042083333    -0.000491342983    -0.000022025512
       4        0.000032175706    -0.000000352135    -0.000001866493
       5       -0.000009006482     0.000011805913     0.000017068530
       6       -0.000047412933     0.000795331511     0.000032744737
       7       -0.000022876564    -0.000011175898    -0.000035619464
       8        0.000002788809     0.000006585872     0.000015407756
       9        0.000015378200    -0.000788254129    -0.000125723047
      10       -0.000051506722    -0.000045184376     0.000014540463
      11        0.000034025681     0.000511138821     0.000099457355
      12       -0.000023443959     0.000021872733     0.000006479070
      13        0.000018046419    -0.000034570173     0.000000903121
      14       -0.000007378326     0.000010345180    -0.000004852804
      15        0.000007515907    -0.000000826450    -0.000009694494

  **** Optimization is complete! (in 4 steps) ****
    Final optimized geometry and variables:
    Molecular point group: c1

    Geometry (in Angstrom), charge = 0, multiplicity = 1:

    H            2.240347900801     0.613068009276    -1.202800363414
    C            2.265896404541    -0.275918768951    -0.585015092264
    C            1.096005111396    -0.289579822732     0.374132332319
    H            3.201888674707    -0.289724735490    -0.037898166400
    H            2.233126486200    -1.141847767513    -1.234373113290
    O           -0.089631458079    -0.279071111375    -0.360537098298
    H            1.141701586939     0.577304373040     1.031572543213
    H            1.138450990707    -1.176258638057     1.004386022271
    C           -1.277997378015    -0.247425582264     0.378230600133
    C           -2.000433911813     1.073934160499     0.190655402895
    H           -1.074926679329    -0.412683696789     1.432547888809
    H           -1.904979284123    -1.064775036303     0.039158437165
    H           -1.395880215429     1.899412590761     0.548510770125
    H           -2.938188136174     1.075939686978     0.736226242915
    H           -2.212890723093     1.240825073935    -0.858028159687

  Mulliken Charges: (a.u.)
   Center  Symbol    Alpha    Beta     Spin     Total
       1     H     0.45178  0.45178  0.00000  0.09643
       2     C     3.13739  3.13739  0.00000 -0.27479
       3     C     2.96552  2.96552  0.00000  0.06896
       4     H     0.45928  0.45928  0.00000  0.08145
       5     H     0.45138  0.45138  0.00000  0.09724
       6     O     4.18590  4.18590  0.00000 -0.37179
       7     H     0.47440  0.47440  0.00000  0.05119
       8     H     0.47067  0.47067  0.00000  0.05866
       9     C     2.97769  2.97769  0.00000  0.04461
      10     C     3.13522  3.13522  0.00000 -0.27044
      11     H     0.47117  0.47117  0.00000  0.05766
      12     H     0.45514  0.45514  0.00000  0.08973
      13     H     0.45630  0.45630  0.00000  0.08740
      14     H     0.45721  0.45721  0.00000  0.08557
      15     H     0.45094  0.45094  0.00000  0.09812

   Total alpha = 21.00000, Total beta = 21.00000, Total charge = -0.00000
