                              Psi4 1.0.54 Driver

  ==> Input File <==

--------------------------------------------------------------------------
set {
	reference rhf
	basis cc-pvtz
}

set_num_threads( 4 )
memory 2 gb

molecule MOL {
0 1

H	 5.269878	 0.195679	 1.068175
C	 4.673900	 -0.208485	 0.258034
C	 3.190199	 -0.204714	 0.610086
H	 4.865136	 0.391893	 -0.624684
H	 5.027838	 -1.214511	 0.056939
C	 2.319208	 -0.778154	 -0.505491
H	 2.876954	 0.809861	 0.827925
H	 3.035335	 -0.782733	 1.518235
C	 1.599213	 0.282308	 -1.332482
H	 2.927424	 -1.385863	 -1.163969
H	 1.572259	 -1.435048	 -0.069212
C	 2.498522	 1.082773	 -2.259297
H	 0.853829	 -0.189142	 -1.968015
H	 1.049633	 0.967040	 -0.693246
C	 1.954084	 2.387921	 -2.806604
O	 3.580718	 0.697376	 -2.565228
C	 0.725075	 2.215331	 -3.705555
H	 2.756171	 2.859370	 -3.358176
H	 1.700081	 3.031876	 -1.968748
C	 0.260517	 3.534881	 -4.316000
H	 0.961271	 1.514969	 -4.501984
H	 -0.092347	 1.778892	 -3.140451
C	 -0.957828	 3.376147	 -5.219087
H	 1.076267	 3.972933	 -4.883216
H	 0.030911	 4.236920	 -3.519133
H	 -0.748445	 2.703361	 -6.043829
H	 -1.802813	 2.973195	 -4.670734
H	 -1.260164	 4.328585	 -5.638333

	symmetry c1
}
set optking {
	frozen_dihedral = ("
		10 6 3 2
	")
}

ee,wfn = optimize('scf', return_wfn=True)
oeprop( wfn, 'DIPOLE', 'QUADRUPOLE', 'MULLIKEN_CHARGES')
f=open( 'psi4out.xyz', 'w' )
f.write( "28  " )
f.write( str(ee) + "\n" )
f.write( MOL.save_string_xyz() )
f.close()
--------------------------------------------------------------------------

    Molecular point group: c1
  Charge       = 0
  Multiplicity = 1
  Basis Set: CC-PVTZ
  Basis Set:
  @DF-RHF Final Energy:  -426.31263333613606
    Total Energy =                       -426.3126333361368552
    Molecular point group: c1
  Basis Set: CC-PVTZ
  Basis Set:
  Basis Set: CC-PVTZ
  Basis Set:
  @DF-RHF Final Energy:  -426.31365090122404
    Total Energy =                       -426.3136509012244915
  Basis Set: CC-PVTZ
  Basis Set:
  Basis Set: CC-PVTZ
  Basis Set:
  @DF-RHF Final Energy:  -426.31375168451586
    Total Energy =                       -426.3137516845160917
  Basis Set: CC-PVTZ
  Basis Set:
  Basis Set: CC-PVTZ
  Basis Set:
  @DF-RHF Final Energy:  -426.31382325434583
    Total Energy =                       -426.3138232543461754
  Basis Set: CC-PVTZ
  Basis Set:
  @DF-RHF Final Energy:  -426.31389690384844
    Total Energy =                       -426.3138969038486721
  @DF-RHF Final Energy:  -426.31391627733456
    Total Energy =                       -426.3139162773341013
  @DF-RHF Final Energy:  -426.31392934067492
    Total Energy =                       -426.3139293406750312
  Basis Set: CC-PVTZ
  Basis Set:
  @DF-RHF Final Energy:  -426.31395467753930
    Total Energy =                       -426.3139546775398685
  Basis Set: CC-PVTZ
  Basis Set:
  Basis Set: CC-PVTZ
  Basis Set:
  @DF-RHF Final Energy:  -426.31396420106159
    Total Energy =                       -426.3139642010612533
  Basis Set: CC-PVTZ
  Basis Set:
  Basis Set: CC-PVTZ
  Basis Set:
  @DF-RHF Final Energy:  -426.31396534061003
    Total Energy =                       -426.3139653406100251
  Basis Set: CC-PVTZ
  Basis Set:
  Charge       = 0
  Multiplicity = 1
  Basis Set: CC-PVTZ
  Basis Set:

    Orbital Energies (a.u.)
    -----------------------

    Doubly Occupied:

       1A    -20.537085     2A    -11.317113     3A    -11.230126
       4A    -11.228702     5A    -11.227299     6A    -11.224039
       7A    -11.215989     8A    -11.214406     9A    -11.212849
      10A    -11.196336    11A     -1.397227    12A     -1.096277
      13A     -1.075941    14A     -1.022605    15A     -0.989794
      16A     -0.908263    17A     -0.876144    18A     -0.809478
      19A     -0.797118    20A     -0.724498    21A     -0.669143
      22A     -0.651326    23A     -0.634724    24A     -0.626757
      25A     -0.601720    26A     -0.590071    27A     -0.579553
      28A     -0.565518    29A     -0.549067    30A     -0.533773
      31A     -0.522017    32A     -0.507569    33A     -0.502508
      34A     -0.485472    35A     -0.479117    36A     -0.476609
      37A     -0.468504    38A     -0.462135    39A     -0.452441
      40A     -0.394356

  @DF-RHF Final Energy:  -426.31396512536094

   => Energetics <=

    Nuclear Repulsion Energy =            537.9155562478165393
    One-Electron Energy =               -1644.3517019243890900
    Two-Electron Energy =                 680.1221805512118408
    DFT Exchange-Correlation Energy =       0.0000000000000000
    Empirical Dispersion Energy =           0.0000000000000000
    PCM Polarization Energy =               0.0000000000000000
    EFP Energy =                            0.0000000000000000
    Total Energy =                       -426.3139651253607099
    Molecular point group: c1
  Basis Set: CC-PVTZ
  Basis Set:

  -Total Gradient:
     Atom            X                  Y                   Z
    ------   -----------------  -----------------  -----------------
       1       -0.000020132782    -0.000010562650    -0.000025896219
       2        0.000035974663    -0.000365347669     0.000181202974
       3       -0.000009269473     0.000615952861    -0.000305674291
       4        0.000006807335    -0.000005628892     0.000008584836
       5       -0.000014316916     0.000034330605     0.000003103183
       6       -0.000120607118    -0.000687669705     0.000426105066
       7        0.000004752410    -0.000027710158    -0.000006991928
       8        0.000006098139    -0.000003981583    -0.000000999388
       9        0.000021309692     0.000009433581     0.000010307146
      10        0.000091623508     0.000441228841    -0.000285145198
      11        0.000012635272     0.000017076433     0.000000641953
      12        0.000022333278    -0.000049534401    -0.000032899386
      13       -0.000003626187     0.000017339458    -0.000007322268
      14       -0.000004472277    -0.000002999758    -0.000002557165
      15        0.000001790166     0.000029301851     0.000039740347
      16       -0.000069228791     0.000046796160     0.000033387707
      17        0.000031392338    -0.000035938016    -0.000033271199
      18       -0.000004008168    -0.000029415173     0.000002356105
      19        0.000017643039     0.000011528932    -0.000024948582
      20       -0.000013961818     0.000011500011     0.000023573432
      21       -0.000014993108     0.000030065872    -0.000015191822
      22        0.000014402814    -0.000027475353     0.000000452926
      23        0.000002010992    -0.000008591365     0.000001997343
      24       -0.000011142437    -0.000012486913     0.000006394908
      25        0.000008072527    -0.000004456369    -0.000011733981
      26       -0.000002084695     0.000012284984     0.000016607511
      27        0.000005451066     0.000000930108    -0.000003848995
      28        0.000005546532    -0.000005971695     0.000002024991

  **** Optimization is complete! (in 11 steps) ****
    Final optimized geometry and variables:
    Molecular point group: c1

    Geometry (in Angstrom), charge = 0, multiplicity = 1:

    H            3.276190836476    -1.014938557407     3.380359791461
    C            2.741644964079    -1.428339131556     2.531901162324
    C            1.237806879462    -1.440173827310     2.798116727967
    H            2.990189590196    -0.846489879093     1.655529568591
    H            3.108631121619    -2.436329853705     2.370772897900
    C            0.382153283933    -2.028247845144     1.657321864579
    H            0.902664663530    -0.431459206958     3.024309572914
    H            1.058128743056    -2.016459634272     3.699603429822
    C           -0.348163491652    -0.996230996543     0.798130467826
    H            0.996306997423    -2.646212114262     1.014935181251
    H           -0.375068507432    -2.677021040033     2.082882038956
    C            0.522392345521    -0.195522373462    -0.154449710601
    H           -1.078064793580    -1.501704520204     0.169680323114
    H           -0.918992960674    -0.315315777636     1.421355742998
    C           -0.022157786853     1.128961523615    -0.651983102892
    O            1.576760446905    -0.599472771176    -0.526455061588
    C           -1.298924623768     0.992529572627    -1.488491900801
    H            0.759152342056     1.594632931976    -1.237190133807
    H           -0.220799952892     1.763055690000     0.208032408249
    C           -1.781618492649     2.332599238022    -2.036793770087
    H           -1.112136434238     0.312743896084    -2.315161994002
    H           -2.089507716638     0.547261871931    -0.892888574017
    C           -3.049360544171     2.210100480318    -2.875075925755
    H           -0.993503476013     2.778176442342    -2.636280416498
    H           -1.959389642483     3.014680583585    -1.209976408655
    H           -2.892635000718     1.559141880921    -3.728464093697
    H           -3.866909352855     1.799185076971    -2.292170763708
    H           -3.364445423382     3.176636978556    -3.250298467998

  Mulliken Charges: (a.u.)
   Center  Symbol    Alpha    Beta     Spin     Total
       1     H     0.45374  0.45374  0.00000  0.09252
       2     C     3.14316  3.14316  0.00000 -0.28632
       3     C     3.09646  3.09646  0.00000 -0.19291
       4     H     0.44354  0.44354  0.00000  0.11291
       5     H     0.45734  0.45734  0.00000  0.08533
       6     C     3.09579  3.09579  0.00000 -0.19158
       7     H     0.45653  0.45653  0.00000  0.08694
       8     H     0.44822  0.44822  0.00000  0.10355
       9     C     3.12761  3.12761  0.00000 -0.25522
      10     H     0.44426  0.44426  0.00000  0.11147
      11     H     0.44187  0.44187  0.00000  0.11627
      12     C     2.86257  2.86257  0.00000  0.27485
      13     H     0.43608  0.43608  0.00000  0.12783
      14     H     0.44193  0.44193  0.00000  0.11615
      15     C     3.09285  3.09285  0.00000 -0.18571
      16     O     4.17911  4.17911  0.00000 -0.35821
      17     C     3.10061  3.10061  0.00000 -0.20123
      18     H     0.43809  0.43809  0.00000  0.12382
      19     H     0.44927  0.44927  0.00000  0.10146
      20     C     3.08745  3.08745  0.00000 -0.17491
      21     H     0.44551  0.44551  0.00000  0.10898
      22     H     0.45008  0.45008  0.00000  0.09984
      23     C     3.14919  3.14919  0.00000 -0.29837
      24     H     0.44976  0.44976  0.00000  0.10048
      25     H     0.45363  0.45363  0.00000  0.09274
      26     H     0.45340  0.45340  0.00000  0.09319
      27     H     0.45516  0.45516  0.00000  0.08967
      28     H     0.44678  0.44678  0.00000  0.10644

   Total alpha = 40.00000, Total beta = 40.00000, Total charge = -0.00000

*** Psi4 exiting successfully. Buy a developer a beer!
