  ==> Input File <==

--------------------------------------------------------------------------
set {
	reference rhf
	basis cc-pvtz
}

set_num_threads( 4 )
memory 2 gb

molecule MOL {
0 1

H	 -3.436473	 1.252944	 -1.023892
O	 -3.458596	 0.315260	 -0.960865
C	 -3.176635	 -0.080824	 0.355601
C	 -1.763371	 0.265266	 0.799691
H	 -3.321825	 -1.153438	 0.379502
H	 -3.895468	 0.357385	 1.043382
C	 -0.673390	 -0.426948	 -0.013392
H	 -1.631049	 1.344913	 0.747560
H	 -1.664587	 -0.001624	 1.849167
C	 0.737842	 -0.043159	 0.423759
H	 -0.806103	 -0.190518	 -1.063345
H	 -0.797221	 -1.503753	 0.074146
C	 1.824000	 -0.743224	 -0.390623
H	 0.850588	 1.033777	 0.343840
H	 0.868587	 -0.286314	 1.476203
C	 3.255957	 -0.453067	 0.062319
H	 1.718250	 -0.470599	 -1.438164
H	 1.658105	 -1.815850	 -0.339904
C	 3.626635	 -1.039964	 1.422206
H	 3.392040	 0.623418	 0.100237
H	 3.950719	 -0.819021	 -0.689216
H	 2.944689	 -0.695952	 2.193362
H	 4.627720	 -0.739925	 1.710386
H	 3.601053	 -2.122983	 1.417551

	symmetry c1
}
set optking {
	frozen_dihedral = ("
		20 16 13 17
	")
}

ee = optimize('scf')
oeprop('DIPOLE', 'QUADRUPOLE', 'MULLIKEN_CHARGES')
f=open( 'psi4out.xyz', 'w' )
f.write( "24  " )
f.write( str(ee) + "\n" )
f.write( MOL.save_string_xyz() )
f.close()
--------------------------------------------------------------------------

    Molecular point group: c1
  Charge       = 0
  Multiplicity = 1
  Basis Set: CC-PVTZ
  Basis Set:
  @DF-RHF Final Energy:  -349.37988602513246
    Total Energy =                       -349.3798860251326346
    Molecular point group: c1
  Basis Set: CC-PVTZ
  Basis Set:
  Basis Set: CC-PVTZ
  Basis Set:
  @DF-RHF Final Energy:  -349.38022628718318
    Total Energy =                       -349.3802262871834614
  Basis Set: CC-PVTZ
  Basis Set:
  Basis Set: CC-PVTZ
  Basis Set:
  @DF-RHF Final Energy:  -349.38035267759795
    Total Energy =                       -349.3803526775979549
  Basis Set: CC-PVTZ
  Basis Set:
  Basis Set: CC-PVTZ
  Basis Set:
  @DF-RHF Final Energy:  -349.38035547914967
    Total Energy =                       -349.3803554791495571
  Basis Set: CC-PVTZ
  Basis Set:
  Charge       = 0
  Multiplicity = 1
  Basis Set: CC-PVTZ
  Basis Set:

    Orbital Energies (a.u.)
    -----------------------

    Doubly Occupied:

       1A    -20.546299     2A    -11.265536     3A    -11.215209
       4A    -11.212063     5A    -11.210303     6A    -11.209386
       7A    -11.208988     8A    -11.205243     9A     -1.364150
      10A     -1.089836    11A     -1.049435    12A     -0.986897
      13A     -0.915818    14A     -0.850576    15A     -0.801277
      16A     -0.777843    17A     -0.681736    18A     -0.655470
      19A     -0.625338    20A     -0.619960    21A     -0.599858
      22A     -0.585946    23A     -0.558593    24A     -0.540256
      25A     -0.517963    26A     -0.511510    27A     -0.496815
      28A     -0.471629    29A     -0.468696    30A     -0.460632
      31A     -0.458641    32A     -0.451218    33A     -0.421012

  @DF-RHF Final Energy:  -349.38035577191152

   => Energetics <=

    Nuclear Repulsion Energy =            384.4400177904415727
    One-Electron Energy =               -1235.5724793135077562
    Two-Electron Energy =                 501.7521057511549429
    DFT Exchange-Correlation Energy =       0.0000000000000000
    Empirical Dispersion Energy =           0.0000000000000000
    PCM Polarization Energy =               0.0000000000000000
    EFP Energy =                            0.0000000000000000
    Total Energy =                       -349.3803557719112973
    Molecular point group: c1
  Basis Set: CC-PVTZ
  Basis Set:

  -Total Gradient:
     Atom            X                  Y                   Z
    ------   -----------------  -----------------  -----------------
       1       -0.000000466669     0.000000678124     0.000000088789
       2       -0.000001407936     0.000002024580     0.000003335399
       3        0.000000814192    -0.000009571413     0.000002109234
       4        0.000000408735    -0.000001050822     0.000005693097
       5       -0.000002042574    -0.000001307082    -0.000001429394
       6        0.000000745548    -0.000000711505    -0.000000602331
       7        0.000000544817     0.000016548451    -0.000013541986
       8        0.000000873071    -0.000003276366    -0.000003827778
       9       -0.000002003963     0.000003741710     0.000003418491
      10        0.000004042163     0.000020301182    -0.000036083855
      11       -0.000000196762     0.000005661404     0.000007187735
      12        0.000010544080    -0.000000015038     0.000000059751
      13       -0.000367592105     0.000911748658     0.000491458183
      14       -0.000022481185     0.000010892067    -0.000000664750
      15        0.000020552909    -0.000005460632    -0.000012329307
      16        0.000336211346    -0.000141399889    -0.001041231651
      17        0.000245242418    -0.000762645229    -0.000196124814
      18       -0.000011414239    -0.000030611209    -0.000019388626
      19        0.000021908354    -0.000025298454    -0.000022870749
      20       -0.000223926201     0.000032594432     0.000798468708
      21       -0.000008329549    -0.000006117665     0.000024225051
      22       -0.000004063948     0.000004671549    -0.000017743606
      23       -0.000003451857    -0.000002707935     0.000007009954
      24        0.000005489347    -0.000018688915     0.000022784453

  **** Optimization is complete! (in 5 steps) ****
    Final optimized geometry and variables:
    Molecular point group: c1

    Geometry (in Angstrom), charge = 0, multiplicity = 1:

    H           -3.391170205336     1.572078641780    -1.223586604979
    O           -3.429878156073     0.633529836211    -1.187406784038
    C           -3.178638039291     0.196401082296     0.122186405161
    C           -1.768140523529     0.505873402530     0.600856204747
    H           -3.341988500288    -0.873834180437     0.113076946053
    H           -3.902667247752     0.627381391768     0.809091572877
    C           -0.675027276238    -0.180746868551    -0.212760953996
    H           -1.617254520119     1.584199858360     0.582334851812
    H           -1.692765472512     0.207427532215     1.643738852651
    C            0.734130929577     0.165700101255     0.260696927272
    H           -0.784926095949     0.087570527639    -1.257579640341
    H           -0.817806504231    -1.257465571268    -0.158215730905
    C            1.823963709873    -0.531059694968    -0.551146791296
    H            0.878392127226     1.242211298121     0.198983862982
    H            0.830215195468    -0.094414892527     1.310656421830
    C            3.254991311945    -0.173295629674    -0.144236519731
    H            1.688939167843    -0.285947220249    -1.600884802405
    H            1.692682935764    -1.608494868043    -0.478173619847
    C            3.687494604375    -0.736558680476     1.207804599094
    H            3.364472531936     0.908011927852    -0.130881025972
    H            3.934959296224    -0.540145724851    -0.906576905417
    H            3.088105005666    -0.344303392573     2.020698845121
    H            4.721539287898    -0.486654452427     1.416657829919
    H            3.600022281756    -1.818185609749     1.224444089503

  Mulliken Charges: (a.u.)
   Center  Symbol    Alpha    Beta     Spin     Total
       1     H     0.39531  0.39531  0.00000  0.20938
       2     O     4.20369  4.20369  0.00000 -0.40737
       3     C     2.97782  2.97782  0.00000  0.04436
       4     C     3.10184  3.10184  0.00000 -0.20368
       5     H     0.45882  0.45882  0.00000  0.08236
       6     H     0.46027  0.46027  0.00000  0.07946
       7     C     3.08715  3.08715  0.00000 -0.17429
       8     H     0.45911  0.45911  0.00000  0.08177
       9     H     0.45345  0.45345  0.00000  0.09310
      10     C     3.09097  3.09097  0.00000 -0.18194
      11     H     0.44598  0.44598  0.00000  0.10803
      12     H     0.45524  0.45524  0.00000  0.08953
      13     C     3.09428  3.09428  0.00000 -0.18856
      14     H     0.45561  0.45561  0.00000  0.08878
      15     H     0.45450  0.45450  0.00000  0.09100
      16     C     3.09028  3.09028  0.00000 -0.18056
      17     H     0.44894  0.44894  0.00000  0.10212
      18     H     0.45474  0.45474  0.00000  0.09052
      19     C     3.15119  3.15119  0.00000 -0.30239
      20     H     0.45576  0.45576  0.00000  0.08847
      21     H     0.44825  0.44825  0.00000  0.10351
      22     H     0.45463  0.45463  0.00000  0.09073
      23     H     0.44703  0.44703  0.00000  0.10594
      24     H     0.45514  0.45514  0.00000  0.08972

   Total alpha = 33.00000, Total beta = 33.00000, Total charge = -0.00000
