  ==> Input File <==

--------------------------------------------------------------------------
set {
	reference rhf
	basis cc-pvtz
}

set_num_threads( 4 )
memory 2 gb

molecule MOL {
0 1

H	 -0.000105	 1.988529	 0.748933
O	 -0.000098	 1.879786	 -0.188206
C	 -0.000014	 0.545691	 -0.532416
C	 -1.286000	 -0.125171	 -0.046657
C	 1.286016	 -0.125031	 -0.046584
H	 0.000021	 0.481103	 -1.610604
F	 -2.312994	 0.621283	 -0.370617
F	 -1.463447	 -1.306886	 -0.581235
F	 -1.289472	 -0.262573	 1.261962
F	 2.317750	 0.468717	 -0.594166
F	 1.336617	 -1.393765	 -0.365123
F	 1.414467	 -0.024806	 1.259108

	symmetry c1
}
set optking {
	frozen_dihedral = ("
		7 4 3 6
	")
}

ee = optimize('scf')
oeprop('DIPOLE', 'QUADRUPOLE', 'MULLIKEN_CHARGES')
f=open( 'psi4out.xyz', 'w' )
f.write( "12  " )
f.write( str(ee) + "\n" )
f.write( MOL.save_string_xyz() )
f.close()
--------------------------------------------------------------------------

    Molecular point group: c1
  Charge       = 0
  Multiplicity = 1
  Basis Set: CC-PVTZ
  Basis Set:
  @DF-RHF Final Energy:  -786.58864320649445
    Total Energy =                       -786.5886432064943392
    Molecular point group: c1
  Basis Set: CC-PVTZ
  Basis Set:
  Basis Set: CC-PVTZ
  Basis Set:
  @DF-RHF Final Energy:  -786.58896611878833
    Total Energy =                       -786.5889661187882211
  Basis Set: CC-PVTZ
  Basis Set:
  Basis Set: CC-PVTZ
  Basis Set:
  @DF-RHF Final Energy:  -786.58909322509544
    Total Energy =                       -786.5890932250952119
  Basis Set: CC-PVTZ
  Basis Set:
  Basis Set: CC-PVTZ
  Basis Set:
  @DF-RHF Final Energy:  -786.58910676465086
    Total Energy =                       -786.5891067646507508
  Basis Set: CC-PVTZ
  Basis Set:
  Basis Set: CC-PVTZ
  Basis Set:
  @DF-RHF Final Energy:  -786.58910928490320
    Total Energy =                       -786.5891092849028610
  Basis Set: CC-PVTZ
  Basis Set:
  Charge       = 0
  Multiplicity = 1
  Basis Set: CC-PVTZ
  Basis Set:

    Orbital Energies (a.u.)
    -----------------------

    Doubly Occupied:

       1A    -26.358647     2A    -26.358219     3A    -26.356914
       4A    -26.356492     5A    -26.354373     6A    -26.353304
       7A    -20.610387     8A    -11.520174     9A    -11.518811
      10A    -11.351556    11A     -1.771971    12A     -1.766105
      13A     -1.667497    14A     -1.663522    15A     -1.662708
      16A     -1.660707    17A     -1.440377    18A     -1.103499
      19A     -1.001406    20A     -0.945062    21A     -0.870811
      22A     -0.868775    23A     -0.859265    24A     -0.852282
      25A     -0.839615    26A     -0.821667    27A     -0.748557
      28A     -0.734400    29A     -0.731950    30A     -0.725961
      31A     -0.696087    32A     -0.692044    33A     -0.690399
      34A     -0.681424    35A     -0.677231    36A     -0.668484
      37A     -0.664059    38A     -0.658333    39A     -0.625125
      40A     -0.553467    41A     -0.510217

  @DF-RHF Final Energy:  -786.58910984041552

   => Energetics <=

    Nuclear Repulsion Energy =            671.2764179177178221
    One-Electron Energy =               -2429.7472891709076066
    Two-Electron Energy =                 971.8817614127747220
    DFT Exchange-Correlation Energy =       0.0000000000000000
    Empirical Dispersion Energy =           0.0000000000000000
    PCM Polarization Energy =               0.0000000000000000
    EFP Energy =                            0.0000000000000000
    Total Energy =                       -786.5891098404149488
    Molecular point group: c1
  Basis Set: CC-PVTZ
  Basis Set:

  -Total Gradient:
     Atom            X                  Y                   Z
    ------   -----------------  -----------------  -----------------
       1       -0.000002807938    -0.000003326658    -0.000006169627
       2       -0.000016942874    -0.000030388899    -0.000028525770
       3       -0.001051373676     0.002191947681     0.000394099255
       4        0.000028242236    -0.001275279622    -0.001806704534
       5       -0.000031905425     0.000030452745    -0.000056425133
       6        0.000928637307    -0.001643231713     0.000086933178
       7        0.000074368869     0.000805007193     0.001378610633
       8        0.000050093969    -0.000074578779     0.000000129397
       9        0.000063220340    -0.000008536532     0.000022791746
      10        0.000019638348    -0.000025071062     0.000038763933
      11       -0.000046317720     0.000070535143     0.000020384548
      12       -0.000014853429    -0.000037529490    -0.000043887620

  **** Optimization is complete! (in 6 steps) ****
    Final optimized geometry and variables:
    Molecular point group: c1

    Geometry (in Angstrom), charge = 0, multiplicity = 1:

    H            0.038365706714     1.987603432687     0.791810735515
    O            0.000979001881     1.897184914875    -0.146484939064
    C           -0.002828009379     0.572169516356    -0.518589524365
    C           -1.282479635946    -0.131037512099    -0.058914391404
    C            1.279407773803    -0.112978463545    -0.040209269856
    H            0.008321710475     0.521934685469    -1.597532036048
    F           -2.323732155970     0.594212036635    -0.381140710480
    F           -1.415418304831    -1.306133130838    -0.621453674254
    F           -1.305179624668    -0.296278886804     1.246871933129
    F            2.309109480539     0.401828353816    -0.666504424694
    F            1.268999053390    -1.401926239149    -0.270425202298
    F            1.466647200948     0.070644047759     1.248888215490

  Mulliken Charges: (a.u.)
   Center  Symbol    Alpha    Beta     Spin     Total
       1     H     0.38180  0.38180  0.00000  0.23640
       2     O     4.18841  4.18841  0.00000 -0.37683
       3     C     3.00543  3.00543  0.00000 -0.01087
       4     C     2.68528  2.68528  0.00000  0.62945
       5     C     2.68396  2.68396  0.00000  0.63208
       6     H     0.42527  0.42527  0.00000  0.14947
       7     F     4.60097  4.60097  0.00000 -0.20193
       8     F     4.60377  4.60377  0.00000 -0.20754
       9     F     4.60969  4.60969  0.00000 -0.21937
      10     F     4.60249  4.60249  0.00000 -0.20497
      11     F     4.60249  4.60249  0.00000 -0.20497
      12     F     4.61046  4.61046  0.00000 -0.22091

   Total alpha = 41.00000, Total beta = 41.00000, Total charge = -0.00000
