                              Psi4 1.0.54 Driver

  ==> Input File <==

--------------------------------------------------------------------------
set {
	reference rhf
	basis cc-pvtz
}

set_num_threads( 4 )
memory 2 gb

molecule MOL {
0 1

H	 -1.088256	 -1.364742	 0.152233
O	 -1.432053	 -0.565244	 -0.200812
C	 -0.727158	 0.534527	 0.310686
C	 0.680222	 0.664433	 -0.252229
H	 -1.306802	 1.408001	 0.044211
H	 -0.690821	 0.490158	 1.397609
C	 1.250412	 -0.640782	 -0.799352
H	 0.672537	 1.417149	 -1.033632
H	 1.324718	 1.036231	 0.539630
H	 0.665486	 -1.012168	 -1.633653
H	 2.263697	 -0.502118	 -1.156533
H	 1.273455	 -1.411272	 -0.034649

	symmetry c1
}
set optking {
	frozen_dihedral = ("
		8 4 3 2
	")
}

ee,wfn = optimize('scf', return_wfn=True)
oeprop( wfn, 'DIPOLE', 'QUADRUPOLE', 'MULLIKEN_CHARGES')
f=open( 'psi4out.xyz', 'w' )
f.write( "12  " )
f.write( str(ee) + "\n" )
f.write( MOL.save_string_xyz() )
f.close()
--------------------------------------------------------------------------

    Molecular point group: c1
  Charge       = 0
  Multiplicity = 1
  Basis Set: CC-PVTZ
  Basis Set:
  @DF-RHF Final Energy:  -193.18375262080207
    Total Energy =                       -193.1837526208021245
    Molecular point group: c1
  Basis Set: CC-PVTZ
  Basis Set:
  Basis Set: CC-PVTZ
  Basis Set:
  @DF-RHF Final Energy:  -193.18436805022131
    Total Energy =                       -193.1843680502212237
  Basis Set: CC-PVTZ
  Basis Set:
  Basis Set: CC-PVTZ
  Basis Set:
  @DF-RHF Final Energy:  -193.18470257173200
    Total Energy =                       -193.1847025717319184
  Basis Set: CC-PVTZ
  Basis Set:
  Basis Set: CC-PVTZ
  Basis Set:
  @DF-RHF Final Energy:  -193.18470910715382
    Total Energy =                       -193.1847091071537648
  Basis Set: CC-PVTZ
  Basis Set:
  Basis Set: CC-PVTZ
  Basis Set:
  @DF-RHF Final Energy:  -193.18471099446649
    Total Energy =                       -193.1847109944663146
  Basis Set: CC-PVTZ
  Basis Set:
  Charge       = 0
  Multiplicity = 1
  Basis Set: CC-PVTZ
  Basis Set:

    Orbital Energies (a.u.)
    -----------------------

    Doubly Occupied:

       1A    -20.545540     2A    -11.266550     3A    -11.217422
       4A    -11.213202     5A     -1.364045     6A     -1.047321
       7A     -0.929456     8A     -0.808303     9A     -0.694976
      10A     -0.632654    11A     -0.617518    12A     -0.583607
      13A     -0.530608    14A     -0.512905    15A     -0.501006
      16A     -0.459285    17A     -0.431142

  @DF-RHF Final Energy:  -193.18471120034232

   => Energetics <=

    Nuclear Repulsion Energy =            133.4961758431493593
    One-Electron Energy =                -526.6506940993558601
    Two-Electron Energy =                 199.9698070558642371
    DFT Exchange-Correlation Energy =       0.0000000000000000
    Empirical Dispersion Energy =           0.0000000000000000
    PCM Polarization Energy =               0.0000000000000000
    EFP Energy =                            0.0000000000000000
    Total Energy =                       -193.1847112003422922
    Molecular point group: c1
  Basis Set: CC-PVTZ
  Basis Set:

  -Total Gradient:
     Atom            X                  Y                   Z
    ------   -----------------  -----------------  -----------------
       1       -0.000011004328    -0.000024087875    -0.000005271184
       2        0.001604968816    -0.002763694428     0.003369122709
       3       -0.001893067907     0.004770088760    -0.003711069319
       4       -0.000949916226    -0.005946495973    -0.003657840757
       5        0.000011001399     0.000019431334     0.000009326462
       6        0.000004287357    -0.000008712468    -0.000007463208
       7        0.000004473661    -0.000000935524    -0.000004198933
       8        0.001224142976     0.003948923101     0.003998483621
       9        0.000012607511     0.000005557817     0.000007484626
      10        0.000005373100     0.000005831395     0.000003059901
      11       -0.000007646596    -0.000008338400    -0.000000396955
      12       -0.000005219765     0.000002432260    -0.000001236963

  **** Optimization is complete! (in 6 steps) ****
    Final optimized geometry and variables:
    Molecular point group: c1

    Geometry (in Angstrom), charge = 0, multiplicity = 1:

    H           -1.040535928471    -1.322513769016     0.322021193970
    O           -1.392495471734    -0.506709018171     0.018929330079
    C           -0.647847783865     0.562345998765     0.538470611749
    C            0.778650217486     0.689985114150    -0.028232115374
    H           -1.214115637379     1.456745771176     0.322802260589
    H           -0.597547484341     0.470621105331     1.620560300591
    C            1.388000185363    -0.605110015055    -0.551462347771
    H            0.803012797421     1.458171005263    -0.793691123644
    H            1.409905572282     1.076538432469     0.767326737119
    H            0.822745587546    -1.001553238527    -1.384216915141
    H            2.404135758184    -0.434966719756    -0.886010497647
    H            1.428190391639    -1.367553491601     0.221631175391

  Mulliken Charges: (a.u.)
   Center  Symbol    Alpha    Beta     Spin     Total
       1     H     0.39059  0.39059  0.00000  0.21881
       2     O     4.20388  4.20388  0.00000 -0.40776
       3     C     2.97586  2.97586  0.00000  0.04828
       4     C     3.08891  3.08891  0.00000 -0.17783
       5     H     0.45273  0.45273  0.00000  0.09453
       6     H     0.46967  0.46967  0.00000  0.06065
       7     C     3.15772  3.15772  0.00000 -0.31543
       8     H     0.45259  0.45259  0.00000  0.09482
       9     H     0.45681  0.45681  0.00000  0.08638
      10     H     0.44377  0.44377  0.00000  0.11246
      11     H     0.44673  0.44673  0.00000  0.10654
      12     H     0.46073  0.46073  0.00000  0.07854

   Total alpha = 17.00000, Total beta = 17.00000, Total charge = -0.00000

*** Psi4 exiting successfully. Buy a developer a beer!
