  ==> Input File <==

--------------------------------------------------------------------------
set {
	reference rhf
	basis 6-31G*
}

set_num_threads( 1 )
memory 2 gb

molecule MOL {
0 1

O	 -0.682937	 1.318834	 -0.186099
C	 -0.860635	 0.152188	 -0.042321
C	 -2.173363	 -0.477127	 0.338347
O	 0.083258	 -0.765189	 -0.202595
H	 -2.477673	 -1.180929	 -0.427595
H	 -2.923125	 0.290956	 0.455536
H	 -2.058825	 -1.029004	 1.264191
C	 -0.260069	 -2.134069	 0.000114
C	 -0.879705	 -2.742500	 -1.244277
H	 -0.924462	 -2.211585	 0.847294
H	 0.676692	 -2.615523	 0.241319
H	 -1.059687	 -3.801220	 -1.084750
H	 -1.825009	 -2.268104	 -1.476046
H	 -0.214086	 -2.634270	 -2.093778

	symmetry c1
}
set optking {
	frozen_dihedral = ("
		10 8 4 2
	")
}

ee = energy('scf')
oeprop('DIPOLE', 'QUADRUPOLE', 'MULLIKEN_CHARGES')
f=open( 'psi4out.xyz', 'w' )
f.write( "14  " )
f.write( str(ee) + "\n" )
f.write( MOL.save_string_xyz() )
f.close()
--------------------------------------------------------------------------

    Molecular point group: c1

    Geometry (in Angstrom), charge = 0, multiplicity = 1:

       Center              X                  Y                   Z               Mass
    ------------   -----------------  -----------------  -----------------  -----------------
           O          0.118492471898     2.103970368469     0.039748182660    15.994914619560
           C         -0.059205528102     0.937324368469     0.183526182660    12.000000000000
           C         -1.371933528102     0.308009368469     0.564194182660    12.000000000000
           O          0.884687471898     0.019947368469     0.023252182660    15.994914619560
           H         -1.676243528102    -0.395792631531    -0.201747817340     1.007825032070
           H         -2.121695528102     1.076092368469     0.681383182660     1.007825032070
           H         -1.257395528102    -0.243867631531     1.490038182660     1.007825032070
           C          0.541360471898    -1.348932631531     0.225961182660    12.000000000000
           C         -0.078275528102    -1.957363631531    -1.018429817340    12.000000000000
           H         -0.123032528102    -1.426448631531     1.073141182660     1.007825032070
           H          1.478121471898    -1.830386631531     0.467166182660     1.007825032070
           H         -0.258257528102    -3.016083631531    -0.858902817340     1.007825032070
           H         -1.023579528102    -1.482967631531    -1.250198817340     1.007825032070
           H          0.587343471898    -1.849133631531    -1.867930817340     1.007825032070

  Charge       = 0
  Multiplicity = 1
  Basis Set: 6-31G*
  Basis Set:

    Orbital Energies (a.u.)
    -----------------------

    Doubly Occupied:

       1A    -20.606373     2A    -20.542042     3A    -11.377411
       4A    -11.302000     5A    -11.237367     6A    -11.236950
       7A     -1.466947     8A     -1.368218     9A     -1.056398
      10A     -1.025924    11A     -0.902311    12A     -0.776167
      13A     -0.707797    14A     -0.697044    15A     -0.665501
      16A     -0.629304    17A     -0.599698    18A     -0.580676
      19A     -0.558957    20A     -0.542530    21A     -0.531237
      22A     -0.504344    23A     -0.446470    24A     -0.432684

  @DF-RHF Final Energy:  -305.83984435112654

   => Energetics <=

    Nuclear Repulsion Energy =            252.4520114404186586
    One-Electron Energy =                -916.9949941520690118
    Two-Electron Energy =                 358.7031383605245196
    DFT Exchange-Correlation Energy =       0.0000000000000000
    Empirical Dispersion Energy =           0.0000000000000000
    PCM Polarization Energy =               0.0000000000000000
    EFP Energy =                            0.0000000000000000
    Total Energy =                       -305.8398443511258051

  Mulliken Charges: (a.u.)
   Center  Symbol    Alpha    Beta     Spin     Total
       1     O     4.27249  4.27249  0.00000 -0.54498
       2     C     2.60330  2.60330  0.00000  0.79340
       3     C     3.32385  3.32385  0.00000 -0.64769
       4     O     4.30033  4.30033  0.00000 -0.60066
       5     H     0.40383  0.40383  0.00000  0.19235
       6     H     0.38806  0.38806  0.00000  0.22388
       7     H     0.39971  0.39971  0.00000  0.20059
       8     C     3.01385  3.01385  0.00000 -0.02771
       9     C     3.25402  3.25402  0.00000 -0.50805
      10     H     0.41478  0.41478  0.00000  0.17043
      11     H     0.39690  0.39690  0.00000  0.20619
      12     H     0.41364  0.41364  0.00000  0.17272
      13     H     0.41301  0.41301  0.00000  0.17398
      14     H     0.40222  0.40222  0.00000  0.19555

   Total alpha = 24.00000, Total beta = 24.00000, Total charge =  0.00000
