                              Psi4 1.0.54 Driver

  ==> Input File <==

--------------------------------------------------------------------------
set {
	reference rhf
	basis cc-pvtz
}

set_num_threads( 4 )
memory 2 gb

molecule MOL {
0 1

H	 2.687161	 -1.597140	 0.887019
O	 3.386771	 -1.514187	 0.266137
C	 3.088248	 -2.234026	 -0.900906
C	 2.009447	 -1.584590	 -1.754784
H	 4.011980	 -2.284183	 -1.461426
H	 2.805056	 -3.255596	 -0.654639
C	 0.632289	 -1.537624	 -1.096698
H	 2.328538	 -0.577923	 -2.007690
H	 1.943389	 -2.138729	 -2.688039
C	 -0.431388	 -0.909196	 -1.995867
H	 0.697059	 -0.979024	 -0.168919
H	 0.324558	 -2.548063	 -0.832875
C	 -1.846837	 -0.903228	 -1.415588
H	 -0.138217	 0.109668	 -2.237100
H	 -0.449207	 -1.449240	 -2.938471
C	 -2.041121	 -0.006551	 -0.194127
H	 -2.532862	 -0.580139	 -2.193734
H	 -2.135335	 -1.921323	 -1.163784
C	 -3.489218	 0.042606	 0.286507
H	 -1.709821	 1.001519	 -0.433925
H	 -1.412543	 -0.347029	 0.623166
C	 -4.219984	 1.311773	 -0.139038
H	 -4.022855	 -0.824300	 -0.093339
H	 -3.510372	 -0.038577	 1.370031
H	 -4.244251	 1.405725	 -1.219696
H	 -5.244345	 1.313233	 0.215630
H	 -3.732090	 2.196311	 0.257073

	symmetry c1
}
set optking {
	frozen_dihedral = ("
		20 16 19 22
	")
}

ee,wfn = optimize('scf', return_wfn=True)
oeprop( wfn, 'DIPOLE', 'QUADRUPOLE', 'MULLIKEN_CHARGES')
f=open( 'psi4out.xyz', 'w' )
f.write( "27  " )
f.write( str(ee) + "\n" )
f.write( MOL.save_string_xyz() )
f.close()
--------------------------------------------------------------------------

    Molecular point group: c1
  Charge       = 0
  Multiplicity = 1
  Basis Set: CC-PVTZ
  Basis Set:
  @DF-RHF Final Energy:  -388.42292425187100
    Total Energy =                       -388.4229242518711089
    Molecular point group: c1
  Basis Set: CC-PVTZ
  Basis Set:
  Basis Set: CC-PVTZ
  Basis Set:
  @DF-RHF Final Energy:  -388.42318122496187
    Total Energy =                       -388.4231812249620361
  Basis Set: CC-PVTZ
  Basis Set:
  Basis Set: CC-PVTZ
  Basis Set:
  @DF-RHF Final Energy:  -388.42326635443607
    Total Energy =                       -388.4232663544363504
  Basis Set: CC-PVTZ
  Basis Set:
  Basis Set: CC-PVTZ
  Basis Set:
  @DF-RHF Final Energy:  -388.42325202093707
    Total Energy =                       -388.4232520209369568
  Basis Set: CC-PVTZ
  Basis Set:
  Basis Set: CC-PVTZ
  Basis Set:
  @DF-RHF Final Energy:  -388.42327456792424
    Total Energy =                       -388.4232745679245227
  Basis Set: CC-PVTZ
  Basis Set:
  Charge       = 0
  Multiplicity = 1
  Basis Set: CC-PVTZ
  Basis Set:

    Orbital Energies (a.u.)
    -----------------------

    Doubly Occupied:

       1A    -20.545332     2A    -11.264966     3A    -11.216748
       4A    -11.214482     5A    -11.213735     6A    -11.213435
       7A    -11.213222     8A    -11.211792     9A    -11.207562
      10A     -1.363232    11A     -1.095639    12A     -1.061313
      13A     -1.011335    14A     -0.948297    15A     -0.890165
      16A     -0.823884    17A     -0.800560    18A     -0.776474
      19A     -0.696242    20A     -0.648326    21A     -0.634502
      22A     -0.616905    23A     -0.605088    24A     -0.591465
      25A     -0.579486    26A     -0.555027    27A     -0.539505
      28A     -0.528209    29A     -0.510810    30A     -0.491984
      31A     -0.485582    32A     -0.476038    33A     -0.469742
      34A     -0.460303    35A     -0.449849    36A     -0.440290
      37A     -0.425542

  @DF-RHF Final Energy:  -388.42327461674591

   => Energetics <=

    Nuclear Repulsion Energy =            460.7280249127110778
    One-Electron Energy =               -1439.7484656490871657
    Two-Electron Energy =                 590.5971661196300602
    DFT Exchange-Correlation Energy =       0.0000000000000000
    Empirical Dispersion Energy =           0.0000000000000000
    PCM Polarization Energy =               0.0000000000000000
    EFP Energy =                            0.0000000000000000
    Total Energy =                       -388.4232746167459709
    Molecular point group: c1
  Basis Set: CC-PVTZ
  Basis Set:

  -Total Gradient:
     Atom            X                  Y                   Z
    ------   -----------------  -----------------  -----------------
       1        0.000003669061    -0.000001185847    -0.000000096350
       2        0.000002416269     0.000001619646    -0.000002675909
       3       -0.000008145511    -0.000010682144     0.000003010366
       4       -0.000001922215     0.000000019773    -0.000006930704
       5       -0.000001374689     0.000000567605    -0.000000131064
       6        0.000001971272    -0.000002764385     0.000002133458
       7        0.000000970612     0.000010318848     0.000005388457
       8       -0.000003061613     0.000001131599     0.000004087002
       9        0.000002317918     0.000002674618    -0.000004654500
      10        0.000009510086    -0.000003210516    -0.000003730057
      11       -0.000003614138     0.000003527948    -0.000002880311
      12        0.000001961542     0.000005382835     0.000001268589
      13       -0.000005288898    -0.000003315811     0.000013702902
      14        0.000000981715    -0.000000748363     0.000004387546
      15        0.000002426304     0.000000227120    -0.000003236435
      16        0.001405742591     0.000867621255     0.004435571469
      17        0.000002631941    -0.000000600733    -0.000001698890
      18       -0.000003134759    -0.000003367682     0.000000515400
      19       -0.001131046993    -0.001528534678    -0.003415009271
      20       -0.000931396724    -0.000373871383    -0.002992081610
      21       -0.000009482306     0.000001402885     0.000006749308
      22        0.000662868790     0.001034089905     0.001950400560
      23        0.000000850072     0.000000816345    -0.000004093220
      24        0.000006004507    -0.000002632124     0.000008633910
      25        0.000002824339     0.000003541520    -0.000005066943
      26       -0.000008710286    -0.000003094066    -0.000000887329
      27        0.000000031124     0.000001065826     0.000007323624

  **** Optimization is complete! (in 6 steps) ****
    Final optimized geometry and variables:
    Molecular point group: c1

    Geometry (in Angstrom), charge = 0, multiplicity = 1:

    H            2.973180573500    -0.781052228229     1.627206018483
    O            3.669789575028    -0.698835092022     1.003063590760
    C            3.364680696583    -1.417406229640    -0.162993390372
    C            2.282217142400    -0.766374077046    -1.010876652660
    H            4.285519526769    -1.468063044601    -0.728185928926
    H            3.081750556957    -2.438837387099     0.084000350933
    C            0.909362289744    -0.714811201928    -0.344356446913
    H            2.602357219085     0.239068213043    -1.267073270281
    H            2.208923513088    -1.321534378512    -1.942957344641
    C           -0.160077924339    -0.091854861527    -1.240521530079
    H            0.979817546547    -0.150471563287     0.579549749832
    H            0.603275380186    -1.723499548822    -0.072327998845
    C           -1.573070258606    -0.093480665461    -0.655467325599
    H            0.127279959381     0.928567289829    -1.482217774970
    H           -0.177838488212    -0.631725068948    -2.183265534915
    C           -1.764012303421     0.785999165142     0.582606948670
    H           -2.261857754197     0.240836315398    -1.426710828583
    H           -1.862048986595    -1.114391614660    -0.416710119458
    C           -3.234979845169     0.877092159271     1.028345467250
    H           -1.398520675152     1.781320875972     0.344531332464
    H           -1.154882337984     0.411577592831     1.396140977808
    C           -3.927851597310     2.160492530567     0.578048259213
    H           -3.782789347694     0.016812679741     0.656821310302
    H           -3.291577803728     0.822015119007     2.110553928239
    H           -3.895316774225     2.271565209836    -0.501177518966
    H           -4.969554374129     2.171512166646     0.878374801159
    H           -3.447509882138     3.030352381322     1.012521941964

  Mulliken Charges: (a.u.)
   Center  Symbol    Alpha    Beta     Spin     Total
       1     H     0.39232  0.39232  0.00000  0.21537
       2     O     4.20553  4.20553  0.00000 -0.41105
       3     C     2.97994  2.97994  0.00000  0.04013
       4     C     3.08930  3.08930  0.00000 -0.17859
       5     H     0.44857  0.44857  0.00000  0.10286
       6     H     0.46973  0.46973  0.00000  0.06055
       7     C     3.10283  3.10283  0.00000 -0.20566
       8     H     0.45078  0.45078  0.00000  0.09844
       9     H     0.45527  0.45527  0.00000  0.08946
      10     C     3.09859  3.09859  0.00000 -0.19719
      11     H     0.45588  0.45588  0.00000  0.08824
      12     H     0.45361  0.45361  0.00000  0.09278
      13     C     3.09854  3.09854  0.00000 -0.19709
      14     H     0.45140  0.45140  0.00000  0.09720
      15     H     0.44816  0.44816  0.00000  0.10368
      16     C     3.09826  3.09826  0.00000 -0.19652
      17     H     0.44688  0.44688  0.00000  0.10624
      18     H     0.45356  0.45356  0.00000  0.09287
      19     C     3.08966  3.08966  0.00000 -0.17932
      20     H     0.45466  0.45466  0.00000  0.09068
      21     H     0.44692  0.44692  0.00000  0.10616
      22     C     3.14726  3.14726  0.00000 -0.29453
      23     H     0.45435  0.45435  0.00000  0.09130
      24     H     0.44917  0.44917  0.00000  0.10166
      25     H     0.45543  0.45543  0.00000  0.08915
      26     H     0.44897  0.44897  0.00000  0.10207
      27     H     0.45444  0.45444  0.00000  0.09111

   Total alpha = 37.00000, Total beta = 37.00000, Total charge =  0.00000

*** Psi4 exiting successfully. Buy a developer a beer!
