  ==> Input File <==

--------------------------------------------------------------------------
set {
	reference rhf
	basis 6-31G*
}

set_num_threads( 1 )
memory 2 gb

molecule MOL {
0 1

H	 -2.646374	 -0.642757	 1.268656
C	 -2.083525	 -0.384536	 0.393091
O	 -0.807605	 -0.127164	 0.768327
F	 -2.118945	 -1.383102	 -0.486752
F	 -2.621877	 0.670592	 -0.209486
C	 -0.094747	 -1.146850	 1.372281
C	 0.584215	 -0.549389	 2.597928
Cl	 1.107274	 -1.821510	 0.259989
H	 -0.728712	 -1.953613	 1.696311
F	 1.275281	 -1.470492	 3.235216
F	 -0.342836	 -0.093719	 3.416695
F	 1.385738	 0.439842	 2.286553

	symmetry c1
}
set optking {
	frozen_dihedral = ("
		10 7 6 9,
		9 6 3 2
	")
}

ee = energy('scf')
oeprop('DIPOLE', 'QUADRUPOLE', 'MULLIKEN_CHARGES')
f=open( 'psi4out.xyz', 'w' )
f.write( "12  " )
f.write( str(ee) + "\n" )
f.write( MOL.save_string_xyz() )
f.close()
--------------------------------------------------------------------------

    Molecular point group: c1

    Geometry (in Angstrom), charge = 0, multiplicity = 1:

       Center              X                  Y                   Z               Mass
    ------------   -----------------  -----------------  -----------------  -----------------
           H         -2.413979635445     0.054165583775     0.000427893291     1.007825032070
           C         -1.851130635445     0.312386583775    -0.875137106709    12.000000000000
           O         -0.575210635445     0.569758583775    -0.499901106709    15.994914619560
           F         -1.886550635445    -0.686179416225    -1.754980106709    18.998403224000
           F         -2.389482635445     1.367514583775    -1.477714106709    18.998403224000
           C          0.137647364555    -0.449927416225     0.104052893291    12.000000000000
           C          0.816609364555     0.147533583775     1.329699893291    12.000000000000
          CL          1.339668364555    -1.124587416225    -1.008239106709    34.968852682000
           H         -0.496317635445    -1.256690416225     0.428082893291     1.007825032070
           F          1.507675364555    -0.773569416225     1.966987893291    18.998403224000
           F         -0.110441635445     0.603203583775     2.148466893291    18.998403224000
           F          1.618132364555     1.136764583775     1.018324893291    18.998403224000

  Charge       = 0
  Multiplicity = 1
  Basis Set: 6-31G*
  Basis Set:

    Orbital Energies (a.u.)
    -----------------------

    Doubly Occupied:

       1A   -104.847875     2A    -26.367109     3A    -26.365714
       4A    -26.361844     5A    -26.345914     6A    -26.343319
       7A    -20.649113     8A    -11.533673     9A    -11.491201
      10A    -11.409601    11A    -10.582541    12A     -8.051908
      13A     -8.048315    14A     -8.048232    15A     -1.767111
      16A     -1.713077    17A     -1.663944    18A     -1.661941
      19A     -1.635064    20A     -1.489150    21A     -1.183446
      22A     -1.054087    23A     -0.986009    24A     -0.931502
      25A     -0.860508    26A     -0.855596    27A     -0.844840
      28A     -0.833188    29A     -0.815196    30A     -0.786803
      31A     -0.733859    32A     -0.730297    33A     -0.703849
      34A     -0.692210    35A     -0.685057    36A     -0.679794
      37A     -0.663860    38A     -0.656777    39A     -0.651976
      40A     -0.635034    41A     -0.618272    42A     -0.570983
      43A     -0.519118    44A     -0.479838    45A     -0.472966

  @DF-RHF Final Energy: -1146.30747283108667

   => Energetics <=

    Nuclear Repulsion Energy =            727.8100471174855102
    One-Electron Energy =               -3038.1916607710054450
    Two-Electron Energy =                1164.0741408224348561
    DFT Exchange-Correlation Energy =       0.0000000000000000
    Empirical Dispersion Energy =           0.0000000000000000
    PCM Polarization Energy =               0.0000000000000000
    EFP Energy =                            0.0000000000000000
    Total Energy =                      -1146.3074728310848514

  Mulliken Charges: (a.u.)
   Center  Symbol    Alpha    Beta     Spin     Total
       1     H     0.41993  0.41993  0.00000  0.16014
       2     C     2.56588  2.56588  0.00000  0.86824
       3     O     4.29853  4.29853  0.00000 -0.59707
       4     F     4.68131  4.68131  0.00000 -0.36262
       5     F     4.67444  4.67444  0.00000 -0.34888
       6     C     3.04077  3.04077  0.00000 -0.08155
       7     C     2.43242  2.43242  0.00000  1.13517
       8    CL     8.49366  8.49366  0.00000  0.01268
       9     H     0.37505  0.37505  0.00000  0.24990
      10     F     4.67340  4.67340  0.00000 -0.34681
      11     F     4.67787  4.67787  0.00000 -0.35574
      12     F     4.66673  4.66673  0.00000 -0.33346

   Total alpha = 45.00000, Total beta = 45.00000, Total charge =  0.00000
