                              Psi4 1.0.54 Driver

  ==> Input File <==

--------------------------------------------------------------------------
set {
	reference rhf
	basis cc-pvtz
}

set_num_threads( 4 )
memory 2 gb

molecule MOL {
0 1

H	 2.462485	 -2.216993	 0.000000
O	 2.777472	 -1.330706	 0.000000
C	 1.763288	 -0.447523	 0.000000
C	 1.420919	 0.134074	 -1.212291
C	 1.072145	 -0.113371	 1.144998
H	 1.971304	 -0.139891	 -2.090457
C	 0.391335	 1.044900	 -1.273161
H	 1.314782	 -0.546353	 2.093129
C	 0.044867	 0.804151	 1.046901
H	 0.133790	 1.489257	 -2.214417
C	 -0.317661	 1.396590	 -0.136683
N	 -0.686376	 1.155060	 2.269582
H	 -1.119022	 2.101937	 -0.168742
O	 -0.352736	 0.628545	 3.278809
O	 -1.565835	 1.942782	 2.176083

	symmetry c1
}
set optking {
	frozen_dihedral = ("
		4 3 2 1
	")
}

ee,wfn = optimize('scf', return_wfn=True)
oeprop( wfn, 'DIPOLE', 'QUADRUPOLE', 'MULLIKEN_CHARGES')
f=open( 'psi4out.xyz', 'w' )
f.write( "15  " )
f.write( str(ee) + "\n" )
f.write( MOL.save_string_xyz() )
f.close()
--------------------------------------------------------------------------

    Molecular point group: c1
  Charge       = 0
  Multiplicity = 1
  Basis Set: CC-PVTZ
  Basis Set:
  @DF-RHF Final Energy:  -509.21398285616721
    Total Energy =                       -509.2139828561669219
    Molecular point group: c1
  Basis Set: CC-PVTZ
  Basis Set:
  Basis Set: CC-PVTZ
  Basis Set:
  @DF-RHF Final Energy:  -509.21456383626003
    Total Energy =                       -509.2145638362601403
  Basis Set: CC-PVTZ
  Basis Set:
  Basis Set: CC-PVTZ
  Basis Set:
  @DF-RHF Final Energy:  -509.15873882580860
    Total Energy =                       -509.1587388258085412
  Basis Set: CC-PVTZ
  Basis Set:
  Basis Set: CC-PVTZ
  Basis Set:
  @DF-RHF Final Energy:  -509.20552593502822
    Total Energy =                       -509.2055259350279357
  Basis Set: CC-PVTZ
  Basis Set:
  @DF-RHF Final Energy:  -509.21428829179092
    Total Energy =                       -509.2142882917906945
  Basis Set: CC-PVTZ
  Basis Set:
  @DF-RHF Final Energy:  -509.21468137518156
    Total Energy =                       -509.2146813751814989
  Basis Set: CC-PVTZ
  Basis Set:
  Basis Set: CC-PVTZ
  Basis Set:
  @DF-RHF Final Energy:  -509.21477568917504
    Total Energy =                       -509.2147756891749850
  Basis Set: CC-PVTZ
  Basis Set:
  Basis Set: CC-PVTZ
  Basis Set:
  @DF-RHF Final Energy:  -509.21479476935315
    Total Energy =                       -509.2147947693528067
  Basis Set: CC-PVTZ
  Basis Set:
  Charge       = 0
  Multiplicity = 1
  Basis Set: CC-PVTZ
  Basis Set:

    Orbital Energies (a.u.)
    -----------------------

    Doubly Occupied:

       1A    -20.594462     2A    -20.593956     3A    -20.593889
       4A    -15.850009     5A    -11.319024     6A    -11.307351
       7A    -11.264738     8A    -11.264128     9A    -11.262743
      10A    -11.260858    11A     -1.643510    12A     -1.425964
      13A     -1.423388    14A     -1.203106    15A     -1.095319
      16A     -1.048501    17A     -0.965137    18A     -0.871236
      19A     -0.835666    20A     -0.796876    21A     -0.743537
      22A     -0.742073    23A     -0.725986    24A     -0.711477
      25A     -0.684352    26A     -0.644891    27A     -0.628390
      28A     -0.570197    29A     -0.557178    30A     -0.534164
      31A     -0.515963    32A     -0.494239    33A     -0.488007
      34A     -0.459550    35A     -0.380163    36A     -0.361304

  @DF-RHF Final Energy:  -509.21479571194175

   => Energetics <=

    Nuclear Repulsion Energy =            504.0286563871944736
    One-Electron Energy =               -1694.7642369062907619
    Two-Electron Energy =                 681.5207848071547687
    DFT Exchange-Correlation Energy =       0.0000000000000000
    Empirical Dispersion Energy =           0.0000000000000000
    PCM Polarization Energy =               0.0000000000000000
    EFP Energy =                            0.0000000000000000
    Total Energy =                       -509.2147957119416333
    Molecular point group: c1
  Basis Set: CC-PVTZ
  Basis Set:

  -Total Gradient:
     Atom            X                  Y                   Z
    ------   -----------------  -----------------  -----------------
       1        0.000326867736    -0.000023086803    -0.000816202127
       2       -0.000565729910    -0.000252510049     0.000901647180
       3        0.000501446739     0.000836663228     0.000289154044
       4       -0.000389803986    -0.000411811111    -0.000337092885
       5        0.000082062798    -0.000076458630    -0.000055852768
       6        0.000045924029    -0.000008708309    -0.000039573260
       7        0.000051194550    -0.000105888430    -0.000026344789
       8       -0.000018459715    -0.000016073922     0.000057933617
       9       -0.000029107407     0.000053215167    -0.000085836400
      10        0.000010282087     0.000014170695    -0.000040087914
      11        0.000051297218    -0.000006137243     0.000126889628
      12        0.000059349674    -0.000169347857     0.000041420238
      13       -0.000029954785     0.000024173469    -0.000018480061
      14        0.000003403358     0.000000793665     0.000058291827
      15       -0.000098772386     0.000141006127    -0.000055866330

  **** Optimization is complete! (in 9 steps) ****
    Final optimized geometry and variables:
    Molecular point group: c1

    Geometry (in Angstrom), charge = 0, multiplicity = 1:

    H            2.134829692082    -2.763007507568     0.041668724655
    O            2.434300117252    -1.878802593773     0.164986420498
    C            1.504130649497    -0.983672712956    -0.271051307471
    C            1.652304386788    -0.392521247237    -1.512067737365
    C            0.444851920519    -0.636710737260     0.541158472133
    H            2.489682217696    -0.669871313615    -2.121966049644
    C            0.738489515518     0.547467333914    -1.946625669397
    H            0.329779707182    -1.077470472096     1.508116545329
    C           -0.454502868813     0.300305445838     0.079243248743
    H            0.860097304370     1.003865704344    -2.909159026448
    C           -0.332250447241     0.905092272221    -1.151564349236
    N           -1.583784547171     0.667123231565     0.939313649150
    H           -1.049816317694     1.629865699119    -1.470023875094
    O           -1.676457807846     0.120323992437     1.987011124044
    O           -2.337111832966     1.487767700143     0.534338634872

  Mulliken Charges: (a.u.)
   Center  Symbol    Alpha    Beta     Spin     Total
       1     H     0.38556  0.38556  0.00000  0.22889
       2     O     4.18607  4.18607  0.00000 -0.37215
       3     C     2.86547  2.86547  0.00000  0.26905
       4     C     3.09645  3.09645  0.00000 -0.19290
       5     C     3.11419  3.11419  0.00000 -0.22838
       6     H     0.41072  0.41072  0.00000  0.17855
       7     C     3.06638  3.06638  0.00000 -0.13276
       8     H     0.39251  0.39251  0.00000  0.21499
       9     C     2.98055  2.98055  0.00000  0.03890
      10     H     0.41513  0.41513  0.00000  0.16974
      11     C     3.08571  3.08571  0.00000 -0.17142
      12     N     3.25019  3.25019  0.00000  0.49963
      13     H     0.39868  0.39868  0.00000  0.20263
      14     O     4.17613  4.17613  0.00000 -0.35225
      15     O     4.17626  4.17626  0.00000 -0.35253

   Total alpha = 36.00000, Total beta = 36.00000, Total charge =  0.00000

*** Psi4 exiting successfully. Buy a developer a beer!
