  ==> Input File <==

--------------------------------------------------------------------------
set {
	reference rhf
	basis 6-31G*
}

set_num_threads( 4 )
memory 2 gb

molecule MOL {
0 1

H	 -2.499100	 -0.730091	 -0.745082
O	 -2.347518	 -0.290803	 0.079804
C	 -1.184022	 0.487508	 -0.006784
C	 0.062599	 -0.378592	 0.031606
H	 -1.176523	 1.099369	 -0.904519
H	 -1.187323	 1.153111	 0.844927
O	 1.171513	 0.459272	 -0.058250
H	 0.050699	 -1.089204	 -0.797170
H	 0.078739	 -0.954914	 0.954740
C	 0.918687	 1.788760	 0.269903
H	 0.570753	 1.885918	 1.296612
H	 1.845862	 2.334123	 0.161141
H	 0.172366	 2.225765	 -0.390266

	symmetry c1
}
set optking {
	frozen_dihedral = ("
		10 7 4 8
	")
}

ee = optimize('scf')
oeprop('DIPOLE', 'QUADRUPOLE', 'MULLIKEN_CHARGES')
f=open( 'psi4out.xyz', 'w' )
f.write( "13  " )
f.write( str(ee) + "\n" )
f.write( MOL.save_string_xyz() )
f.close()
--------------------------------------------------------------------------

    Molecular point group: c1
  Charge       = 0
  Multiplicity = 1
  Basis Set: 6-31G*
  Basis Set:
  @DF-RHF Final Energy:  -267.92491268933327
    Total Energy =                       -267.9249126893331550
    Molecular point group: c1
  Basis Set: 6-31G*
  Basis Set:
  Basis Set: 6-31G*
  Basis Set:
  @DF-RHF Final Energy:  -267.92730871294464
    Total Energy =                       -267.9273087129446367
  Basis Set: 6-31G*
  Basis Set:
  Basis Set: 6-31G*
  Basis Set:
  @DF-RHF Final Energy:  -267.93514000715754
    Total Energy =                       -267.9351400071575995
  Basis Set: 6-31G*
  Basis Set:
  Basis Set: 6-31G*
  Basis Set:
  @DF-RHF Final Energy:  -267.93852408670682
    Total Energy =                       -267.9385240867068774
  Basis Set: 6-31G*
  Basis Set:
  @DF-RHF Final Energy:  -267.93911975377824
    Total Energy =                       -267.9391197537780727
  @DF-RHF Final Energy:  -267.93977806291969
    Total Energy =                       -267.9397780629195154
  Basis Set: 6-31G*
  Basis Set:
  @DF-RHF Final Energy:  -267.93990584928372
    Total Energy =                       -267.9399058492837185
  Basis Set: 6-31G*
  Basis Set:
  Basis Set: 6-31G*
  Basis Set:
  @DF-RHF Final Energy:  -267.93991736068642
    Total Energy =                       -267.9399173606863656
  Basis Set: 6-31G*
  Basis Set:
  Basis Set: 6-31G*
  Basis Set:
  @DF-RHF Final Energy:  -267.93991836138980
    Total Energy =                       -267.9399183613898572
  Basis Set: 6-31G*
  Basis Set:
  Charge       = 0
  Multiplicity = 1
  Basis Set: 6-31G*
  Basis Set:

    Orbital Energies (a.u.)
    -----------------------

    Doubly Occupied:

       1A    -20.566541     2A    -20.556828     3A    -11.277804
       4A    -11.271968     5A    -11.270923     6A     -1.381744
       7A     -1.368952     8A     -1.013529     9A     -0.939662
      10A     -0.828110    11A     -0.714603    12A     -0.675452
      13A     -0.660426    14A     -0.636142    15A     -0.598129
      16A     -0.559111    17A     -0.551431    18A     -0.517172
      19A     -0.486149    20A     -0.433170    21A     -0.409803

  @DF-RHF Final Energy:  -267.93991839320779

   => Energetics <=

    Nuclear Repulsion Energy =            192.7062905099590182
    One-Electron Energy =                -747.8571209386467444
    Two-Electron Energy =                 287.2109120354799643
    DFT Exchange-Correlation Energy =       0.0000000000000000
    Empirical Dispersion Energy =           0.0000000000000000
    PCM Polarization Energy =               0.0000000000000000
    EFP Energy =                            0.0000000000000000
    Total Energy =                       -267.9399183932077904
    Molecular point group: c1
  Basis Set: 6-31G*
  Basis Set:

  -Total Gradient:
     Atom            X                  Y                   Z
    ------   -----------------  -----------------  -----------------
       1       -0.000006103631    -0.000004969102    -0.000000239334
       2       -0.000005573554    -0.000001760970    -0.000021084524
       3       -0.000003654125    -0.000007863487     0.000041885743
       4        0.002425962968    -0.003425241478     0.001111159619
       5        0.000002074526    -0.000004378417    -0.000000405401
       6        0.000002421415     0.000005962249    -0.000003388156
       7        0.000826978359    -0.000667672285     0.005221908216
       8       -0.002350229156     0.003202382767    -0.002494486685
       9        0.000000477576     0.000007409833    -0.000001819879
      10       -0.000896366738     0.000900818685    -0.003847514924
      11        0.000005197647     0.000003408913    -0.000000746749
      12        0.000000151812    -0.000012292317    -0.000002231608
      13       -0.000001337098     0.000004195609    -0.000003036317

  **** Optimization is complete! (in 10 steps) ****
    Final optimized geometry and variables:
    Molecular point group: c1

    Geometry (in Angstrom), charge = 0, multiplicity = 1:

    H           -2.106492825202    -1.378512850284    -0.807229866934
    O           -2.063427233907    -0.887126623468     0.001373631675
    C           -1.017484576821     0.044809787741    -0.065235214543
    C            0.323196842398    -0.689109919802    -0.025331434831
    H           -1.097159556269     0.655693151415    -0.960794828033
    H           -1.142786401899     0.693543695183     0.790052083202
    O            1.478697705105     0.102097279763    -0.102449840974
    H            0.345839245137    -1.345574494766    -0.889848448993
    H            0.352082778212    -1.299207772390     0.872072349484
    C            1.419702910970     1.455536975429     0.229310934968
    H            1.099025106322     1.615497894235     1.256253192961
    H            2.424550295061     1.840311873730     0.123596811181
    H            0.767629076807     2.017975753345    -0.431952941507

  Mulliken Charges: (a.u.)
   Center  Symbol    Alpha    Beta     Spin     Total
       1     H     0.28034  0.28034  0.00000  0.43933
       2     O     4.36989  4.36989  0.00000 -0.73978
       3     C     3.01932  3.01932  0.00000 -0.03864
       4     C     2.98589  2.98589  0.00000  0.02822
       5     H     0.42431  0.42431  0.00000  0.15137
       6     H     0.41186  0.41186  0.00000  0.17628
       7     O     4.31451  4.31451  0.00000 -0.62901
       8     H     0.42736  0.42736  0.00000  0.14528
       9     H     0.41809  0.41809  0.00000  0.16382
      10     C     3.08297  3.08297  0.00000 -0.16594
      11     H     0.42794  0.42794  0.00000  0.14412
      12     H     0.40895  0.40895  0.00000  0.18211
      13     H     0.42857  0.42857  0.00000  0.14286

   Total alpha = 21.00000, Total beta = 21.00000, Total charge =  0.00000
