  ==> Input File <==

--------------------------------------------------------------------------
set {
	reference rhf
	basis cc-pvtz
}

set_num_threads( 4 )
memory 2 gb

molecule MOL {
0 1

O	 -0.294688	 1.318815	 -0.000872
C	 -0.448732	 0.145721	 -0.000187
C	 -1.780748	 -0.548101	 0.000195
O	 0.550743	 -0.719877	 0.000412
H	 -1.859389	 -1.183260	 -0.872613
H	 -2.570236	 0.185547	 -0.001342
H	 -1.860233	 -1.180337	 0.875064
C	 1.569234	 -0.532804	 0.963089
H	 2.045966	 0.427062	 0.831131
H	 2.279819	 -1.327098	 0.802314
H	 1.163883	 -0.590992	 1.962252

	symmetry c1
}
set optking {
	frozen_dihedral = ("
		8 4 2 1
	")
}

ee = optimize('scf')
oeprop('DIPOLE', 'QUADRUPOLE', 'MULLIKEN_CHARGES')
f=open( 'psi4out.xyz', 'w' )
f.write( "11  " )
f.write( str(ee) + "\n" )
f.write( MOL.save_string_xyz() )
f.close()
--------------------------------------------------------------------------

    Molecular point group: c1
  Charge       = 0
  Multiplicity = 1
  Basis Set: CC-PVTZ
  Basis Set:
  @DF-RHF Final Energy:  -266.92752125139458
    Total Energy =                       -266.9275212513946371
    Molecular point group: c1
  Basis Set: CC-PVTZ
  Basis Set:
  Basis Set: CC-PVTZ
  Basis Set:
  @DF-RHF Final Energy:  -266.92498379219080
    Total Energy =                       -266.9249837921911421
  Basis Set: CC-PVTZ
  Basis Set:
  Basis Set: CC-PVTZ
  Basis Set:
  @DF-RHF Final Energy:  -266.92831018694221
    Total Energy =                       -266.9283101869423263
  Basis Set: CC-PVTZ
  Basis Set:
  Basis Set: CC-PVTZ
  Basis Set:
  @DF-RHF Final Energy:  -266.92838137284679
    Total Energy =                       -266.9283813728467862
  Basis Set: CC-PVTZ
  Basis Set:
  @DF-RHF Final Energy:  -266.92839068079581
    Total Energy =                       -266.9283906807958147
  @DF-RHF Final Energy:  -266.92839033422911
    Total Energy =                       -266.9283903342292206
  @DF-RHF Final Energy:  -266.92838953723117
    Total Energy =                       -266.9283895372309416
  @DF-RHF Final Energy:  -266.89028932647432
    Total Energy =                       -266.8902893264742033
  @DF-RHF Final Energy:  -266.89892720704682
    Total Energy =                       -266.8989272070467678
  @DF-RHF Final Energy:  -266.91309675387544
    Total Energy =                       -266.9130967538755499
  @DF-RHF Final Energy:  -266.92626623415640
    Total Energy =                       -266.9262662341565147
  @DF-RHF Final Energy:  -266.92744638145416
    Total Energy =                       -266.9274463814544447
  @DF-RHF Final Energy:  -266.92818129090188
    Total Energy =                       -266.9281812909019891
  @DF-RHF Final Energy:  -266.92826458475247
    Total Energy =                       -266.9282645847526396
  @DF-RHF Final Energy:  -266.92828730475003
    Total Energy =                       -266.9282873047498015
  @DF-RHF Final Energy:  -266.92316608768749
    Total Energy =                       -266.9231660876877186
  @DF-RHF Final Energy:  -266.92823756937031
    Total Energy =                       -266.9282375693701397
  @DF-RHF Final Energy:  -266.92830943286731
    Total Energy =                       -266.9283094328671950
  @DF-RHF Final Energy:  -266.92832179864718
    Total Energy =                       -266.9283217986471755
  @DF-RHF Final Energy:  -266.92833971556951
    Total Energy =                       -266.9283397155693933
  @DF-RHF Final Energy:  -266.92833565796514
    Total Energy =                       -266.9283356579647943
  @DF-RHF Final Energy:  -266.92833897130868
    Total Energy =                       -266.9283389713085626
  @DF-RHF Final Energy:  -266.92833955143487
    Total Energy =                       -266.9283395514348740
  @DF-RHF Final Energy:  -266.92834135048884
    Total Energy =                       -266.9283413504889495
  @DF-RHF Final Energy:  -266.92834250378093
    Total Energy =                       -266.9283425037809820
  @DF-RHF Final Energy:  -266.92834262822225
    Total Energy =                       -266.9283426282222536
  @DF-RHF Final Energy:  -266.92834250183398
    Total Energy =                       -266.9283425018339813
  @DF-RHF Final Energy:  -266.92834183803325
    Total Energy =                       -266.9283418380333046
  @DF-RHF Final Energy:  -266.92493413229522
    Total Energy =                       -266.9249341322952773
  @DF-RHF Final Energy:  -266.92169813803690
    Total Energy =                       -266.9216981380368452
  @DF-RHF Final Energy:  -266.92338661569255
    Total Energy =                       -266.9233866156922659
  @DF-RHF Final Energy:  -266.92702258779661
    Total Energy =                       -266.9270225877966141
  @DF-RHF Final Energy:  -266.92797884852308
    Total Energy =                       -266.9279788485231961
  @DF-RHF Final Energy:  -266.92451647406949
    Total Energy =                       -266.9245164740694918
  @DF-RHF Final Energy:  -266.92813682376561
    Total Energy =                       -266.9281368237657261
  @DF-RHF Final Energy:  -266.92817633405980
    Total Energy =                       -266.9281763340597990
  Basis Set: CC-PVTZ
  Basis Set:
  @DF-RHF Final Energy:  -266.92818198285289
    Total Energy =                       -266.9281819828527205
  Basis Set: CC-PVTZ
  Basis Set:
  Basis Set: CC-PVTZ
  Basis Set:
  @DF-RHF Final Energy:  -266.92817894142740
    Total Energy =                       -266.9281789414272907
  Basis Set: CC-PVTZ
  Basis Set:
  Basis Set: CC-PVTZ
  Basis Set:
  @DF-RHF Final Energy:  -266.88026729535267
    Total Energy =                       -266.8802672953527235
  Basis Set: CC-PVTZ
  Basis Set:
  Charge       = 0
  Multiplicity = 1
  Basis Set: CC-PVTZ
  Basis Set:

    Orbital Energies (a.u.)
    -----------------------

    Doubly Occupied:

       1A    -20.533481     2A    -20.513308     3A    -11.366658
       4A    -11.273332     5A    -11.263769     6A     -1.481773
       7A     -1.298482     8A     -1.051918     9A     -0.954610
      10A     -0.760608    11A     -0.705268    12A     -0.671159
      13A     -0.653311    14A     -0.607887    15A     -0.600172
      16A     -0.550731    17A     -0.528110    18A     -0.501590
      19A     -0.429279    20A     -0.387766

  @DF-RHF Final Energy:  -266.80904762106741

   => Energetics <=

    Nuclear Repulsion Energy =            185.3652787866005269
    One-Electron Energy =                -732.0822264616485882
    Two-Electron Energy =                 279.9079000539805975
    DFT Exchange-Correlation Energy =       0.0000000000000000
    Empirical Dispersion Energy =           0.0000000000000000
    PCM Polarization Energy =               0.0000000000000000
    EFP Energy =                            0.0000000000000000
    Total Energy =                       -266.8090476210674069
    Molecular point group: c1
  Basis Set: CC-PVTZ
  Basis Set:

  -Total Gradient:
     Atom            X                  Y                   Z
    ------   -----------------  -----------------  -----------------
       1        0.108120632114    -0.177167779243     0.011981733037
       2       -0.132376673236     0.003205440446    -0.001594034672
       3        0.048796367001     0.029728588576     0.033269274482
       4       -0.011500785177     0.182009374765    -0.026100472898
       5       -0.018428117044    -0.011197506510     0.007406639618
       6       -0.034401005955    -0.010568574386    -0.026141915436
       7        0.009235573234    -0.014314430362    -0.018333169306
       8        0.116024350467    -0.060028837326    -0.048725402147
       9        0.005505277885     0.019550409253    -0.002838796626
      10       -0.074755620238     0.057183828696     0.042533415616
      11       -0.016219999051    -0.018400513910     0.028542728332

    Molecular point group: c1

    Geometry (in Angstrom), charge = 0, multiplicity = 1:

    O            0.049125997377     1.286035972150    -0.292466426920
    C           -0.496969594978     0.270616811919    -0.332697153706
    C           -1.772100625103    -0.392308404373    -0.122413142860
    O            0.531334042161    -0.563395930356    -0.180932022274
    H           -1.900795773964    -1.328342424813    -0.732640569943
    H           -2.756124690430     0.110626774065    -0.396957874105
    H           -1.652026328976    -1.046542414871     0.863589684010
    C            1.570832408157    -0.523759874231     0.833195682644
    H            1.916188111300     0.524228993970     0.988007606132
    H            2.294486017543    -1.026631109820     0.488781106702
    H            1.199748614647    -1.016881651313     1.800599052858

  Mulliken Charges: (a.u.)
   Center  Symbol    Alpha    Beta     Spin     Total
       1     O     4.17586  4.17586  0.00000 -0.35171
       2     C     2.81306  2.81306  0.00000  0.37387
       3     C     3.14848  3.14848  0.00000 -0.29696
       4     O     4.18427  4.18427  0.00000 -0.36854
       5     H     0.43506  0.43506  0.00000  0.12989
       6     H     0.43533  0.43533  0.00000  0.12934
       7     H     0.43527  0.43527  0.00000  0.12946
       8     C     3.03200  3.03200  0.00000 -0.06400
       9     H     0.44786  0.44786  0.00000  0.10429
      10     H     0.42087  0.42087  0.00000  0.15826
      11     H     0.47194  0.47194  0.00000  0.05611

   Total alpha = 20.00000, Total beta = 20.00000, Total charge =  0.00000
