                              Psi4 1.0.54 Driver

  ==> Input File <==

--------------------------------------------------------------------------
set {
	reference rhf
	basis cc-pvtz
}

set_num_threads( 4 )
memory 2 gb

molecule MOL {
0 1

H	 -0.939693	 0.000281	 1.681345
O	 -0.046262	 -0.000157	 1.387678
C	 -0.000837	 0.000006	 -0.025491
C	 -0.704365	 -1.246041	 -0.559872
C	 -0.665888	 1.267651	 -0.558339
C	 1.479247	 -0.022446	 -0.381912
H	 -0.654272	 -1.292170	 -1.641610
H	 -1.752614	 -1.247475	 -0.276602
H	 -0.244794	 -2.139004	 -0.155059
H	 -0.614330	 1.313564	 -1.640014
H	 -1.713628	 1.300800	 -0.275116
H	 -0.179251	 2.145644	 -0.152412
H	 1.618011	 -0.023877	 -1.456635
H	 1.949991	 -0.906914	 0.028364
H	 1.976865	 0.846653	 0.029500

	symmetry c1
}
set optking {
	frozen_dihedral = ("
		4 3 2 1
	")
}

ee,wfn = optimize('scf', return_wfn=True)
oeprop( wfn, 'DIPOLE', 'QUADRUPOLE', 'MULLIKEN_CHARGES')
f=open( 'psi4out.xyz', 'w' )
f.write( "15  " )
f.write( str(ee) + "\n" )
f.write( MOL.save_string_xyz() )
f.close()
--------------------------------------------------------------------------

    Molecular point group: c1
  Charge       = 0
  Multiplicity = 1
  Basis Set: CC-PVTZ
  Basis Set:
  @DF-RHF Final Energy:  -232.24680289264717
    Total Energy =                       -232.2468028926473380
    Molecular point group: c1
  Basis Set: CC-PVTZ
  Basis Set:
  Charge       = 0
  Multiplicity = 1
  Basis Set: CC-PVTZ
  Basis Set:

    Orbital Energies (a.u.)
    -----------------------

    Doubly Occupied:

       1A    -20.542251     2A    -11.280775     3A    -11.209440
       4A    -11.209137     5A    -11.203887     6A     -1.365002
       7A     -1.065205     8A     -0.942074     9A     -0.940451
      10A     -0.778502    11A     -0.672672    12A     -0.624327
      13A     -0.622795    14A     -0.575954    15A     -0.557598
      16A     -0.532722    17A     -0.517035    18A     -0.511294
      19A     -0.504680    20A     -0.458831    21A     -0.428769

  @DF-RHF Final Energy:  -232.24680295212016

   => Energetics <=

    Nuclear Repulsion Energy =            200.6798904101313497
    One-Electron Energy =                -712.7665826008303611
    Two-Electron Energy =                 279.8398892385787349
    DFT Exchange-Correlation Energy =       0.0000000000000000
    Empirical Dispersion Energy =           0.0000000000000000
    PCM Polarization Energy =               0.0000000000000000
    EFP Energy =                            0.0000000000000000
    Total Energy =                       -232.2468029521203334
    Molecular point group: c1
  Basis Set: CC-PVTZ
  Basis Set:

  -Total Gradient:
     Atom            X                  Y                   Z
    ------   -----------------  -----------------  -----------------
       1       -0.000001236389    -0.000077879046    -0.000002531694
       2       -0.000022468745     0.000123333197     0.000001626420
       3        0.000062001723    -0.000059023294    -0.000018609057
       4       -0.000054106788     0.000024427721    -0.000011060814
       5        0.000007781327    -0.000020734069     0.000030725338
       6        0.000009125395     0.000013293110    -0.000001606774
       7       -0.000004154399     0.000000428202     0.000003972713
       8       -0.000003251322    -0.000002810467     0.000000656647
       9        0.000005785049     0.000004816898     0.000002133868
      10        0.000004689030    -0.000006038072    -0.000002633600
      11       -0.000001848862     0.000000750136    -0.000002235224
      12       -0.000001085759    -0.000003788865    -0.000000113858
      13       -0.000000283863     0.000005878286    -0.000000156411
      14       -0.000011427270    -0.000001033272     0.000000109973
      15        0.000010480871    -0.000001620466    -0.000000277526

  **** Optimization is complete! (in 2 steps) ****
    Final optimized geometry and variables:
    Molecular point group: c1

    Geometry (in Angstrom), charge = 0, multiplicity = 1:

    H           -0.939768136763     0.001192506623     1.681123407934
    O           -0.046328492884     0.000382836333     1.387618145431
    C           -0.000726981479     0.000043266782    -0.025473923862
    C           -0.704476361986    -1.245841988862    -0.559832187434
    C           -0.665837205898     1.267594414302    -0.558366225189
    C            1.479318905542    -0.022277546199    -0.381860999108
    H           -0.654568368093    -1.291758884401    -1.641540829783
    H           -1.752734302470    -1.247100829356    -0.276519381661
    H           -0.244970281379    -2.138975526412    -0.155289037156
    H           -0.614323671061     1.313422477170    -1.640053615238
    H           -1.713478197497     1.300747982149    -0.274914459648
    H           -0.179157003102     2.145547011642    -0.152459408124
    H            1.618089535981    -0.021765131656    -1.456565257677
    H            1.949755015987    -0.907603265964     0.026888017707
    H            1.977170373044     0.845955122555     0.031087704160

  Mulliken Charges: (a.u.)
   Center  Symbol    Alpha    Beta     Spin     Total
       1     H     0.39576  0.39576  0.00000  0.20848
       2     O     4.21097  4.21097  0.00000 -0.42195
       3     C     2.87836  2.87836  0.00000  0.24328
       4     C     3.15037  3.15037  0.00000 -0.30074
       5     C     3.15009  3.15009  0.00000 -0.30018
       6     C     3.14316  3.14316  0.00000 -0.28632
       7     H     0.45545  0.45545  0.00000  0.08911
       8     H     0.45598  0.45598  0.00000  0.08804
       9     H     0.44642  0.44642  0.00000  0.10717
      10     H     0.45561  0.45561  0.00000  0.08878
      11     H     0.45591  0.45591  0.00000  0.08819
      12     H     0.44651  0.44651  0.00000  0.10698
      13     H     0.45872  0.45872  0.00000  0.08256
      14     H     0.44842  0.44842  0.00000  0.10315
      15     H     0.44828  0.44828  0.00000  0.10345

   Total alpha = 21.00000, Total beta = 21.00000, Total charge = -0.00000

*** Psi4 exiting successfully. Buy a developer a beer!
