  ==> Input File <==

--------------------------------------------------------------------------
set {
	reference rhf
	basis 6-31G*
}

set_num_threads( 4 )
memory 2 gb

molecule MOL {
0 1

O	 0.625848	 1.349995	 -0.000749
C	 0.486307	 0.169203	 0.000779
C	 1.608116	 -0.841643	 0.000302
O	 -0.698257	 -0.426125	 0.001050
C	 2.990107	 -0.200498	 -0.000684
H	 1.468623	 -1.481519	 -0.865924
H	 1.469683	 -1.481289	 0.866878
H	 3.129736	 0.423364	 -0.875135
H	 3.757882	 -0.966877	 -0.001197
H	 3.130964	 0.423383	 0.873533
C	 -1.720680	 0.142919	 -0.810270
C	 -2.960904	 -0.708893	 -0.641234
H	 -1.385521	 0.161391	 -1.838332
H	 -1.891346	 1.164108	 -0.497800
H	 -2.771996	 -1.729717	 -0.953307
H	 -3.768880	 -0.308991	 -1.245305
H	 -3.280715	 -0.721532	 0.394535

	symmetry c1
}
set optking {
	frozen_dihedral = ("
		11 4 2 3
	")
}

ee = optimize('scf')
oeprop('DIPOLE', 'QUADRUPOLE', 'MULLIKEN_CHARGES')
f=open( 'psi4out.xyz', 'w' )
f.write( "17  " )
f.write( str(ee) + "\n" )
f.write( MOL.save_string_xyz() )
f.close()
--------------------------------------------------------------------------

    Molecular point group: c1
  Charge       = 0
  Multiplicity = 1
  Basis Set: 6-31G*
  Basis Set:
  @DF-RHF Final Energy:  -344.90378702394366
    Total Energy =                       -344.9037870239437780
    Molecular point group: c1
  Basis Set: 6-31G*
  Basis Set:
  Basis Set: 6-31G*
  Basis Set:
  @DF-RHF Final Energy:  -344.90143946390828
    Total Energy =                       -344.9014394639083321
  Basis Set: 6-31G*
  Basis Set:
  Basis Set: 6-31G*
  Basis Set:
  @DF-RHF Final Energy:  -344.90436617455816
    Total Energy =                       -344.9043661745582199
  Basis Set: 6-31G*
  Basis Set:
  Basis Set: 6-31G*
  Basis Set:
  @DF-RHF Final Energy:  -344.90451404414517
    Total Energy =                       -344.9045140441452872
  Basis Set: 6-31G*
  Basis Set:
  Basis Set: 6-31G*
  Basis Set:
  @DF-RHF Final Energy:  -344.90454701906134
    Total Energy =                       -344.9045470190612832
  Basis Set: 6-31G*
  Basis Set:
  Basis Set: 6-31G*
  Basis Set:
  @DF-RHF Final Energy:  -344.90454886921952
    Total Energy =                       -344.9045488692194112
  Basis Set: 6-31G*
  Basis Set:
  Charge       = 0
  Multiplicity = 1
  Basis Set: 6-31G*
  Basis Set:

    Orbital Energies (a.u.)
    -----------------------

    Doubly Occupied:

       1A    -20.593611     2A    -20.547899     3A    -11.372454
       4A    -11.287938     5A    -11.238907     6A    -11.223086
       7A    -11.216559     8A     -1.463245     9A     -1.362754
      10A     -1.068605    11A     -1.033063    12A     -0.909197
      13A     -0.851875    14A     -0.771265    15A     -0.697840
      16A     -0.683971    17A     -0.663975    18A     -0.630146
      19A     -0.589592    20A     -0.569809    21A     -0.557491
      22A     -0.525796    23A     -0.522079    24A     -0.515261
      25A     -0.503312    26A     -0.493201    27A     -0.451280
      28A     -0.434256

  @DF-RHF Final Energy:  -344.90454904909092

   => Energetics <=

    Nuclear Repulsion Energy =            314.4632495263527403
    One-Electron Energy =               -1093.1786652606965617
    Two-Electron Energy =                 433.8108666852527904
    DFT Exchange-Correlation Energy =       0.0000000000000000
    Empirical Dispersion Energy =           0.0000000000000000
    PCM Polarization Energy =               0.0000000000000000
    EFP Energy =                            0.0000000000000000
    Total Energy =                       -344.9045490490910879
    Molecular point group: c1
  Basis Set: 6-31G*
  Basis Set:

  -Total Gradient:
     Atom            X                  Y                   Z
    ------   -----------------  -----------------  -----------------
       1       -0.000009836586    -0.000031132366     0.000037736644
       2        0.001417690443    -0.001573326576     0.006981532928
       3       -0.000306854613    -0.000599259262    -0.006875908191
       4       -0.002936546054     0.007163643467     0.005444693001
       5       -0.000002767833    -0.000008590102    -0.000005848632
       6        0.000006808943     0.000005113799    -0.000006065495
       7       -0.000001315735     0.000010916212    -0.000005455574
       8       -0.000003755832     0.000001084932    -0.000006047298
       9       -0.000003039775     0.000002588005     0.000003431321
      10        0.000005943078    -0.000000200483     0.000005860752
      11        0.001831606799    -0.004981716471    -0.005561236530
      12        0.000002490261     0.000004780738    -0.000007434970
      13        0.000000945797    -0.000003978036    -0.000000867326
      14       -0.000003902366     0.000012039022    -0.000000968723
      15       -0.000001601339    -0.000003717342    -0.000000087462
      16       -0.000001799274    -0.000001850374    -0.000000608307
      17        0.000005934087     0.000003604835    -0.000002726138

  **** Optimization is complete! (in 7 steps) ****
    Final optimized geometry and variables:
    Molecular point group: c1

    Geometry (in Angstrom), charge = 0, multiplicity = 1:

    O            0.621664233019     1.415600606896    -0.026831224001
    C            0.463506591427     0.255533883639     0.167982816672
    C            1.567616544431    -0.772732850764     0.201607664889
    O           -0.741165261617    -0.308689570881     0.275379918224
    C            2.960169492612    -0.164886200778     0.311027788847
    H            1.461436599055    -1.346328566156    -0.716154592222
    H            1.368638973760    -1.468573896647     1.010075720766
    H            3.153520979844     0.513574718621    -0.510188096010
    H            3.712883988983    -0.945884736970     0.296913414214
    H            3.069643032388     0.394259251153     1.233206268427
    C           -1.786250711829     0.219485207865    -0.535325037279
    C           -2.996550738242    -0.671745707044    -0.356507171454
    H           -1.452995225967     0.231254716723    -1.566451012204
    H           -1.994854928858     1.237468649283    -0.238406337004
    H           -2.772715217612    -1.689535972342    -0.654834942100
    H           -3.818368274636    -0.306639624808    -0.964027564846
    H           -3.313090626616    -0.680616419917     0.680107175565

  Mulliken Charges: (a.u.)
   Center  Symbol    Alpha    Beta     Spin     Total
       1     O     4.27697  4.27697  0.00000 -0.55393
       2     C     2.60534  2.60534  0.00000  0.78933
       3     C     3.20579  3.20579  0.00000 -0.41158
       4     O     4.31797  4.31797  0.00000 -0.63594
       5     C     3.24051  3.24051  0.00000 -0.48102
       6     H     0.40257  0.40257  0.00000  0.19486
       7     H     0.40063  0.40063  0.00000  0.19873
       8     H     0.40715  0.40715  0.00000  0.18570
       9     H     0.41783  0.41783  0.00000  0.16435
      10     H     0.41207  0.41207  0.00000  0.17586
      11     C     3.00228  3.00228  0.00000 -0.00455
      12     C     3.24809  3.24809  0.00000 -0.49617
      13     H     0.41811  0.41811  0.00000  0.16379
      14     H     0.40578  0.40578  0.00000  0.18845
      15     H     0.41268  0.41268  0.00000  0.17464
      16     H     0.41658  0.41658  0.00000  0.16684
      17     H     0.40968  0.40968  0.00000  0.18064

   Total alpha = 28.00000, Total beta = 28.00000, Total charge =  0.00000
