                              Psi4 1.0.54 Driver

  ==> Input File <==

--------------------------------------------------------------------------
set {
	reference rhf
	basis cc-pvtz
}

set_num_threads( 4 )
memory 2 gb

molecule MOL {
0 1

O	 -2.712955	 0.910544	 0.198217
C	 -1.922978	 0.063265	 -0.045005
C	 -2.245913	 -1.242373	 -0.715433
O	 -0.637375	 0.157174	 0.243149
H	 -1.973626	 -2.062677	 -0.063758
H	 -3.299078	 -1.281797	 -0.941100
H	 -1.665619	 -1.338033	 -1.624101
C	 0.162530	 -1.009518	 0.097799
C	 1.587210	 -0.664190	 0.477086
H	 0.096803	 -1.356267	 -0.924704
H	 -0.233803	 -1.785900	 0.736810
C	 2.256770	 0.342732	 -0.454344
H	 2.154716	 -1.590834	 0.479041
H	 1.598751	 -0.289614	 1.496104
C	 3.698146	 0.643205	 -0.057145
H	 2.235038	 -0.042575	 -1.470299
H	 1.683491	 1.262594	 -0.461300
H	 4.150202	 1.356548	 -0.736242
H	 4.305463	 -0.255904	 -0.069842
H	 3.749130	 1.061068	 0.942759

	symmetry c1
}
set optking {
	frozen_dihedral = ("
		1 2 4 8
	")
}

ee,wfn = optimize('scf', return_wfn=True)
oeprop( wfn, 'DIPOLE', 'QUADRUPOLE', 'MULLIKEN_CHARGES')
f=open( 'psi4out.xyz', 'w' )
f.write( "20  " )
f.write( str(ee) + "\n" )
f.write( MOL.save_string_xyz() )
f.close()
--------------------------------------------------------------------------

    Molecular point group: c1
  Charge       = 0
  Multiplicity = 1
  Basis Set: CC-PVTZ
  Basis Set:
  @DF-RHF Final Energy:  -384.06416266582869
    Total Energy =                       -384.0641626658281211
    Molecular point group: c1
  Basis Set: CC-PVTZ
  Basis Set:
  Basis Set: CC-PVTZ
  Basis Set:
  @DF-RHF Final Energy:  -384.03726494083128
    Total Energy =                       -384.0372649408316192
  Basis Set: CC-PVTZ
  Basis Set:
  Basis Set: CC-PVTZ
  Basis Set:
  @DF-RHF Final Energy:  -384.07019307200198
    Total Energy =                       -384.0701930720020982
  Basis Set: CC-PVTZ
  Basis Set:
  Basis Set: CC-PVTZ
  Basis Set:
  @DF-RHF Final Energy:  -384.07335996937627
    Total Energy =                       -384.0733599693766109
  Basis Set: CC-PVTZ
  Basis Set:
  @DF-RHF Final Energy:  -384.07231595143639
    Total Energy =                       -384.0723159514357121
  @DF-RHF Final Energy:  -384.07323018134542
    Total Energy =                       -384.0732301813457070
  Basis Set: CC-PVTZ
  Basis Set:
  @DF-RHF Final Energy:  -384.07418189246999
    Total Energy =                       -384.0741818924699373
  Basis Set: CC-PVTZ
  Basis Set:
  Basis Set: CC-PVTZ
  Basis Set:
  @DF-RHF Final Energy:  -384.07419871355046
    Total Energy =                       -384.0741987135505724
  Basis Set: CC-PVTZ
  Basis Set:
  Basis Set: CC-PVTZ
  Basis Set:
  @DF-RHF Final Energy:  -384.07421599680345
    Total Energy =                       -384.0742159968033320
  Basis Set: CC-PVTZ
  Basis Set:
  Charge       = 0
  Multiplicity = 1
  Basis Set: CC-PVTZ
  Basis Set:

    Orbital Energies (a.u.)
    -----------------------

    Doubly Occupied:

       1A    -20.592839     2A    -20.526722     3A    -11.368217
       4A    -11.295013     5A    -11.240324     6A    -11.228765
       7A    -11.220437     8A    -11.212376     9A     -1.465366
      10A     -1.366715    11A     -1.088436    12A     -1.020014
      13A     -1.001806    14A     -0.890846    15A     -0.816113
      16A     -0.781687    17A     -0.699995    18A     -0.691455
      19A     -0.664759    20A     -0.634876    21A     -0.606450
      22A     -0.596231    23A     -0.579936    24A     -0.558925
      25A     -0.547954    26A     -0.539179    27A     -0.516665
      28A     -0.488178    29A     -0.479330    30A     -0.477121
      31A     -0.444457    32A     -0.434937

  @DF-RHF Final Energy:  -384.07421672132091

   => Energetics <=

    Nuclear Repulsion Energy =            385.3370057720972000
    One-Electron Energy =               -1286.6702048517952335
    Two-Electron Energy =                 517.2589823583773523
    DFT Exchange-Correlation Energy =       0.0000000000000000
    Empirical Dispersion Energy =           0.0000000000000000
    PCM Polarization Energy =               0.0000000000000000
    EFP Energy =                            0.0000000000000000
    Total Energy =                       -384.0742167213206812
    Molecular point group: c1
  Basis Set: CC-PVTZ
  Basis Set:

  -Total Gradient:
     Atom            X                  Y                   Z
    ------   -----------------  -----------------  -----------------
       1       -0.000406813909    -0.000202736755     0.000879748930
       2        0.000346555298     0.000258094398    -0.000563523215
       3        0.000013450031     0.000038920398    -0.000169952322
       4        0.000295065047     0.000098685135    -0.001059837994
       5        0.000015959837    -0.000011179922     0.000069838220
       6       -0.000019885213     0.000008632877    -0.000001551657
       7       -0.000037567496    -0.000030291968    -0.000038815552
       8       -0.000205802584    -0.000130972983     0.000811041383
       9        0.000016535547    -0.000015835946    -0.000005791974
      10        0.000039864398     0.000019537901     0.000057776039
      11       -0.000058201692    -0.000028048072     0.000018202912
      12       -0.000007203699    -0.000017313114    -0.000001985562
      13        0.000010936138    -0.000010099481     0.000010313483
      14       -0.000006563671    -0.000000514363     0.000006098377
      15       -0.000002542991     0.000005272149     0.000003096077
      16        0.000003464063    -0.000004698059    -0.000018849597
      17       -0.000000764715     0.000019988429    -0.000000555040
      18        0.000002254208     0.000005334475    -0.000007636140
      19        0.000000108904    -0.000007686044     0.000000294224
      20        0.000001152498     0.000004910945     0.000012089405

  **** Optimization is complete! (in 10 steps) ****
    Final optimized geometry and variables:
    Molecular point group: c1

    Geometry (in Angstrom), charge = 0, multiplicity = 1:

    O           -2.529427818501     1.236943752155    -0.078747777919
    C           -1.904183626463     0.250236919873    -0.241279845676
    C           -2.477065160611    -0.971875905094    -0.916295040859
    O           -0.640446743660     0.205740943801     0.166633248406
    H           -2.446532443274    -1.832028170628    -0.260038371731
    H           -3.498600360429    -0.758524344395    -1.182405358813
    H           -1.913376376745    -1.213426445504    -1.808684579570
    C            0.124965741441    -0.982120192180     0.204702575258
    C            1.506440496035    -0.638463907453     0.724528541811
    H            0.193534011082    -1.416776164844    -0.785544487614
    H           -0.349838247154    -1.700654911057     0.861800641422
    C            2.302544166771     0.285155028729    -0.193146308664
    H            2.044861608973    -1.572438573921     0.861866098084
    H            1.403261571098    -0.186435283148     1.705393386842
    C            3.688520853538     0.604038104202     0.356822126753
    H            2.400864292926    -0.180266578052    -1.170790643116
    H            1.749684729777     1.204654790003    -0.341424736605
    H            4.232958430605     1.257491495779    -0.314439969449
    H            4.277129612847    -0.297768619781     0.490672090493
    H            3.621582108590     1.100698460072     1.318779954906

  Mulliken Charges: (a.u.)
   Center  Symbol    Alpha    Beta     Spin     Total
       1     O     4.18313  4.18313  0.00000 -0.36626
       2     C     2.82077  2.82077  0.00000  0.35846
       3     C     3.16740  3.16740  0.00000 -0.33479
       4     O     4.12900  4.12900  0.00000 -0.25800
       5     H     0.44754  0.44754  0.00000  0.10491
       6     H     0.42542  0.42542  0.00000  0.14915
       7     H     0.44526  0.44526  0.00000  0.10947
       8     C     2.99883  2.99883  0.00000  0.00234
       9     C     3.08227  3.08227  0.00000 -0.16453
      10     H     0.45910  0.45910  0.00000  0.08181
      11     H     0.44951  0.44951  0.00000  0.10098
      12     C     3.08656  3.08656  0.00000 -0.17312
      13     H     0.45292  0.45292  0.00000  0.09416
      14     H     0.44787  0.44787  0.00000  0.10425
      15     C     3.15053  3.15053  0.00000 -0.30106
      16     H     0.45784  0.45784  0.00000  0.08431
      17     H     0.44008  0.44008  0.00000  0.11985
      18     H     0.44655  0.44655  0.00000  0.10689
      19     H     0.45681  0.45681  0.00000  0.08638
      20     H     0.45260  0.45260  0.00000  0.09480

   Total alpha = 32.00000, Total beta = 32.00000, Total charge = -0.00000

*** Psi4 exiting successfully. Buy a developer a beer!
