  ==> Input File <==

--------------------------------------------------------------------------
set {
	reference rhf
	basis cc-pvtz
}

set_num_threads( 4 )
memory 2 gb

molecule MOL {
0 1

H	 -0.366580	 2.045936	 -0.305741
C	 0.351829	 1.335402	 0.083179
N	 -0.000018	 0.000080	 -0.334836
H	 1.327156	 1.599860	 -0.305475
H	 0.380566	 1.445403	 1.171445
C	 -1.049668	 0.003485	 -1.325090
C	 1.152413	 -0.750052	 -0.772382
H	 -1.336147	 -1.012946	 -1.563603
H	 -1.922093	 0.514157	 -0.937436
H	 -0.753816	 0.498321	 -2.254972
H	 1.889827	 -0.790447	 0.019307
H	 0.863560	 -1.765632	 -1.011728
H	 1.629645	 -0.317029	 -1.656605

	symmetry c1
}
set optking {
	frozen_dihedral = ("
		6 3 2 1
	")
}

ee = optimize('scf')
oeprop('DIPOLE', 'QUADRUPOLE', 'MULLIKEN_CHARGES')
f=open( 'psi4out.xyz', 'w' )
f.write( "13  " )
f.write( str(ee) + "\n" )
f.write( MOL.save_string_xyz() )
f.close()
--------------------------------------------------------------------------

    Molecular point group: c1
  Charge       = 0
  Multiplicity = 1
  Basis Set: CC-PVTZ
  Basis Set:
  @DF-RHF Final Energy:  -173.32762142643540
    Total Energy =                       -173.3276214264354280
    Molecular point group: c1
  Basis Set: CC-PVTZ
  Basis Set:
  Basis Set: CC-PVTZ
  Basis Set:
  @DF-RHF Final Energy:  -173.32845286968941
    Total Energy =                       -173.3284528696893574
  Basis Set: CC-PVTZ
  Basis Set:
  Basis Set: CC-PVTZ
  Basis Set:
  @DF-RHF Final Energy:  -173.32861683999386
    Total Energy =                       -173.3286168399938560
  Basis Set: CC-PVTZ
  Basis Set:
  Basis Set: CC-PVTZ
  Basis Set:
  @DF-RHF Final Energy:  -173.32863202856254
    Total Energy =                       -173.3286320285625379
  Basis Set: CC-PVTZ
  Basis Set:
  Charge       = 0
  Multiplicity = 1
  Basis Set: CC-PVTZ
  Basis Set:

    Orbital Energies (a.u.)
    -----------------------

    Doubly Occupied:

       1A    -15.534564     2A    -11.234233     3A    -11.234004
       4A    -11.233902     5A     -1.221782     6A     -0.952789
       7A     -0.952032     8A     -0.805900     9A     -0.638914
      10A     -0.630325    11A     -0.628689    12A     -0.549434
      13A     -0.546014    14A     -0.514615    15A     -0.502939
      16A     -0.501642    17A     -0.339886

  @DF-RHF Final Energy:  -173.32863330539968

   => Energetics <=

    Nuclear Repulsion Energy =            138.9544684758683672
    One-Electron Energy =                -508.5228787548691116
    Two-Electron Energy =                 196.2397769736010673
    DFT Exchange-Correlation Energy =       0.0000000000000000
    Empirical Dispersion Energy =           0.0000000000000000
    PCM Polarization Energy =               0.0000000000000000
    EFP Energy =                            0.0000000000000000
    Total Energy =                       -173.3286333053997055
    Molecular point group: c1
  Basis Set: CC-PVTZ
  Basis Set:

  -Total Gradient:
     Atom            X                  Y                   Z
    ------   -----------------  -----------------  -----------------
       1        0.001989293617     0.000566138693    -0.003119762547
       2       -0.003257331778    -0.000739423922     0.004853195799
       3        0.003160157314     0.000415478068    -0.003809938904
       4       -0.000004280873     0.000013523108    -0.000028651907
       5       -0.000001667112    -0.000047072189    -0.000038308454
       6       -0.001941187021    -0.000199212066     0.002119642270
       7        0.000056452165     0.000019904783     0.000030290961
       8        0.000002688023     0.000000935430    -0.000003421566
       9       -0.000020781038    -0.000002274331    -0.000018676880
      10        0.000012495392    -0.000011154876     0.000017702044
      11        0.000024844711    -0.000017145080    -0.000007438849
      12       -0.000000341714    -0.000001730786     0.000000102731
      13       -0.000020341688     0.000002033166     0.000005265303

  **** Optimization is complete! (in 5 steps) ****
    Final optimized geometry and variables:
    Molecular point group: c1

    Geometry (in Angstrom), charge = 0, multiplicity = 1:

    H           -0.493247896197     1.917274899713     0.378298977407
    C            0.235753465615     1.188148505574     0.707849988409
    N           -0.112443023297    -0.137847699747     0.234757467927
    H            1.194158586243     1.521340786297     0.310822006050
    H            0.296859360373     1.219654637931     1.789914673673
    C           -1.182497522035    -0.161872762072    -0.729393165711
    C            1.029662414824    -0.924071929239    -0.150699562923
    H           -1.454727242109    -1.187030613083    -0.948563418552
    H           -2.056874474697     0.332019949099    -0.325879503983
    H           -0.926318626079     0.324268758273    -1.676476044909
    H            1.749105009039    -0.953356442002     0.658522694550
    H            0.727313264944    -1.942709767965    -0.360127292395
    H            1.538760081151    -0.533081291545    -1.037449779469

  Mulliken Charges: (a.u.)
   Center  Symbol    Alpha    Beta     Spin     Total
       1     H     0.45845  0.45845  0.00000  0.08310
       2     C     3.08556  3.08556  0.00000 -0.17113
       3     N     3.59814  3.59814  0.00000 -0.19627
       4     H     0.46776  0.46776  0.00000  0.06448
       5     H     0.45096  0.45096  0.00000  0.09809
       6     C     3.08939  3.08939  0.00000 -0.17877
       7     C     3.08979  3.08979  0.00000 -0.17957
       8     H     0.45368  0.45368  0.00000  0.09264
       9     H     0.45241  0.45241  0.00000  0.09519
      10     H     0.47398  0.47398  0.00000  0.05205
      11     H     0.45238  0.45238  0.00000  0.09525
      12     H     0.45385  0.45385  0.00000  0.09229
      13     H     0.47367  0.47367  0.00000  0.05266

   Total alpha = 17.00000, Total beta = 17.00000, Total charge = -0.00000
