                              Psi4 1.0.54 Driver

  ==> Input File <==

--------------------------------------------------------------------------
set {
	reference rhf
	basis cc-pvtz
}

set_num_threads( 4 )
memory 2 gb

molecule MOL {
0 1

H	 -3.268214	 -0.875720	 0.463107
C	 -2.806015	 0.000007	 0.024886
N	 -1.391133	 0.000016	 0.301321
H	 -3.029448	 0.000055	 -1.045738
H	 -3.268126	 0.875758	 0.463150
C	 -0.806393	 1.317841	 0.178874
C	 -0.672148	 -0.959475	 -0.508598
H	 -0.904391	 1.704548	 -0.839803
H	 -1.332465	 1.997556	 0.838662
C	 0.662615	 1.290214	 0.557378
H	 -1.100206	 -1.942288	 -0.350694
H	 -0.760991	 -0.728008	 -1.574139
C	 0.796860	 -0.987101	 -0.130094
H	 1.090674	 2.273028	 0.399474
H	 0.751458	 1.058748	 1.622919
N	 1.381600	 0.330723	 -0.252541
H	 1.322932	 -1.666816	 -0.789883
H	 0.894859	 -1.373808	 0.888583
C	 2.796482	 0.330732	 0.023894
H	 3.204916	 1.320259	 -0.139144
H	 3.303567	 -0.353806	 -0.644563
H	 3.028461	 0.034361	 1.050786

	symmetry c1
}
set optking {
	frozen_dihedral = ("
		6 3 2 4
	")
}

ee,wfn = optimize('scf', return_wfn=True)
oeprop( wfn, 'DIPOLE', 'QUADRUPOLE', 'MULLIKEN_CHARGES')
f=open( 'psi4out.xyz', 'w' )
f.write( "22  " )
f.write( str(ee) + "\n" )
f.write( MOL.save_string_xyz() )
f.close()
--------------------------------------------------------------------------

    Molecular point group: c1
  Charge       = 0
  Multiplicity = 1
  Basis Set: CC-PVTZ
  Basis Set:
  @DF-RHF Final Energy:  -344.34949953093223
    Total Energy =                       -344.3494995309322348
    Molecular point group: c1
  Basis Set: CC-PVTZ
  Basis Set:
  Basis Set: CC-PVTZ
  Basis Set:
  @DF-RHF Final Energy:  -344.34966328367318
    Total Energy =                       -344.3496632836736353
  Basis Set: CC-PVTZ
  Basis Set:
  Basis Set: CC-PVTZ
  Basis Set:
  @DF-RHF Final Energy:  -344.34968213114172
    Total Energy =                       -344.3496821311415488
  Basis Set: CC-PVTZ
  Basis Set:
  Charge       = 0
  Multiplicity = 1
  Basis Set: CC-PVTZ
  Basis Set:

    Orbital Energies (a.u.)
    -----------------------

    Doubly Occupied:

       1A    -15.537642     2A    -15.536215     3A    -11.237595
       4A    -11.237574     5A    -11.236926     6A    -11.236874
       7A    -11.234294     8A    -11.234251     9A     -1.257073
      10A     -1.205935    11A     -1.026188    12A     -0.992895
      13A     -0.912413    14A     -0.868551    15A     -0.836293
      16A     -0.754675    17A     -0.666815    18A     -0.638374
      19A     -0.632613    20A     -0.627362    21A     -0.622518
      22A     -0.581968    23A     -0.550386    24A     -0.547369
      25A     -0.543124    26A     -0.517692    27A     -0.497127
      28A     -0.490794    29A     -0.467283    30A     -0.457484
      31A     -0.351970    32A     -0.345158

  @DF-RHF Final Energy:  -344.34968306727251

   => Energetics <=

    Nuclear Repulsion Energy =            421.8651011083953790
    One-Electron Energy =               -1302.6627114725124557
    Two-Electron Energy =                 536.4479272968445684
    DFT Exchange-Correlation Energy =       0.0000000000000000
    Empirical Dispersion Energy =           0.0000000000000000
    PCM Polarization Energy =               0.0000000000000000
    EFP Energy =                            0.0000000000000000
    Total Energy =                       -344.3496830672725082
    Molecular point group: c1
  Basis Set: CC-PVTZ
  Basis Set:

  -Total Gradient:
     Atom            X                  Y                   Z
    ------   -----------------  -----------------  -----------------
       1       -0.000000127170    -0.000019483415     0.000003430614
       2       -0.000307571715     0.004643578815     0.000983957941
       3        0.000625895828    -0.001587883994    -0.003490394121
       4        0.000051567861    -0.003448473636    -0.000014488746
       5        0.000042107889    -0.000011368339     0.000018342068
       6       -0.000439149810     0.000466972406     0.002533038843
       7        0.000024087761    -0.000026043359    -0.000062830794
       8        0.000010140625    -0.000029663555     0.000033703782
       9       -0.000008854228    -0.000010018370     0.000001644380
      10        0.000007327660     0.000009981295    -0.000029219461
      11        0.000000433715     0.000011107245     0.000008442047
      12       -0.000002043651    -0.000003040966     0.000016454517
      13       -0.000008401348     0.000000168986     0.000008893952
      14        0.000031834801     0.000014940599     0.000005065886
      15       -0.000021517977     0.000001237467    -0.000015138069
      16       -0.000009377036     0.000001538557     0.000004179575
      17        0.000016593044    -0.000003430289    -0.000002102776
      18        0.000001491332    -0.000001460882    -0.000002026821
      19       -0.000003445755    -0.000005526204     0.000000737019
      20       -0.000007770391    -0.000001583408    -0.000000679990
      21       -0.000000136948    -0.000002250564    -0.000001438991
      22       -0.000003084488     0.000000701611     0.000000429145

  **** Optimization is complete! (in 4 steps) ****
    Final optimized geometry and variables:
    Molecular point group: c1

    Geometry (in Angstrom), charge = 0, multiplicity = 1:

    H           -3.244783316536    -1.059238031645     0.430993154117
    C           -2.806183137086    -0.160692350083     0.011122433557
    N           -1.385844786452    -0.146605614521     0.260331229322
    H           -3.050805894698    -0.153552387136    -1.054279729099
    H           -3.278330531930     0.690768236795     0.482095636658
    C           -0.793201783396     1.167150123590     0.145446890169
    C           -0.672808440974    -1.124422830591    -0.528130595150
    H           -0.882724223382     1.564403828213    -0.870348055685
    H           -1.314158524281     1.845953851163     0.809572099119
    C            0.674743797463     1.124038600440     0.528205544046
    H           -1.111085945918    -2.100857039623    -0.355973739489
    H           -0.756598556923    -0.910574659917    -1.597910297435
    C            0.794682911210    -1.158513715173    -0.144405135629
    H            1.114134342998     2.101913261913     0.370179129386
    H            0.757026384486     0.893527064846     1.594618758543
    N            1.387046484414     0.154944458920    -0.276243891868
    H            1.318943937834    -1.846960833446    -0.796674554078
    H            0.887530329499    -1.536890765590     0.877953864592
    C            2.801952752585     0.148109041725    -0.000650729527
    H            3.216449750731     1.133925007202    -0.170957301432
    H            3.304480066292    -0.544378675554    -0.664427770285
    H            3.032916339653    -0.142331658134     1.028273729796

  Mulliken Charges: (a.u.)
   Center  Symbol    Alpha    Beta     Spin     Total
       1     H     0.45131  0.45131  0.00000  0.09738
       2     C     3.09784  3.09784  0.00000 -0.19567
       3     N     3.61310  3.61310  0.00000 -0.22621
       4     H     0.46913  0.46913  0.00000  0.06175
       5     H     0.45307  0.45307  0.00000  0.09386
       6     C     3.03358  3.03358  0.00000 -0.06717
       7     C     3.03537  3.03537  0.00000 -0.07073
       8     H     0.46960  0.46960  0.00000  0.06080
       9     H     0.45386  0.45386  0.00000  0.09227
      10     C     3.03597  3.03597  0.00000 -0.07194
      11     H     0.45417  0.45417  0.00000  0.09167
      12     H     0.46769  0.46769  0.00000  0.06462
      13     C     3.03558  3.03558  0.00000 -0.07116
      14     H     0.45390  0.45390  0.00000  0.09221
      15     H     0.46832  0.46832  0.00000  0.06336
      16     N     3.61312  3.61312  0.00000 -0.22625
      17     H     0.45386  0.45386  0.00000  0.09229
      18     H     0.46817  0.46817  0.00000  0.06367
      19     C     3.09838  3.09838  0.00000 -0.19677
      20     H     0.45193  0.45193  0.00000  0.09615
      21     H     0.45194  0.45194  0.00000  0.09611
      22     H     0.47012  0.47012  0.00000  0.05976

   Total alpha = 32.00000, Total beta = 32.00000, Total charge = -0.00000

*** Psi4 exiting successfully. Buy a developer a beer!
