                              Psi4 1.0.54 Driver

  ==> Input File <==

--------------------------------------------------------------------------
set {
	reference rhf
	basis cc-pvtz
}

set_num_threads( 4 )
memory 2 gb

molecule MOL {
0 1

H	 -0.000342	 -0.223902	 -3.352295
C	 -0.027146	 0.371068	 -2.446756
C	 0.024493	 -0.518541	 -1.216015
H	 -0.932586	 0.964979	 -2.449855
H	 0.819708	 1.049865	 -2.473332
N	 -0.042516	 0.263377	 0.000000
H	 -0.822211	 -1.197105	 -1.225584
H	 0.921114	 -1.142847	 -1.255206
C	 0.024493	 -0.518541	 1.216015
H	 0.682568	 0.950412	 0.000000
C	 1.321473	 -1.306308	 1.293859
H	 -0.034010	 0.164122	 2.057441
H	 -0.823213	 -1.202031	 1.313271
H	 2.174667	 -0.641244	 1.245800
H	 1.373692	 -1.870104	 2.218042
H	 1.399216	 -2.012028	 0.472549

	symmetry c1
}
set optking {
	frozen_dihedral = ("
		12 9 6 3
	")
}

ee,wfn = optimize('scf', return_wfn=True)
oeprop( wfn, 'DIPOLE', 'QUADRUPOLE', 'MULLIKEN_CHARGES')
f=open( 'psi4out.xyz', 'w' )
f.write( "16  " )
f.write( str(ee) + "\n" )
f.write( MOL.save_string_xyz() )
f.close()
--------------------------------------------------------------------------

    Molecular point group: c1
  Charge       = 0
  Multiplicity = 1
  Basis Set: CC-PVTZ
  Basis Set:
  @DF-RHF Final Energy:  -212.38838939038584
    Total Energy =                       -212.3883893903858393
    Molecular point group: c1
  Basis Set: CC-PVTZ
  Basis Set:
  Basis Set: CC-PVTZ
  Basis Set:
  @DF-RHF Final Energy:  -212.38952569458050
    Total Energy =                       -212.3895256945805841
  Basis Set: CC-PVTZ
  Basis Set:
  Basis Set: CC-PVTZ
  Basis Set:
  @DF-RHF Final Energy:  -212.39172812143391
    Total Energy =                       -212.3917281214339141
  Basis Set: CC-PVTZ
  Basis Set:
  Basis Set: CC-PVTZ
  Basis Set:
  @DF-RHF Final Energy:  -212.39185683909804
    Total Energy =                       -212.3918568390977839
  Basis Set: CC-PVTZ
  Basis Set:
  Basis Set: CC-PVTZ
  Basis Set:
  @DF-RHF Final Energy:  -212.39186696058925
    Total Energy =                       -212.3918669605891978
  Basis Set: CC-PVTZ
  Basis Set:
  Charge       = 0
  Multiplicity = 1
  Basis Set: CC-PVTZ
  Basis Set:

    Orbital Energies (a.u.)
    -----------------------

    Doubly Occupied:

       1A    -15.527680     2A    -11.239507     3A    -11.238356
       4A    -11.205967     5A    -11.204933     6A     -1.204412
       7A     -1.024936     8A     -0.966484     9A     -0.849210
      10A     -0.807749    11A     -0.659299    12A     -0.626667
      13A     -0.611936    14A     -0.572660    15A     -0.551038
      16A     -0.533596    17A     -0.511637    18A     -0.489151
      19A     -0.482476    20A     -0.474718    21A     -0.357459

  @DF-RHF Final Energy:  -212.39186766914969

   => Energetics <=

    Nuclear Repulsion Energy =            191.3926419381992901
    One-Electron Energy =                -665.2892794497299747
    Two-Electron Energy =                 261.5047698423809379
    DFT Exchange-Correlation Energy =       0.0000000000000000
    Empirical Dispersion Energy =           0.0000000000000000
    PCM Polarization Energy =               0.0000000000000000
    EFP Energy =                            0.0000000000000000
    Total Energy =                       -212.3918676691497467
    Molecular point group: c1
  Basis Set: CC-PVTZ
  Basis Set:

  -Total Gradient:
     Atom            X                  Y                   Z
    ------   -----------------  -----------------  -----------------
       1       -0.000000320797     0.000001611222     0.000001720932
       2        0.000006061430    -0.000010919520     0.000000866912
       3        0.001151669984     0.000114134931     0.000129218414
       4       -0.000008676185     0.000001504270    -0.000000800905
       5        0.000007021398     0.000001272938    -0.000002218225
       6       -0.001328997878    -0.000154060946    -0.000091038322
       7       -0.000010070693    -0.000009897619    -0.000017047654
       8        0.000017607728    -0.000019204167     0.000000255303
       9       -0.001265350418     0.000008436934    -0.000127887927
      10       -0.000027220763     0.000005983931     0.000006865362
      11       -0.000000649020     0.000003486552    -0.000015896726
      12        0.001463293679     0.000074764125     0.000117434121
      13       -0.000011301941    -0.000010996034     0.000008567805
      14        0.000010455557     0.000000466904     0.000005304263
      15       -0.000006490535     0.000001759495     0.000000655491
      16        0.000002968454    -0.000008343018    -0.000015998846

  **** Optimization is complete! (in 6 steps) ****
    Final optimized geometry and variables:
    Molecular point group: c1

    Geometry (in Angstrom), charge = 0, multiplicity = 1:

    H           -0.176939572408     0.130106922024    -3.174969395945
    C           -0.259144214027     0.717470962438    -2.267435002108
    C           -0.131300537999    -0.167565241332    -1.038141194704
    H           -1.212437335099     1.230663611772    -2.270307963215
    H            0.525196369681     1.467833680635    -2.288631090671
    N           -0.264073117238     0.613565824123     0.174087615103
    H           -0.923894505448    -0.909547008587    -1.044387299191
    H            0.808487492777    -0.717706217167    -1.092033738675
    C           -0.309796509811    -0.126292203741     1.419752872044
    H            0.453420497978     1.306611562159     0.213523580852
    C            0.888462753096    -1.024410225807     1.729690470043
    H           -0.409713686100     0.598890350392     2.219401206074
    H           -1.216369227181    -0.722989430690     1.425013689459
    H            1.813257929129    -0.455506666743     1.720968591050
    H            0.779454129452    -1.465832826294     2.714572914206
    H            0.987541243560    -1.834038969396     1.017062357547

  Mulliken Charges: (a.u.)
   Center  Symbol    Alpha    Beta     Spin     Total
       1     H     0.45523  0.45523  0.00000  0.08953
       2     C     3.14036  3.14036  0.00000 -0.28073
       3     C     3.02347  3.02347  0.00000 -0.04694
       4     H     0.44962  0.44962  0.00000  0.10076
       5     H     0.45934  0.45934  0.00000  0.08131
       6     N     3.63878  3.63878  0.00000 -0.27757
       7     H     0.45867  0.45867  0.00000  0.08266
       8     H     0.47081  0.47081  0.00000  0.05839
       9     C     3.04335  3.04335  0.00000 -0.08670
      10     H     0.44503  0.44503  0.00000  0.10994
      11     C     3.14944  3.14944  0.00000 -0.29888
      12     H     0.45035  0.45035  0.00000  0.09931
      13     H     0.45455  0.45455  0.00000  0.09089
      14     H     0.45807  0.45807  0.00000  0.08386
      15     H     0.44955  0.44955  0.00000  0.10089
      16     H     0.45337  0.45337  0.00000  0.09326

   Total alpha = 21.00000, Total beta = 21.00000, Total charge = -0.00000

*** Psi4 exiting successfully. Buy a developer a beer!
