  ==> Input File <==

--------------------------------------------------------------------------
set {
	reference rhf
	basis 6-31G*
}

set_num_threads( 1 )
memory 2 gb

molecule MOL {
0 1

H	 3.636679	 -3.136092	 -1.545290
C	 3.349934	 -2.190885	 -1.995715
C	 1.990463	 -1.722415	 -1.478460
H	 4.125027	 -1.466023	 -1.765176
H	 3.335273	 -2.328919	 -3.073458
C	 1.552355	 -0.394127	 -2.099367
H	 2.033601	 -1.620343	 -0.398959
H	 1.242305	 -2.483912	 -1.693105
C	 0.186307	 0.091379	 -1.614120
H	 2.293142	 0.368568	 -1.886823
H	 1.511749	 -0.503726	 -3.180746
C	 0.169600	 0.576866	 -0.172154
H	 -0.145010	 0.928454	 -2.226742
H	 -0.568287	 -0.681825	 -1.740294
C	 -1.181045	 0.701995	 0.511084
O	 1.175706	 0.868227	 0.401662
C	 -2.285934	 -0.139295	 -0.145128
H	 -1.449051	 1.751551	 0.493206
H	 -1.071135	 0.403303	 1.551943
C	 -3.651768	 0.085446	 0.506485
H	 -2.346596	 0.110469	 -1.202272
H	 -2.034737	 -1.195320	 -0.088721
C	 -4.759797	 -0.746382	 -0.137905
H	 -3.908762	 1.140117	 0.445781
H	 -3.588286	 -0.154158	 1.565709
H	 -4.868882	 -0.505166	 -1.191300
H	 -4.548009	 -1.809175	 -0.062213
H	 -5.715422	 -0.564821	 0.343442

	symmetry c1
}
set optking {
	frozen_dihedral = ("
		10 6 3 2,
		12 15 17 21
	")
}

ee = energy('scf')
oeprop('DIPOLE', 'QUADRUPOLE', 'MULLIKEN_CHARGES')
f=open( 'psi4out.xyz', 'w' )
f.write( "28  " )
f.write( str(ee) + "\n" )
f.write( MOL.save_string_xyz() )
f.close()
--------------------------------------------------------------------------

    Molecular point group: c1

    Geometry (in Angstrom), charge = 0, multiplicity = 1:

       Center              X                  Y                   Z               Mass
    ------------   -----------------  -----------------  -----------------  -----------------
           H          3.980815634572    -2.834966255907    -0.920138902393     1.007825032070
           C          3.694070634572    -1.889759255907    -1.370563902393    12.000000000000
           C          2.334599634572    -1.421289255907    -0.853308902393    12.000000000000
           H          4.469163634572    -1.164897255907    -1.140024902393     1.007825032070
           H          3.679409634572    -2.027793255907    -2.448306902393     1.007825032070
           C          1.896491634572    -0.093001255907    -1.474215902393    12.000000000000
           H          2.377737634572    -1.319217255907     0.226192097607     1.007825032070
           H          1.586441634572    -2.182786255907    -1.067953902393     1.007825032070
           C          0.530443634572     0.392504744093    -0.988968902393    12.000000000000
           H          2.637278634572     0.669693744093    -1.261671902393     1.007825032070
           H          1.855885634572    -0.202600255907    -2.555594902393     1.007825032070
           C          0.513736634572     0.877991744093     0.452997097607    12.000000000000
           H          0.199126634572     1.229579744093    -1.601590902393     1.007825032070
           H         -0.224150365428    -0.380699255907    -1.115142902393     1.007825032070
           C         -0.836908365428     1.003120744093     1.136235097607    12.000000000000
           O          1.519842634572     1.169352744093     1.026813097607    15.994914619560
           C         -1.941797365428     0.161830744093     0.480023097607    12.000000000000
           H         -1.104914365428     2.052676744093     1.118357097607     1.007825032070
           H         -0.726998365428     0.704428744093     2.177094097607     1.007825032070
           C         -3.307631365428     0.386571744093     1.131636097607    12.000000000000
           H         -2.002459365428     0.411594744093    -0.577120902393     1.007825032070
           H         -1.690600365428    -0.894194255907     0.536430097607     1.007825032070
           C         -4.415660365428    -0.445256255907     0.487246097607    12.000000000000
           H         -3.564625365428     1.441242744093     1.070932097607     1.007825032070
           H         -3.244149365428     0.146967744093     2.190860097607     1.007825032070
           H         -4.524745365428    -0.204040255907    -0.566148902393     1.007825032070
           H         -4.203872365428    -1.508049255907     0.562938097607     1.007825032070
           H         -5.371285365428    -0.263695255907     0.968593097607     1.007825032070

  Charge       = 0
  Multiplicity = 1
  Basis Set: 6-31G*
  Basis Set:

    Orbital Energies (a.u.)
    -----------------------

    Doubly Occupied:

       1A    -20.546267     2A    -11.323015     3A    -11.230870
       4A    -11.230070     5A    -11.228039     6A    -11.225804
       7A    -11.216759     8A    -11.215581     9A    -11.212192
      10A    -11.205575    11A     -1.392216    12A     -1.098323
      13A     -1.075960    14A     -1.023475    15A     -0.989708
      16A     -0.905090    17A     -0.876710    18A     -0.810764
      19A     -0.800510    20A     -0.719769    21A     -0.665109
      22A     -0.661109    23A     -0.629427    24A     -0.618342
      25A     -0.609374    26A     -0.587045    27A     -0.582628
      28A     -0.572916    29A     -0.543210    30A     -0.530115
      31A     -0.525584    32A     -0.510913    33A     -0.490992
      34A     -0.487966    35A     -0.477494    36A     -0.476203
      37A     -0.469683    38A     -0.463789    39A     -0.454512
      40A     -0.391657

  @DF-RHF Final Energy:  -426.16355151840037

   => Energetics <=

    Nuclear Repulsion Energy =            536.9514725129778299
    One-Electron Energy =               -1642.0802223442406103
    Two-Electron Energy =                 678.9651983128634356
    DFT Exchange-Correlation Energy =       0.0000000000000000
    Empirical Dispersion Energy =           0.0000000000000000
    PCM Polarization Energy =               0.0000000000000000
    EFP Energy =                            0.0000000000000000
    Total Energy =                       -426.1635515183992311

  Mulliken Charges: (a.u.)
   Center  Symbol    Alpha    Beta     Spin     Total
       1     H     0.41950  0.41950  0.00000  0.16100
       2     C     3.24007  3.24007  0.00000 -0.48013
       3     C     3.15640  3.15640  0.00000 -0.31281
       4     H     0.41820  0.41820  0.00000  0.16359
       5     H     0.42363  0.42363  0.00000  0.15273
       6     C     3.14751  3.14751  0.00000 -0.29502
       7     H     0.41067  0.41067  0.00000  0.17867
       8     H     0.42805  0.42805  0.00000  0.14391
       9     C     3.21880  3.21880  0.00000 -0.43760
      10     H     0.40703  0.40703  0.00000  0.18593
      11     H     0.42233  0.42233  0.00000  0.15535
      12     C     2.73001  2.73001  0.00000  0.53998
      13     H     0.40483  0.40483  0.00000  0.19034
      14     H     0.40573  0.40573  0.00000  0.18854
      15     C     3.20027  3.20027  0.00000 -0.40054
      16     O     4.27013  4.27013  0.00000 -0.54027
      17     C     3.16929  3.16929  0.00000 -0.33859
      18     H     0.40243  0.40243  0.00000  0.19515
      19     H     0.39962  0.39962  0.00000  0.20076
      20     C     3.15078  3.15078  0.00000 -0.30156
      21     H     0.41748  0.41748  0.00000  0.16504
      22     H     0.41722  0.41722  0.00000  0.16556
      23     C     3.23996  3.23996  0.00000 -0.47993
      24     H     0.42119  0.42119  0.00000  0.15761
      25     H     0.42021  0.42021  0.00000  0.15958
      26     H     0.42113  0.42113  0.00000  0.15774
      27     H     0.42067  0.42067  0.00000  0.15865
      28     H     0.41686  0.41686  0.00000  0.16628

   Total alpha = 40.00000, Total beta = 40.00000, Total charge =  0.00000
