  ==> Input File <==

--------------------------------------------------------------------------
set {
	reference rhf
	basis 6-31G*
}

set_num_threads( 4 )
memory 2 gb

molecule MOL {
0 1

O	 -0.682937	 1.318834	 -0.186099
C	 -0.860635	 0.152188	 -0.042321
C	 -2.173363	 -0.477127	 0.338347
O	 0.083258	 -0.765189	 -0.202595
H	 -2.477673	 -1.180929	 -0.427595
H	 -2.923125	 0.290956	 0.455536
H	 -2.058825	 -1.029004	 1.264191
C	 1.331185	 -0.577318	 0.460865
C	 1.278642	 -1.070238	 1.895061
H	 1.604314	 0.465933	 0.414297
H	 2.036702	 -1.152924	 -0.120875
H	 2.261109	 -0.984357	 2.349059
H	 0.581536	 -0.483083	 2.479577
H	 0.977149	 -2.111543	 1.929713

	symmetry c1
}
set optking {
	frozen_dihedral = ("
		8 4 2 1
	")
}

ee = optimize('scf')
oeprop('DIPOLE', 'QUADRUPOLE', 'MULLIKEN_CHARGES')
f=open( 'psi4out.xyz', 'w' )
f.write( "14  " )
f.write( str(ee) + "\n" )
f.write( MOL.save_string_xyz() )
f.close()
--------------------------------------------------------------------------

    Molecular point group: c1
  Charge       = 0
  Multiplicity = 1
  Basis Set: 6-31G*
  Basis Set:
  @DF-RHF Final Energy:  -305.86390652198168
    Total Energy =                       -305.8639065219814483
    Molecular point group: c1
  Basis Set: 6-31G*
  Basis Set:
  Basis Set: 6-31G*
  Basis Set:
  @DF-RHF Final Energy:  -305.86181252900906
    Total Energy =                       -305.8618125290091712
  Basis Set: 6-31G*
  Basis Set:
  Basis Set: 6-31G*
  Basis Set:
  @DF-RHF Final Energy:  -305.86488279049502
    Total Energy =                       -305.8648827904951304
  Basis Set: 6-31G*
  Basis Set:
  Basis Set: 6-31G*
  Basis Set:
  @DF-RHF Final Energy:  -305.86495458646095
    Total Energy =                       -305.8649545864609536
  Basis Set: 6-31G*
  Basis Set:
  Basis Set: 6-31G*
  Basis Set:
  @DF-RHF Final Energy:  -305.86496018952039
    Total Energy =                       -305.8649601895202750
  Basis Set: 6-31G*
  Basis Set:
  Basis Set: 6-31G*
  Basis Set:
  @DF-RHF Final Energy:  -305.86496244779164
    Total Energy =                       -305.8649624477915836
  Basis Set: 6-31G*
  Basis Set:
  Charge       = 0
  Multiplicity = 1
  Basis Set: 6-31G*
  Basis Set:

    Orbital Energies (a.u.)
    -----------------------

    Doubly Occupied:

       1A    -20.591295     2A    -20.550614     3A    -11.376640
       4A    -11.289807     5A    -11.234291     6A    -11.227734
       7A     -1.461347     8A     -1.364344     9A     -1.052479
      10A     -1.005432    11A     -0.884692    12A     -0.763478
      13A     -0.696558    14A     -0.681685    15A     -0.663786
      16A     -0.614518    17A     -0.590949    18A     -0.571340
      19A     -0.558087    20A     -0.542216    21A     -0.514589
      22A     -0.494817    23A     -0.449832    24A     -0.438102

  @DF-RHF Final Energy:  -305.86496293210337

   => Energetics <=

    Nuclear Repulsion Energy =            248.5122665378640647
    One-Electron Energy =                -909.5171860135751558
    Two-Electron Energy =                 355.1399565436077523
    DFT Exchange-Correlation Energy =       0.0000000000000000
    Empirical Dispersion Energy =           0.0000000000000000
    PCM Polarization Energy =               0.0000000000000000
    EFP Energy =                            0.0000000000000000
    Total Energy =                       -305.8649629321033103
    Molecular point group: c1
  Basis Set: 6-31G*
  Basis Set:

  -Total Gradient:
     Atom            X                  Y                   Z
    ------   -----------------  -----------------  -----------------
       1       -0.002844927996    -0.000301372299    -0.009749975634
       2        0.002870197783    -0.001657615209     0.017624306914
       3        0.000003963780     0.000017993959    -0.000001844261
       4        0.002545416128     0.006260304218    -0.014003905818
       5       -0.000006518873     0.000026026926    -0.000020055430
       6       -0.000027400276    -0.000013439969    -0.000005680765
       7        0.000002253038    -0.000011204489    -0.000014409857
       8       -0.002540593786    -0.004275803334     0.006157610014
       9       -0.000014907015    -0.000027003856    -0.000003250282
      10        0.000016336392     0.000001066163     0.000000048110
      11       -0.000007132118    -0.000007463543     0.000009160115
      12       -0.000005844381     0.000004807134    -0.000019846005
      13        0.000010264282     0.000000185831    -0.000001055293
      14       -0.000001106953    -0.000016481534     0.000028898191

  **** Optimization is complete! (in 7 steps) ****
    Final optimized geometry and variables:
    Molecular point group: c1

    Geometry (in Angstrom), charge = 0, multiplicity = 1:

    O           -0.517583136951     1.558370944385    -0.447255140195
    C           -0.700970643979     0.390390450389    -0.364212895305
    C           -2.037055925079    -0.249175845754    -0.104112845972
    O            0.250177624418    -0.520538533486    -0.615088353635
    H           -2.279199715308    -0.921252474047    -0.919458468478
    H           -2.798921644048     0.510321601360    -0.009287712902
    H           -1.988003697488    -0.843005077278     0.802180314424
    C            1.516077448002    -0.361898099955     0.016442562497
    C            1.465698912956    -0.801361957849     1.468775095617
    H            1.834983276032     0.666751179341    -0.076458582210
    H            2.192602254998    -0.984106176616    -0.550850611221
    H            2.456514032257    -0.740254076611     1.907677869551
    H            0.805959591823    -0.165011163803     2.050434828736
    H            1.117698423186    -1.825277191903     1.547966689265

  Mulliken Charges: (a.u.)
   Center  Symbol    Alpha    Beta     Spin     Total
       1     O     4.26831  4.26831  0.00000 -0.53663
       2     C     2.62097  2.62097  0.00000  0.75806
       3     C     3.28337  3.28337  0.00000 -0.56674
       4     O     4.31362  4.31362  0.00000 -0.62724
       5     H     0.39796  0.39796  0.00000  0.20408
       6     H     0.39782  0.39782  0.00000  0.20437
       7     H     0.40450  0.40450  0.00000  0.19100
       8     C     3.00873  3.00873  0.00000 -0.01745
       9     C     3.25568  3.25568  0.00000 -0.51136
      10     H     0.40180  0.40180  0.00000  0.19639
      11     H     0.40787  0.40787  0.00000  0.18426
      12     H     0.41399  0.41399  0.00000  0.17201
      13     H     0.41402  0.41402  0.00000  0.17196
      14     H     0.41135  0.41135  0.00000  0.17730

   Total alpha = 24.00000, Total beta = 24.00000, Total charge = -0.00000
