                              Psi4 1.0.54 Driver

  ==> Input File <==

--------------------------------------------------------------------------
set {
	reference rhf
	basis cc-pvtz
}

set_num_threads( 4 )
memory 2 gb

molecule MOL {
0 1

H	 -0.000105	 1.988529	 0.748933
O	 -0.000098	 1.879786	 -0.188206
C	 -0.000014	 0.545691	 -0.532416
C	 1.286017	 0.193750	 -1.282109
C	 -1.285999	 0.193585	 -1.282108
H	 0.000022	 -0.032476	 0.379934
F	 2.317751	 0.448474	 -0.515623
F	 1.336630	 -1.070726	 -1.617148
F	 1.414457	 0.913164	 -2.376331
F	 -2.317766	 0.448159	 -0.515619
F	 -1.336440	 -1.070895	 -1.617163
F	 -1.414538	 0.912994	 -2.376323

	symmetry c1
}
set optking {
	frozen_dihedral = ("
		6 3 2 1
	")
}

ee,wfn = optimize('scf', return_wfn=True)
oeprop( wfn, 'DIPOLE', 'QUADRUPOLE', 'MULLIKEN_CHARGES')
f=open( 'psi4out.xyz', 'w' )
f.write( "12  " )
f.write( str(ee) + "\n" )
f.write( MOL.save_string_xyz() )
f.close()
--------------------------------------------------------------------------

    Molecular point group: c1
  Charge       = 0
  Multiplicity = 1
  Basis Set: CC-PVTZ
  Basis Set:
  @DF-RHF Final Energy:  -786.58564107947188
    Total Energy =                       -786.5856410794723388
    Molecular point group: c1
  Basis Set: CC-PVTZ
  Basis Set:
  Basis Set: CC-PVTZ
  Basis Set:
  @DF-RHF Final Energy:  -786.58703350491476
    Total Energy =                       -786.5870335049148707
  Basis Set: CC-PVTZ
  Basis Set:
  Basis Set: CC-PVTZ
  Basis Set:
  @DF-RHF Final Energy:  -786.58729876292409
    Total Energy =                       -786.5872987629243198
  Basis Set: CC-PVTZ
  Basis Set:
  Basis Set: CC-PVTZ
  Basis Set:
  @DF-RHF Final Energy:  -786.58732313381313
    Total Energy =                       -786.5873231338132427
  Basis Set: CC-PVTZ
  Basis Set:
  Basis Set: CC-PVTZ
  Basis Set:
  @DF-RHF Final Energy:  -786.58732708027162
    Total Energy =                       -786.5873270802719617
  Basis Set: CC-PVTZ
  Basis Set:
  Charge       = 0
  Multiplicity = 1
  Basis Set: CC-PVTZ
  Basis Set:

    Orbital Energies (a.u.)
    -----------------------

    Doubly Occupied:

       1A    -26.351462     2A    -26.351459     3A    -26.350080
       4A    -26.350080     5A    -26.348725     6A    -26.348723
       7A    -20.609459     8A    -11.514592     9A    -11.514584
      10A    -11.351871    11A     -1.765797    12A     -1.760466
      13A     -1.660408    14A     -1.658064    15A     -1.655952
      16A     -1.655767    17A     -1.439121    18A     -1.103310
      19A     -0.996532    20A     -0.938930    21A     -0.865773
      22A     -0.862186    23A     -0.857010    24A     -0.845611
      25A     -0.834903    26A     -0.785797    27A     -0.771765
      28A     -0.732026    29A     -0.725369    30A     -0.724212
      31A     -0.719410    32A     -0.685001    33A     -0.680235
      34A     -0.673777    35A     -0.672246    36A     -0.662480
      37A     -0.657432    38A     -0.624280    39A     -0.622123
      40A     -0.560954    41A     -0.508630

  @DF-RHF Final Energy:  -786.58732760120654

   => Energetics <=

    Nuclear Repulsion Energy =            670.0708999594079387
    One-Electron Energy =               -2427.7232560628435749
    Two-Electron Energy =                 971.0650285022293247
    DFT Exchange-Correlation Energy =       0.0000000000000000
    Empirical Dispersion Energy =           0.0000000000000000
    PCM Polarization Energy =               0.0000000000000000
    EFP Energy =                            0.0000000000000000
    Total Energy =                       -786.5873276012061979
    Molecular point group: c1
  Basis Set: CC-PVTZ
  Basis Set:

  -Total Gradient:
     Atom            X                  Y                   Z
    ------   -----------------  -----------------  -----------------
       1       -0.000000003995     0.000026359355     0.000019572855
       2       -0.000000001686    -0.000026449469     0.000026755609
       3       -0.000000074038     0.000086794863    -0.000010926278
       4       -0.000014997016     0.000087218095    -0.000133374225
       5        0.000015130174     0.000087302455    -0.000133273933
       6        0.000000005508    -0.000001787774    -0.000005000813
       7        0.000025273547    -0.000008250877     0.000044006657
       8       -0.000024472802    -0.000084384546    -0.000000900295
       9       -0.000010387936    -0.000037041684     0.000075102827
      10       -0.000025232610    -0.000008304006     0.000043943320
      11        0.000024384214    -0.000084300972    -0.000001014149
      12        0.000010376634    -0.000037155434     0.000075108430

  **** Optimization is complete! (in 6 steps) ****
    Final optimized geometry and variables:
    Molecular point group: c1

    Geometry (in Angstrom), charge = 0, multiplicity = 1:

    H           -0.000314361550     1.674052371296     1.973394262561
    O           -0.000497854055     1.539076358698     1.044146775647
    C            0.000098404117     0.195050649357     0.727920451248
    C            1.286020911397    -0.121730710190    -0.035118161724
    C           -1.285915217370    -0.123035153556    -0.034421567584
    H            0.000659369442    -0.444601229359     1.601306330549
    F            2.312996630898     0.151601017905     0.738231579939
    F            1.355004714317    -1.393667989196    -0.351496673824
    F            1.406268488944     0.579850753451    -1.130389403608
    F           -2.312748382096     0.149255705479     0.739484462167
    F           -1.353781583055    -1.395041797241    -0.350762815854
    F           -1.407467938377     0.578422990938    -1.129627698325

  Mulliken Charges: (a.u.)
   Center  Symbol    Alpha    Beta     Spin     Total
       1     H     0.38040  0.38040  0.00000  0.23920
       2     O     4.18725  4.18725  0.00000 -0.37450
       3     C     3.00202  3.00202  0.00000 -0.00403
       4     C     2.67889  2.67889  0.00000  0.64222
       5     C     2.67889  2.67889  0.00000  0.64222
       6     H     0.44473  0.44473  0.00000  0.11053
       7     F     4.60784  4.60784  0.00000 -0.21567
       8     F     4.60538  4.60538  0.00000 -0.21077
       9     F     4.60069  4.60069  0.00000 -0.20138
      10     F     4.60784  4.60784  0.00000 -0.21567
      11     F     4.60538  4.60538  0.00000 -0.21077
      12     F     4.60069  4.60069  0.00000 -0.20138

   Total alpha = 41.00000, Total beta = 41.00000, Total charge = -0.00000

*** Psi4 exiting successfully. Buy a developer a beer!
