                              Psi4 1.0.54 Driver

  ==> Input File <==

--------------------------------------------------------------------------
set {
	reference rhf
	basis cc-pvtz
}

set_num_threads( 4 )
memory 2 gb

molecule MOL {
0 1

H	 -1.535689	 -1.252851	 -0.656426
O	 -2.321472	 -0.864941	 -0.318626
C	 -2.021813	 0.336996	 0.342658
C	 -0.669613	 0.837286	 -0.127252
H	 -2.780861	 1.084746	 0.127159
H	 -2.006390	 0.184138	 1.420053
C	 0.490865	 -0.082543	 0.241244
H	 -0.708709	 0.967192	 -1.204587
H	 -0.507562	 1.822272	 0.303070
C	 1.839800	 0.429565	 -0.255472
H	 0.305636	 -1.070211	 -0.165276
H	 0.527397	 -0.195943	 1.322876
C	 3.001144	 -0.485193	 0.119072
H	 1.804373	 0.541073	 -1.335756
H	 2.020437	 1.423114	 0.146921
H	 2.866892	 -1.477297	 -0.298806
H	 3.943543	 -0.095749	 -0.249061
H	 3.085064	 -0.590459	 1.195790

	symmetry c1
}
set optking {
	frozen_dihedral = ("
		1 2 3 4
	")
}

ee,wfn = optimize('scf', return_wfn=True)
oeprop( wfn, 'DIPOLE', 'QUADRUPOLE', 'MULLIKEN_CHARGES')
f=open( 'psi4out.xyz', 'w' )
f.write( "18  " )
f.write( str(ee) + "\n" )
f.write( MOL.save_string_xyz() )
f.close()
--------------------------------------------------------------------------

    Molecular point group: c1
  Charge       = 0
  Multiplicity = 1
  Basis Set: CC-PVTZ
  Basis Set:
  @DF-RHF Final Energy:  -271.28180918196557
    Total Energy =                       -271.2818091819655137
    Molecular point group: c1
  Basis Set: CC-PVTZ
  Basis Set:
  Basis Set: CC-PVTZ
  Basis Set:
  @DF-RHF Final Energy:  -271.28311569243192
    Total Energy =                       -271.2831156924318066
  Basis Set: CC-PVTZ
  Basis Set:
  Basis Set: CC-PVTZ
  Basis Set:
  @DF-RHF Final Energy:  -271.28395723895756
    Total Energy =                       -271.2839572389576688
  Basis Set: CC-PVTZ
  Basis Set:
  Basis Set: CC-PVTZ
  Basis Set:
  @DF-RHF Final Energy:  -271.28404742358640
    Total Energy =                       -271.2840474235865713
  Basis Set: CC-PVTZ
  Basis Set:
  Basis Set: CC-PVTZ
  Basis Set:
  @DF-RHF Final Energy:  -271.28405214421593
    Total Energy =                       -271.2840521442157069
  Basis Set: CC-PVTZ
  Basis Set:
  Charge       = 0
  Multiplicity = 1
  Basis Set: CC-PVTZ
  Basis Set:

    Orbital Energies (a.u.)
    -----------------------

    Doubly Occupied:

       1A    -20.542465     2A    -11.264559     3A    -11.222845
       4A    -11.220885     5A    -11.220645     6A    -11.212168
       7A     -1.361024     8A     -1.087662     9A     -1.015955
      10A     -0.924437    11A     -0.835717    12A     -0.798753
      13A     -0.673944    14A     -0.659009    15A     -0.627824
      16A     -0.614491    17A     -0.578452    18A     -0.561694
      19A     -0.539390    20A     -0.506200    21A     -0.497840
      22A     -0.479514    23A     -0.472949    24A     -0.450683
      25A     -0.432789

  @DF-RHF Final Energy:  -271.28405277589167

   => Energetics <=

    Nuclear Repulsion Energy =            249.0749324886047020
    One-Electron Energy =                -861.1141810783617530
    Two-Electron Energy =                 340.7551958138654413
    DFT Exchange-Correlation Energy =       0.0000000000000000
    Empirical Dispersion Energy =           0.0000000000000000
    PCM Polarization Energy =               0.0000000000000000
    EFP Energy =                            0.0000000000000000
    Total Energy =                       -271.2840527758916664
    Molecular point group: c1
  Basis Set: CC-PVTZ
  Basis Set:

  -Total Gradient:
     Atom            X                  Y                   Z
    ------   -----------------  -----------------  -----------------
       1       -0.000290259390     0.000656353837    -0.001258637982
       2        0.000564473470    -0.001180212649     0.001760616389
       3       -0.000726189173     0.000943984732    -0.001171428038
       4        0.000417248315    -0.000514491601     0.000618152475
       5        0.000027808972     0.000041053346     0.000013264661
       6        0.000021819390     0.000025209729    -0.000001902611
       7        0.000004676609     0.000011849469     0.000024320779
       8       -0.000011020442     0.000013564920     0.000000762957
       9        0.000017819830    -0.000001417042    -0.000000750224
      10       -0.000000398236     0.000008902359     0.000008265095
      11       -0.000008007157     0.000006250993     0.000001807140
      12        0.000013617624    -0.000000374570     0.000010836027
      13       -0.000021326986    -0.000015207680    -0.000007755460
      14       -0.000000479520     0.000005675557     0.000002896873
      15       -0.000001798252    -0.000005502272     0.000006641277
      16        0.000004290396    -0.000002967739     0.000002353909
      17       -0.000011905808     0.000000779872    -0.000005322873
      18       -0.000000369643     0.000006548739    -0.000004120394

  **** Optimization is complete! (in 6 steps) ****
    Final optimized geometry and variables:
    Molecular point group: c1

    Geometry (in Angstrom), charge = 0, multiplicity = 1:

    H           -1.868454975027    -1.229077917533    -0.430550823630
    O           -2.521730485304    -0.705106715751    -0.007993460102
    C           -1.957680810094     0.472965379066     0.509151901967
    C           -0.625287488086     0.850954455745    -0.119483684640
    H           -2.675724448093     1.265902529831     0.341711925436
    H           -1.834450158163     0.368494595046     1.584568367093
    C            0.517617634032    -0.115330085299     0.188798054544
    H           -0.755592608427     0.939941838208    -1.195238645385
    H           -0.357593371492     1.839910838757     0.241500274156
    C            1.844615925958     0.310206509279    -0.433909177449
    H            0.276110751807    -1.116051111363    -0.163244239416
    H            0.634381554732    -0.197073006185     1.266422138054
    C            2.986822653517    -0.652139216486    -0.126783456651
    H            1.724452056473     0.395869439402    -1.510283847836
    H            2.103835573264     1.303047016663    -0.077102069058
    H            2.772814763690    -1.647201796644    -0.502549259557
    H            3.912396547382    -0.319602253134    -0.582030759978
    H            3.154182158519    -0.732741840990     0.942031292620

  Mulliken Charges: (a.u.)
   Center  Symbol    Alpha    Beta     Spin     Total
       1     H     0.39083  0.39083  0.00000  0.21835
       2     O     4.20888  4.20888  0.00000 -0.41775
       3     C     2.95656  2.95656  0.00000  0.08688
       4     C     3.10854  3.10854  0.00000 -0.21708
       5     H     0.45880  0.45880  0.00000  0.08240
       6     H     0.47594  0.47594  0.00000  0.04812
       7     C     3.08883  3.08883  0.00000 -0.17766
       8     H     0.44902  0.44902  0.00000  0.10196
       9     H     0.45281  0.45281  0.00000  0.09438
      10     C     3.08429  3.08429  0.00000 -0.16858
      11     H     0.46202  0.46202  0.00000  0.07596
      12     H     0.45110  0.45110  0.00000  0.09781
      13     C     3.14943  3.14943  0.00000 -0.29886
      14     H     0.45333  0.45333  0.00000  0.09333
      15     H     0.45290  0.45290  0.00000  0.09420
      16     H     0.45506  0.45506  0.00000  0.08988
      17     H     0.44740  0.44740  0.00000  0.10520
      18     H     0.45427  0.45427  0.00000  0.09147

   Total alpha = 25.00000, Total beta = 25.00000, Total charge = -0.00000

*** Psi4 exiting successfully. Buy a developer a beer!
