                              Psi4 1.0.54 Driver

  ==> Input File <==

--------------------------------------------------------------------------
set {
	reference rhf
	basis cc-pvtz
}

set_num_threads( 4 )
memory 2 gb

molecule MOL {
0 1

H	 -3.266631	 0.896998	 1.878171
O	 -2.569869	 0.331678	 1.600445
C	 -2.302264	 0.528872	 0.237390
C	 -1.175688	 -0.398187	 -0.171891
H	 -3.188442	 0.320720	 -0.358542
H	 -2.017673	 1.562349	 0.050941
C	 0.196029	 0.106276	 0.266738
H	 -1.201873	 -0.515469	 -1.250677
H	 -1.365975	 -1.378728	 0.252664
C	 1.330220	 -0.826136	 -0.155230
H	 0.359542	 1.097229	 -0.145561
H	 0.212134	 0.218135	 1.348778
C	 2.719700	 -0.407669	 0.328325
H	 1.339388	 -0.911200	 -1.239363
H	 1.119001	 -1.821953	 0.224128
C	 3.241564	 0.893452	 -0.276737
H	 3.418299	 -1.204729	 0.093035
H	 2.711776	 -0.323368	 1.411960
H	 3.254204	 0.841071	 -1.360784
H	 2.634460	 1.745075	 0.005842
H	 4.254264	 1.092401	 0.054971

	symmetry c1
}
set optking {
	frozen_dihedral = ("
		2 3 4 8
	")
}

ee,wfn = optimize('scf', return_wfn=True)
oeprop( wfn, 'DIPOLE', 'QUADRUPOLE', 'MULLIKEN_CHARGES')
f=open( 'psi4out.xyz', 'w' )
f.write( "21  " )
f.write( str(ee) + "\n" )
f.write( MOL.save_string_xyz() )
f.close()
--------------------------------------------------------------------------

    Molecular point group: c1
  Charge       = 0
  Multiplicity = 1
  Basis Set: CC-PVTZ
  Basis Set:
  @DF-RHF Final Energy:  -310.33203554345829
    Total Energy =                       -310.3320355434581757
    Molecular point group: c1
  Basis Set: CC-PVTZ
  Basis Set:
  Basis Set: CC-PVTZ
  Basis Set:
  @DF-RHF Final Energy:  -310.33222454657556
    Total Energy =                       -310.3322245465755032
  Basis Set: CC-PVTZ
  Basis Set:
  Basis Set: CC-PVTZ
  Basis Set:
  @DF-RHF Final Energy:  -310.33228971912285
    Total Energy =                       -310.3322897191228549
  Basis Set: CC-PVTZ
  Basis Set:
  Basis Set: CC-PVTZ
  Basis Set:
  @DF-RHF Final Energy:  -310.33228862188656
    Total Energy =                       -310.3322886218866188
  Basis Set: CC-PVTZ
  Basis Set:
  Basis Set: CC-PVTZ
  Basis Set:
  @DF-RHF Final Energy:  -310.33229392288649
    Total Energy =                       -310.3322939228866062
  Basis Set: CC-PVTZ
  Basis Set:
  Charge       = 0
  Multiplicity = 1
  Basis Set: CC-PVTZ
  Basis Set:

    Orbital Energies (a.u.)
    -----------------------

    Doubly Occupied:

       1A    -20.545963     2A    -11.265583     3A    -11.209951
       4A    -11.209782     5A    -11.207758     6A    -11.206050
       7A    -11.203572     8A     -1.363469     9A     -1.083252
      10A     -1.031725    11A     -0.954768    12A     -0.876412
      13A     -0.803728    14A     -0.774777    15A     -0.708246
      16A     -0.640961    17A     -0.628484    18A     -0.603423
      19A     -0.585861    20A     -0.570361    21A     -0.534674
      22A     -0.525784    23A     -0.506277    24A     -0.486966
      25A     -0.480804    26A     -0.459272    27A     -0.454147
      28A     -0.446526    29A     -0.427229

  @DF-RHF Final Energy:  -310.33229455607290

   => Energetics <=

    Nuclear Repulsion Energy =            316.3957045523409874
    One-Electron Energy =               -1047.8643832774157545
    Two-Electron Energy =                 421.1363841690019854
    DFT Exchange-Correlation Energy =       0.0000000000000000
    Empirical Dispersion Energy =           0.0000000000000000
    PCM Polarization Energy =               0.0000000000000000
    EFP Energy =                            0.0000000000000000
    Total Energy =                       -310.3322945560728385
    Molecular point group: c1
  Basis Set: CC-PVTZ
  Basis Set:

  -Total Gradient:
     Atom            X                  Y                   Z
    ------   -----------------  -----------------  -----------------
       1       -0.000001880080    -0.000003133720     0.000011218272
       2       -0.001513851915    -0.001662203693    -0.000540163733
       3        0.001579752148     0.001621997934     0.000735777510
       4        0.001699282014     0.002503590574    -0.000507125000
       5       -0.000007637764    -0.000004785027     0.000000877374
       6       -0.000004932663    -0.000005283760     0.000006983251
       7       -0.000023166012    -0.000019397111    -0.000003010044
       8       -0.001750136321    -0.002410818006     0.000280511156
       9        0.000007518624    -0.000020071073     0.000003851605
      10       -0.000005930835     0.000007043041    -0.000009412025
      11       -0.000009427487    -0.000005897937     0.000004867547
      12        0.000006682990     0.000009043957     0.000010963718
      13        0.000007774914    -0.000004859836     0.000002460339
      14       -0.000000666429    -0.000003127374     0.000004517772
      15        0.000010847735     0.000000738000    -0.000001486083
      16       -0.000002332774    -0.000002326027    -0.000007079081
      17        0.000010708651    -0.000000613069     0.000000558073
      18       -0.000004683650    -0.000000406156     0.000004079918
      19       -0.000001615668     0.000000080678    -0.000001620407
      20        0.000001206952     0.000003092635     0.000004433558
      21        0.000002487571    -0.000002664031    -0.000001203722

  **** Optimization is complete! (in 6 steps) ****
    Final optimized geometry and variables:
    Molecular point group: c1

    Geometry (in Angstrom), charge = 0, multiplicity = 1:

    H           -3.359506596626     0.829782983657     1.664592395744
    O           -2.706054255768     0.237121126308     1.342371310731
    C           -2.473322800807     0.468540702033    -0.023828258195
    C           -1.326884467325    -0.416212927005    -0.479220902110
    H           -3.366626103658     0.231362681163    -0.595967223444
    H           -2.237157142829     1.515418072471    -0.201741146002
    C            0.048401923250     0.075242205883    -0.038550891370
    H           -1.370550865266    -0.514944465851    -1.560481668990
    H           -1.506575586470    -1.410212818304    -0.080790850286
    C            1.173661119077    -0.874949823524    -0.442630309639
    H            0.222023855308     1.059179603591    -0.463895477120
    H            0.049413212107     0.198252839588     1.039920159540
    C            2.565769354798    -0.463404138808     0.039625227011
    H            1.187327634697    -0.978761838281    -1.525702695218
    H            0.951245089393    -1.862106987102    -0.047194776108
    C            3.104862178020     0.820533611651    -0.586562618133
    H            3.257098315144    -1.272025106955    -0.177458789121
    H            2.552654927622    -0.358762255420     1.121218125379
    H            3.121228510920     0.748529677996    -1.669539505582
    H            2.506215015657     1.683637817490    -0.321614946841
    H            4.118537937119     1.014009743497    -0.254398323866

  Mulliken Charges: (a.u.)
   Center  Symbol    Alpha    Beta     Spin     Total
       1     H     0.39550  0.39550  0.00000  0.20900
       2     O     4.19967  4.19967  0.00000 -0.39934
       3     C     2.97140  2.97140  0.00000  0.05721
       4     C     3.09110  3.09110  0.00000 -0.18219
       5     H     0.46591  0.46591  0.00000  0.06818
       6     H     0.47497  0.47497  0.00000  0.05007
       7     C     3.09305  3.09305  0.00000 -0.18610
       8     H     0.45275  0.45275  0.00000  0.09450
       9     H     0.45092  0.45092  0.00000  0.09815
      10     C     3.09496  3.09496  0.00000 -0.18992
      11     H     0.45638  0.45638  0.00000  0.08723
      12     H     0.44666  0.44666  0.00000  0.10668
      13     C     3.08978  3.08978  0.00000 -0.17956
      14     H     0.45586  0.45586  0.00000  0.08829
      15     H     0.44878  0.44878  0.00000  0.10244
      16     C     3.15257  3.15257  0.00000 -0.30514
      17     H     0.44921  0.44921  0.00000  0.10158
      18     H     0.45424  0.45424  0.00000  0.09152
      19     H     0.45560  0.45560  0.00000  0.08880
      20     H     0.45393  0.45393  0.00000  0.09214
      21     H     0.44676  0.44676  0.00000  0.10648

   Total alpha = 29.00000, Total beta = 29.00000, Total charge = -0.00000

*** Psi4 exiting successfully. Buy a developer a beer!
