  ==> Input File <==

--------------------------------------------------------------------------
set {
	reference rhf
	basis cc-pvtz
}

set_num_threads( 4 )
memory 2 gb

molecule MOL {
0 1

H	 -2.746766	 -0.373848	 -0.765400
O	 -2.346257	 -0.289210	 0.080372
C	 -1.183935	 0.486039	 -0.009831
C	 0.062853	 -0.375310	 0.027457
H	 -1.178881	 1.094526	 -0.908634
H	 -1.184406	 1.155156	 0.838676
O	 1.172093	 0.457955	 -0.054438
H	 0.052476	 -1.081302	 -0.804627
H	 0.076323	 -0.955658	 0.947560
C	 2.395478	 -0.199028	 -0.000366
H	 2.505946	 -0.901710	 -0.823354
H	 3.174616	 0.545641	 -0.071768
H	 2.513730	 -0.742241	 0.934223

	symmetry c1
}
set optking {
	frozen_dihedral = ("
		1 2 3 5
	")
}

ee = optimize('scf')
oeprop('DIPOLE', 'QUADRUPOLE', 'MULLIKEN_CHARGES')
f=open( 'psi4out.xyz', 'w' )
f.write( "13  " )
f.write( str(ee) + "\n" )
f.write( MOL.save_string_xyz() )
f.close()
--------------------------------------------------------------------------

    Molecular point group: c1
  Charge       = 0
  Multiplicity = 1
  Basis Set: CC-PVTZ
  Basis Set:
  @DF-RHF Final Energy:  -268.06156534061159
    Total Energy =                       -268.0615653406115939
    Molecular point group: c1
  Basis Set: CC-PVTZ
  Basis Set:
  Basis Set: CC-PVTZ
  Basis Set:
  @DF-RHF Final Energy:  -268.06168754731527
    Total Energy =                       -268.0616875473152732
  Basis Set: CC-PVTZ
  Basis Set:
  Basis Set: CC-PVTZ
  Basis Set:
  @DF-RHF Final Energy:  -268.06173069661952
    Total Energy =                       -268.0617306966194064
  Basis Set: CC-PVTZ
  Basis Set:
  Charge       = 0
  Multiplicity = 1
  Basis Set: CC-PVTZ
  Basis Set:

    Orbital Energies (a.u.)
    -----------------------

    Doubly Occupied:

       1A    -20.553910     2A    -20.551933     3A    -11.267937
       4A    -11.266117     5A    -11.265902     6A     -1.389850
       7A     -1.368153     8A     -1.019160     9A     -0.912910
      10A     -0.837640    11A     -0.715397    12A     -0.677407
      13A     -0.655108    14A     -0.641970    15A     -0.601679
      16A     -0.559488    17A     -0.548447    18A     -0.489187
      19A     -0.484329    20A     -0.440649    21A     -0.422501

  @DF-RHF Final Energy:  -268.06173161598656

   => Energetics <=

    Nuclear Repulsion Energy =            190.4244992972003843
    One-Electron Energy =                -743.6331137064626091
    Two-Electron Energy =                 285.1468827932753243
    DFT Exchange-Correlation Energy =       0.0000000000000000
    Empirical Dispersion Energy =           0.0000000000000000
    PCM Polarization Energy =               0.0000000000000000
    EFP Energy =                            0.0000000000000000
    Total Energy =                       -268.0617316159869574
    Molecular point group: c1
  Basis Set: CC-PVTZ
  Basis Set:

  -Total Gradient:
     Atom            X                  Y                   Z
    ------   -----------------  -----------------  -----------------
       1       -0.000488064128     0.000695323223     0.000144323462
       2        0.000761389388    -0.000957870170    -0.000372138941
       3       -0.000640936035     0.000867229157     0.000648703146
       4        0.000032255854    -0.000029542677    -0.000007226251
       5        0.000325687195    -0.000600126709    -0.000368527934
       6        0.000007907327     0.000033503280    -0.000003262736
       7        0.000005452497     0.000025294165    -0.000018301037
       8        0.000023263517    -0.000021220817    -0.000007208721
       9       -0.000014913070     0.000001286834    -0.000010152730
      10        0.000000098165    -0.000027010251    -0.000008283673
      11        0.000008413971     0.000001801780     0.000000404565
      12       -0.000018357098     0.000007952735    -0.000001297798
      13       -0.000002197591     0.000003379451     0.000002968650

  **** Optimization is complete! (in 4 steps) ****
    Final optimized geometry and variables:
    Molecular point group: c1

    Geometry (in Angstrom), charge = 0, multiplicity = 1:

    H           -2.732750718621    -0.411703222756    -0.752512349751
    O           -2.333164584460    -0.302761897234     0.089002267035
    C           -1.181240135949     0.490972911342    -0.012324332290
    C            0.061087685885    -0.375856549658     0.017686772598
    H           -1.183021923878     1.082930888582    -0.920967995617
    H           -1.164290951738     1.174105001280     0.826319089642
    O            1.174048473422     0.455159715329    -0.049678546494
    H            0.047323080196    -1.071513219986    -0.821030171061
    H            0.068698275417    -0.965618902278     0.931876280636
    C            2.394303938966    -0.207370701961     0.000692669770
    H            2.504931927994    -0.900867974455    -0.830017398783
    H            3.176984534691     0.534722140830    -0.059003496811
    H            2.507036112511    -0.762262051749     0.929142901855

  Mulliken Charges: (a.u.)
   Center  Symbol    Alpha    Beta     Spin     Total
       1     H     0.39078  0.39078  0.00000  0.21844
       2     O     4.20566  4.20566  0.00000 -0.41132
       3     C     2.97461  2.97461  0.00000  0.05077
       4     C     2.95892  2.95892  0.00000  0.08216
       5     H     0.46789  0.46789  0.00000  0.06422
       6     H     0.45646  0.45646  0.00000  0.08707
       7     O     4.17640  4.17640  0.00000 -0.35280
       8     H     0.47971  0.47971  0.00000  0.04058
       9     H     0.47058  0.47058  0.00000  0.05884
      10     C     3.03128  3.03128  0.00000 -0.06256
      11     H     0.47123  0.47123  0.00000  0.05755
      12     H     0.44653  0.44653  0.00000  0.10695
      13     H     0.46995  0.46995  0.00000  0.06011

   Total alpha = 21.00000, Total beta = 21.00000, Total charge = -0.00000
