  ==> Input File <==

--------------------------------------------------------------------------
set {
	reference rhf
	basis 6-31G*
}

set_num_threads( 4 )
memory 2 gb

molecule MOL {
0 1

H	 2.591676	 2.013956	 0.335017
O	 3.341076	 1.666752	 -0.126416
C	 3.569581	 0.339145	 0.272707
C	 2.539767	 -0.640285	 -0.279495
H	 4.553106	 0.084646	 -0.100901
H	 3.608576	 0.269204	 1.359154
C	 1.115811	 -0.397273	 0.226630
H	 2.556196	 -0.582511	 -1.364741
H	 2.852081	 -1.648031	 -0.010655
C	 0.115918	 -1.429151	 -0.302766
H	 0.797950	 0.599468	 -0.066350
H	 1.109961	 -0.420744	 1.316472
C	 -0.939634	 -0.869116	 -1.263240
H	 0.658900	 -2.234231	 -0.794562
H	 -0.395138	 -1.882043	 0.544235
C	 -0.391353	 -0.367554	 -2.602009
H	 -1.671845	 -1.649704	 -1.459111
H	 -1.482090	 -0.063377	 -0.770937
C	 -1.491414	 0.082829	 -3.565574
H	 0.192782	 -1.158793	 -3.069811
H	 0.293531	 0.461125	 -2.439132
C	 -0.946471	 0.589970	 -4.900306
H	 -2.173228	 -0.745488	 -3.745872
H	 -2.082197	 0.866688	 -3.096078
H	 -0.377504	 -0.182283	 -5.410333
H	 -1.749917	 0.899612	 -5.561541
H	 -0.289077	 1.443030	 -4.757181

	symmetry c1
}
set optking {
	frozen_dihedral = ("
		14 10 7 4
	")
}

ee = optimize('scf')
oeprop('DIPOLE', 'QUADRUPOLE', 'MULLIKEN_CHARGES')
f=open( 'psi4out.xyz', 'w' )
f.write( "27  " )
f.write( str(ee) + "\n" )
f.write( MOL.save_string_xyz() )
f.close()
--------------------------------------------------------------------------

    Molecular point group: c1
  Charge       = 0
  Multiplicity = 1
  Basis Set: 6-31G*
  Basis Set:
  @DF-RHF Final Energy:  -388.27639889799144
    Total Energy =                       -388.2763988979909300
    Molecular point group: c1
  Basis Set: 6-31G*
  Basis Set:
  Basis Set: 6-31G*
  Basis Set:
  @DF-RHF Final Energy:  -388.27670914493632
    Total Energy =                       -388.2767091449366035
  Basis Set: 6-31G*
  Basis Set:
  Basis Set: 6-31G*
  Basis Set:
  @DF-RHF Final Energy:  -388.27680213010308
    Total Energy =                       -388.2768021301028512
  Basis Set: 6-31G*
  Basis Set:
  Basis Set: 6-31G*
  Basis Set:
  @DF-RHF Final Energy:  -388.27680125963087
    Total Energy =                       -388.2768012596312701
  Basis Set: 6-31G*
  Basis Set:
  Basis Set: 6-31G*
  Basis Set:
  @DF-RHF Final Energy:  -388.27680631411516
    Total Energy =                       -388.2768063141156745
  Basis Set: 6-31G*
  Basis Set:
  Basis Set: 6-31G*
  Basis Set:
  @DF-RHF Final Energy:  -388.27681243799810
    Total Energy =                       -388.2768124379979326
  Basis Set: 6-31G*
  Basis Set:
  Charge       = 0
  Multiplicity = 1
  Basis Set: 6-31G*
  Basis Set:

    Orbital Energies (a.u.)
    -----------------------

    Doubly Occupied:

       1A    -20.552466     2A    -11.266895     3A    -11.219880
       4A    -11.216688     5A    -11.215097     6A    -11.214522
       7A    -11.214018     8A    -11.211900     9A    -11.206862
      10A     -1.359094    11A     -1.093309    12A     -1.058674
      13A     -1.010087    14A     -0.946979    15A     -0.887526
      16A     -0.822183    17A     -0.795893    18A     -0.778755
      19A     -0.694828    20A     -0.646703    21A     -0.631808
      22A     -0.616357    23A     -0.609157    24A     -0.582276
      25A     -0.571715    26A     -0.551383    27A     -0.543600
      28A     -0.522407    29A     -0.504679    30A     -0.501143
      31A     -0.481165    32A     -0.472077    33A     -0.467277
      34A     -0.458603    35A     -0.452869    36A     -0.437559
      37A     -0.422290

  @DF-RHF Final Energy:  -388.27681301739267

   => Energetics <=

    Nuclear Repulsion Energy =            469.0543462141567943
    One-Electron Energy =               -1456.1848706525290709
    Two-Electron Energy =                 598.8537114209789252
    DFT Exchange-Correlation Energy =       0.0000000000000000
    Empirical Dispersion Energy =           0.0000000000000000
    PCM Polarization Energy =               0.0000000000000000
    EFP Energy =                            0.0000000000000000
    Total Energy =                       -388.2768130173933514
    Molecular point group: c1
  Basis Set: 6-31G*
  Basis Set:

  -Total Gradient:
     Atom            X                  Y                   Z
    ------   -----------------  -----------------  -----------------
       1       -0.000009469784     0.000007683473    -0.000004428019
       2       -0.000018772257    -0.000004713858     0.000020710685
       3        0.000023132790    -0.000001192324    -0.000024698281
       4        0.000112492748    -0.000354704006     0.000507945339
       5        0.000005412479    -0.000011110448    -0.000001705329
       6       -0.000003765333    -0.000003628603    -0.000005463863
       7       -0.000191098030     0.000623866074    -0.000863182692
       8        0.000004993645    -0.000005094861     0.000002590210
       9        0.000002515467     0.000000284642     0.000011170018
      10        0.000108759159    -0.000654041627     0.001107023180
      11        0.000009051778     0.000005087527     0.000003967119
      12        0.000001319108    -0.000006323611     0.000001405078
      13        0.000005611962     0.000005144670     0.000006160012
      14       -0.000043847151     0.000433501884    -0.000747466277
      15       -0.000002527991    -0.000016116300    -0.000004707995
      16       -0.000008486513    -0.000005655947    -0.000013820547
      17       -0.000007228891     0.000003162333     0.000012974814
      18        0.000012241137     0.000006701093    -0.000000396814
      19        0.000003108844     0.000014538031     0.000008204613
      20       -0.000016330668    -0.000016615955     0.000004164757
      21        0.000012947268    -0.000010933609    -0.000018093732
      22        0.000003072309     0.000014549229     0.000006680628
      23        0.000015868961    -0.000009689455    -0.000016567151
      24       -0.000018835162    -0.000014947586     0.000007236315
      25       -0.000001791915    -0.000000228578    -0.000000087937
      26        0.000000059909     0.000001091372     0.000000941120
      27        0.000001566129    -0.000000613562    -0.000000555253

  **** Optimization is complete! (in 7 steps) ****
    Final optimized geometry and variables:
    Molecular point group: c1

    Geometry (in Angstrom), charge = 0, multiplicity = 1:

    H            1.736428702482     2.110174698280     1.676772317476
    O            2.486002897798     1.766697828758     1.212934335780
    C            2.746555371628     0.453522998099     1.640488169281
    C            1.741418639465    -0.561053009128     1.107695248551
    H            3.736428551657     0.215109971228     1.272967773596
    H            2.786142932389     0.407680546954     2.728230754016
    C            0.312145305633    -0.344440575555     1.613893531564
    H            1.758648480441    -0.527146355125     0.021805994674
    H            2.075614190963    -1.555620255023     1.398081888451
    C           -0.702890295540    -1.387053995785     1.090328317769
    H           -0.021935529380     0.652400719238     1.337898791020
    H            0.325189182823    -0.366918052401     2.701731104913
    C           -1.757048274931    -0.826439471009     0.127492587902
    H           -0.171923427127    -2.194553761307     0.591011934639
    H           -1.218080779227    -1.841972960138     1.931124928737
    C           -1.197392173550    -0.340339616397    -1.211693623132
    H           -2.498627932783    -1.599520430938    -0.063547202449
    H           -2.288772874134    -0.010839668903     0.615200300756
    C           -2.278312172664     0.194003617282    -2.153703355155
    H           -0.672718728132    -1.161397216068    -1.698110591622
    H           -0.456309849146     0.438466695854    -1.046341793120
    C           -1.719538070420     0.675972927158    -3.492041375347
    H           -3.018358306198    -0.583657788497    -2.330755228333
    H           -2.806497252723     1.011940665619    -1.668033381103
    H           -1.215135440178    -0.129171584136    -4.018888156392
    H           -2.509255232001     1.049032528858    -4.136953677541
    H           -1.000776535030     1.478143322446    -3.350888018370

  Mulliken Charges: (a.u.)
   Center  Symbol    Alpha    Beta     Spin     Total
       1     H     0.27990  0.27990  0.00000  0.44019
       2     O     4.37118  4.37118  0.00000 -0.74236
       3     C     2.99825  2.99825  0.00000  0.00350
       4     C     3.16322  3.16322  0.00000 -0.32644
       5     H     0.41440  0.41440  0.00000  0.17119
       6     H     0.43207  0.43207  0.00000  0.13587
       7     C     3.16567  3.16567  0.00000 -0.33133
       8     H     0.41340  0.41340  0.00000  0.17320
       9     H     0.42375  0.42375  0.00000  0.15250
      10     C     3.15529  3.15529  0.00000 -0.31059
      11     H     0.42376  0.42376  0.00000  0.15249
      12     H     0.42200  0.42200  0.00000  0.15599
      13     C     3.15431  3.15431  0.00000 -0.30861
      14     H     0.42008  0.42008  0.00000  0.15984
      15     H     0.41861  0.41861  0.00000  0.16279
      16     C     3.15402  3.15402  0.00000 -0.30804
      17     H     0.42238  0.42238  0.00000  0.15523
      18     H     0.42463  0.42463  0.00000  0.15073
      19     C     3.15098  3.15098  0.00000 -0.30196
      20     H     0.42447  0.42447  0.00000  0.15106
      21     H     0.41898  0.41898  0.00000  0.16205
      22     C     3.23940  3.23940  0.00000 -0.47880
      23     H     0.42347  0.42347  0.00000  0.15306
      24     H     0.42364  0.42364  0.00000  0.15271
      25     H     0.42186  0.42186  0.00000  0.15628
      26     H     0.41976  0.41976  0.00000  0.16048
      27     H     0.42052  0.42052  0.00000  0.15897

   Total alpha = 37.00000, Total beta = 37.00000, Total charge = -0.00000
