  ==> Input File <==

--------------------------------------------------------------------------
set {
	reference rhf
	basis 6-31G*
}

set_num_threads( 4 )
memory 2 gb

molecule MOL {
0 1

H	 -1.763319	 0.479509	 -2.655570
O	 -1.986710	 0.224302	 -1.771628
C	 -1.021737	 0.715707	 -0.880372
C	 0.266191	 -0.083965	 -0.966582
H	 -0.811684	 1.767058	 -1.056145
H	 -1.436995	 0.624911	 0.113493
O	 1.171513	 0.459272	 -0.058250
H	 0.667427	 -0.039689	 -1.980993
H	 0.062863	 -1.129330	 -0.741963
C	 2.397842	 -0.198080	 -0.002151
H	 2.508049	 -0.905315	 -0.822092
H	 3.173794	 0.550865	 -0.078850
H	 2.517602	 -0.735921	 0.936026

	symmetry c1
}
set optking {
	frozen_dihedral = ("
		4 7 10 13
	")
}

ee = optimize('scf')
oeprop('DIPOLE', 'QUADRUPOLE', 'MULLIKEN_CHARGES')
f=open( 'psi4out.xyz', 'w' )
f.write( "13  " )
f.write( str(ee) + "\n" )
f.write( MOL.save_string_xyz() )
f.close()
--------------------------------------------------------------------------

    Molecular point group: c1
  Charge       = 0
  Multiplicity = 1
  Basis Set: 6-31G*
  Basis Set:
  @DF-RHF Final Energy:  -267.94668806897437
    Total Energy =                       -267.9466880689744244
    Molecular point group: c1
  Basis Set: 6-31G*
  Basis Set:
  Basis Set: 6-31G*
  Basis Set:
  @DF-RHF Final Energy:  -267.94696386912210
    Total Energy =                       -267.9469638691218734
  Basis Set: 6-31G*
  Basis Set:
  Basis Set: 6-31G*
  Basis Set:
  @DF-RHF Final Energy:  -267.94703240629156
    Total Energy =                       -267.9470324062915552
  Basis Set: 6-31G*
  Basis Set:
  Charge       = 0
  Multiplicity = 1
  Basis Set: 6-31G*
  Basis Set:

    Orbital Energies (a.u.)
    -----------------------

    Doubly Occupied:

       1A    -20.559805     2A    -20.558731     3A    -11.271268
       4A    -11.269818     5A    -11.268391     6A     -1.384260
       7A     -1.364262     8A     -1.018241     9A     -0.913624
      10A     -0.841436    11A     -0.708489    12A     -0.671179
      13A     -0.658610    14A     -0.635591    15A     -0.596611
      16A     -0.568178    17A     -0.548978    18A     -0.489202
      19A     -0.481604    20A     -0.437847    21A     -0.416452

  @DF-RHF Final Energy:  -267.94703299624155

   => Energetics <=

    Nuclear Repulsion Energy =            189.9047421749386331
    One-Electron Energy =                -742.3783945920855558
    Two-Electron Energy =                 284.5266194209056039
    DFT Exchange-Correlation Energy =       0.0000000000000000
    Empirical Dispersion Energy =           0.0000000000000000
    PCM Polarization Energy =               0.0000000000000000
    EFP Energy =                            0.0000000000000000
    Total Energy =                       -267.9470329962413189
    Molecular point group: c1
  Basis Set: 6-31G*
  Basis Set:

  -Total Gradient:
     Atom            X                  Y                   Z
    ------   -----------------  -----------------  -----------------
       1       -0.000021085792    -0.000006309732    -0.000015347135
       2       -0.000074615227     0.000018133833    -0.000065892290
       3        0.000010682288    -0.000045209632    -0.000020490967
       4        0.000406533092     0.000788074788    -0.000846428033
       5       -0.000006887153     0.000004881848     0.000011009152
       6        0.000033972260    -0.000000451410    -0.000002581529
       7       -0.000358307516    -0.000821626152     0.001508291696
       8        0.000011920574     0.000017732893     0.000026223941
       9       -0.000004679120     0.000015795689    -0.000014150197
      10       -0.000643509554    -0.001287378278    -0.001230168670
      11        0.000001350095    -0.000003987581    -0.000006169968
      12        0.000007576515    -0.000000535562    -0.000002783109
      13        0.000637049533     0.001320879297     0.000658487109

  **** Optimization is complete! (in 4 steps) ****
    Final optimized geometry and variables:
    Molecular point group: c1

    Geometry (in Angstrom), charge = 0, multiplicity = 1:

    H           -1.931756224144     0.277612114604    -1.888428237016
    O           -2.149798140361     0.017407793751    -1.004627612931
    C           -1.174784797214     0.496458093188    -0.116994466523
    C            0.105738681356    -0.313527179736    -0.214621036538
    H           -0.956382173762     1.546527791282    -0.289810399768
    H           -1.584205324450     0.405417404668     0.879219362250
    O            1.019971297377     0.225166057225     0.689460333616
    H            0.498612527873    -0.268557567456    -1.231499159823
    H           -0.107779034012    -1.356630276524     0.008538727454
    C            2.262128884137    -0.412513640885     0.764311565886
    H            2.402762104375    -1.123862643620    -0.043375912258
    H            3.043962331574     0.335638318989     0.703246481813
    H            2.360125558476    -0.932365984149     1.712004679159

  Mulliken Charges: (a.u.)
   Center  Symbol    Alpha    Beta     Spin     Total
       1     H     0.28131  0.28131  0.00000  0.43737
       2     O     4.37096  4.37096  0.00000 -0.74192
       3     C     3.00496  3.00496  0.00000 -0.00991
       4     C     2.99631  2.99631  0.00000  0.00739
       5     H     0.42234  0.42234  0.00000  0.15531
       6     H     0.40849  0.40849  0.00000  0.18303
       7     O     4.31214  4.31214  0.00000 -0.62428
       8     H     0.43727  0.43727  0.00000  0.12546
       9     H     0.42328  0.42328  0.00000  0.15344
      10     C     3.07685  3.07685  0.00000 -0.15370
      11     H     0.42804  0.42804  0.00000  0.14392
      12     H     0.41744  0.41744  0.00000  0.16512
      13     H     0.42062  0.42062  0.00000  0.15877

   Total alpha = 21.00000, Total beta = 21.00000, Total charge =  0.00000
