  ==> Input File <==

--------------------------------------------------------------------------
set {
	reference rhf
	basis cc-pvtz
}

set_num_threads( 4 )
memory 2 gb

molecule MOL {
0 1

H	 2.467378	 -1.016124	 0.672976
N	 2.433987	 -0.362316	 -0.080024
C	 1.263552	 0.494993	 0.021953
H	 2.416464	 -0.889971	 -0.927733
C	 -0.016533	 -0.325589	 -0.026925
H	 1.280915	 1.180773	 -0.818522
H	 1.263064	 1.106893	 0.925038
C	 -1.280353	 0.525521	 0.047747
H	 -0.016686	 -0.912532	 -0.939714
H	 -0.014099	 -1.037598	 0.796369
C	 -2.560681	 -0.301323	 -0.007747
H	 -1.279957	 1.241025	 -0.770189
H	 -1.270445	 1.110526	 0.963468
H	 -2.617064	 -0.872870	 -0.928010
H	 -3.439525	 0.331102	 0.043462
H	 -2.609427	 -1.002736	 0.818585

	symmetry c1
}
set optking {
	frozen_dihedral = ("
		1 2 3 6
	")
}

ee = optimize('scf')
oeprop('DIPOLE', 'QUADRUPOLE', 'MULLIKEN_CHARGES')
f=open( 'psi4out.xyz', 'w' )
f.write( "16  " )
f.write( str(ee) + "\n" )
f.write( MOL.save_string_xyz() )
f.close()
--------------------------------------------------------------------------

    Molecular point group: c1
  Charge       = 0
  Multiplicity = 1
  Basis Set: CC-PVTZ
  Basis Set:
  @DF-RHF Final Energy:  -212.39829925777909
    Total Energy =                       -212.3982992577791720
    Molecular point group: c1
  Basis Set: CC-PVTZ
  Basis Set:
  Basis Set: CC-PVTZ
  Basis Set:
  @DF-RHF Final Energy:  -212.40004104298910
    Total Energy =                       -212.4000410429893577
  Basis Set: CC-PVTZ
  Basis Set:
  Basis Set: CC-PVTZ
  Basis Set:
  @DF-RHF Final Energy:  -212.40025301941057
    Total Energy =                       -212.4002530194103429
  Basis Set: CC-PVTZ
  Basis Set:
  Basis Set: CC-PVTZ
  Basis Set:
  @DF-RHF Final Energy:  -212.40025580346909
    Total Energy =                       -212.4002558034692356
  Basis Set: CC-PVTZ
  Basis Set:
  Charge       = 0
  Multiplicity = 1
  Basis Set: CC-PVTZ
  Basis Set:

    Orbital Energies (a.u.)
    -----------------------

    Doubly Occupied:

       1A    -15.526672     2A    -11.238203     3A    -11.215553
       4A    -11.211156     5A    -11.208545     6A     -1.178872
       7A     -1.062879     8A     -0.960203     9A     -0.848416
      10A     -0.796850    11A     -0.679490    12A     -0.626359
      13A     -0.598626    14A     -0.588508    15A     -0.553396
      16A     -0.527355    17A     -0.499372    18A     -0.490905
      19A     -0.471509    20A     -0.466148    21A     -0.379215

  @DF-RHF Final Energy:  -212.40025596886764

   => Energetics <=

    Nuclear Repulsion Energy =            186.3794423560522375
    One-Electron Energy =                -655.3029334430925701
    Two-Electron Energy =                 256.5232351181726926
    DFT Exchange-Correlation Energy =       0.0000000000000000
    Empirical Dispersion Energy =           0.0000000000000000
    PCM Polarization Energy =               0.0000000000000000
    EFP Energy =                            0.0000000000000000
    Total Energy =                       -212.4002559688676683
    Molecular point group: c1
  Basis Set: CC-PVTZ
  Basis Set:

  -Total Gradient:
     Atom            X                  Y                   Z
    ------   -----------------  -----------------  -----------------
       1       -0.000156872013    -0.000240164037    -0.000203043718
       2        0.000172087553     0.000238731778     0.000200995800
       3        0.000129750941     0.000206354282     0.000163047047
       4       -0.000004983550     0.000001347549     0.000007355951
       5        0.000021197527     0.000010244917     0.000014976435
       6       -0.000144181164    -0.000210643494    -0.000184051776
       7       -0.000005716840    -0.000003872001     0.000003917682
       8        0.000019260229    -0.000008014371    -0.000006684394
       9       -0.000001748445     0.000005916492     0.000010971200
      10        0.000003844851    -0.000000459754    -0.000000972856
      11       -0.000026515212     0.000004307728    -0.000005546761
      12       -0.000002589074     0.000003441233     0.000004152720
      13        0.000001688781    -0.000005101816    -0.000002372970
      14        0.000000718035    -0.000000185454    -0.000000461295
      15       -0.000009253487    -0.000006600448    -0.000002441770
      16        0.000003311865     0.000004697397     0.000000158706

  **** Optimization is complete! (in 5 steps) ****
    Final optimized geometry and variables:
    Molecular point group: c1

    Geometry (in Angstrom), charge = 0, multiplicity = 1:

    H            2.536254020457    -0.975581400035     0.690110209727
    N            2.495838966381    -0.305110074631    -0.048959140149
    C            1.270443301583     0.472316946873     0.019569825048
    H            2.548884895638    -0.812686114560    -0.907296543228
    C           -0.026033873381    -0.332939481239    -0.022129736686
    H            1.280694956632     1.180399606158    -0.802541201056
    H            1.299762240169     1.062512116328     0.929669590676
    C           -1.278327036017     0.535688718170     0.052173023196
    H           -0.048129897073    -0.923537798124    -0.935739359866
    H           -0.029140358063    -1.043990951342     0.801621588097
    C           -2.572236808959    -0.270589249360     0.010173896907
    H           -1.271379288908     1.246703531722    -0.769573297411
    H           -1.252297272894     1.125885494471     0.964201804947
    H           -2.645084300429    -0.845652795253    -0.906914926826
    H           -3.440395757569     0.376124452565     0.064442527805
    H           -2.626195886447    -0.966907459538     0.840401381903

  Mulliken Charges: (a.u.)
   Center  Symbol    Alpha    Beta     Spin     Total
       1     H     0.43249  0.43249  0.00000  0.13502
       2     N     3.68835  3.68835  0.00000 -0.37670
       3     C     3.03011  3.03011  0.00000 -0.06022
       4     H     0.43248  0.43248  0.00000  0.13504
       5     C     3.08525  3.08525  0.00000 -0.17050
       6     H     0.45327  0.45327  0.00000  0.09346
       7     H     0.45303  0.45303  0.00000  0.09394
       8     C     3.08946  3.08946  0.00000 -0.17891
       9     H     0.46004  0.46004  0.00000  0.07993
      10     H     0.46003  0.46003  0.00000  0.07994
      11     C     3.14848  3.14848  0.00000 -0.29696
      12     H     0.45442  0.45442  0.00000  0.09116
      13     H     0.45439  0.45439  0.00000  0.09122
      14     H     0.45496  0.45496  0.00000  0.09007
      15     H     0.44831  0.44831  0.00000  0.10338
      16     H     0.45494  0.45494  0.00000  0.09012

   Total alpha = 21.00000, Total beta = 21.00000, Total charge =  0.00000
