  ==> Input File <==

--------------------------------------------------------------------------
set {
	reference rhf
	basis cc-pvtz
}

set_num_threads( 4 )
memory 2 gb

molecule MOL {
0 1

H	 -1.835082	 1.385983	 0.000069
C	 -1.300516	 0.441153	 -0.000028
O	 -0.006604	 0.654344	 -0.000106
O	 -1.828920	 -0.612308	 0.000113
C	 0.852093	 -0.482521	 -0.000161
C	 0.060719	 -1.658078	 -0.522169
H	 1.204359	 -0.654160	 1.007017
H	 1.710641	 -0.271709	 -0.621786
H	 -0.797582	 -1.855123	 0.107484
H	 0.687127	 -2.541991	 -0.535020
H	 -0.288781	 -1.470738	 -1.529503

	symmetry c1
}
set optking {
	frozen_dihedral = ("
		7 5 3 2
	")
}

ee = optimize('scf')
oeprop('DIPOLE', 'QUADRUPOLE', 'MULLIKEN_CHARGES')
f=open( 'psi4out.xyz', 'w' )
f.write( "11  " )
f.write( str(ee) + "\n" )
f.write( MOL.save_string_xyz() )
f.close()
--------------------------------------------------------------------------

    Molecular point group: c1
  Charge       = 0
  Multiplicity = 1
  Basis Set: CC-PVTZ
  Basis Set:
  @DF-RHF Final Energy:  -266.87354658942104
    Total Energy =                       -266.8735465894212666
    Molecular point group: c1
  Basis Set: CC-PVTZ
  Basis Set:
  Basis Set: CC-PVTZ
  Basis Set:
  @DF-RHF Final Energy:  -266.90905820960791
    Total Energy =                       -266.9090582096079061
  Basis Set: CC-PVTZ
  Basis Set:
  Basis Set: CC-PVTZ
  Basis Set:
  @DF-RHF Final Energy:  -266.91050230839085
    Total Energy =                       -266.9105023083907895
  Basis Set: CC-PVTZ
  Basis Set:
  Basis Set: CC-PVTZ
  Basis Set:
  @DF-RHF Final Energy:  -266.91631263390479
    Total Energy =                       -266.9163126339047949
  Basis Set: CC-PVTZ
  Basis Set:
  @DF-RHF Final Energy:  -266.92111497879864
    Total Energy =                       -266.9211149787985846
  @DF-RHF Final Energy:  -266.92199806608846
    Total Energy =                       -266.9219980660884630
  Basis Set: CC-PVTZ
  Basis Set:
  @DF-RHF Final Energy:  -266.92219197836386
    Total Energy =                       -266.9221919783639692
  Basis Set: CC-PVTZ
  Basis Set:
  Basis Set: CC-PVTZ
  Basis Set:
  @DF-RHF Final Energy:  -266.92223232691799
    Total Energy =                       -266.9222323269179924
  Basis Set: CC-PVTZ
  Basis Set:
  Basis Set: CC-PVTZ
  Basis Set:
  @DF-RHF Final Energy:  -266.92223866154887
    Total Energy =                       -266.9222386615488176
  Basis Set: CC-PVTZ
  Basis Set:
  Charge       = 0
  Multiplicity = 1
  Basis Set: CC-PVTZ
  Basis Set:

    Orbital Energies (a.u.)
    -----------------------

    Doubly Occupied:

       1A    -20.602633     2A    -20.542068     3A    -11.370525
       4A    -11.294997     5A    -11.219656     6A     -1.472614
       7A     -1.376522     8A     -1.050326     9A     -0.919914
      10A     -0.795941    11A     -0.726406    12A     -0.686726
      13A     -0.671330    14A     -0.617298    15A     -0.580804
      16A     -0.546785    17A     -0.529801    18A     -0.505459
      19A     -0.456459    20A     -0.448199

  @DF-RHF Final Energy:  -266.92223928907930

   => Energetics <=

    Nuclear Repulsion Energy =            182.6826284136440677
    One-Electron Energy =                -726.3808074327764643
    Two-Electron Energy =                 276.7759397300533237
    DFT Exchange-Correlation Energy =       0.0000000000000000
    Empirical Dispersion Energy =           0.0000000000000000
    PCM Polarization Energy =               0.0000000000000000
    EFP Energy =                            0.0000000000000000
    Total Energy =                       -266.9222392890790161
    Molecular point group: c1
  Basis Set: CC-PVTZ
  Basis Set:

  -Total Gradient:
     Atom            X                  Y                   Z
    ------   -----------------  -----------------  -----------------
       1        0.000002198444    -0.000013263709     0.000003624509
       2       -0.000153288561    -0.000125604115    -0.004645055337
       3        0.001105766714     0.000752617884     0.006829243770
       4       -0.000050780500     0.000015380114     0.000010151112
       5       -0.004758092459    -0.003330747995    -0.001170404525
       6       -0.000014898691     0.000004014463    -0.000015183483
       7        0.003867466676     0.002685204490    -0.001015985179
       8        0.000003798330     0.000008351906    -0.000003912421
       9       -0.000004918302    -0.000002873474     0.000008847349
      10        0.000000556477     0.000003093691     0.000003912294
      11        0.000002191870     0.000003826745    -0.000005238088

  **** Optimization is complete! (in 10 steps) ****
    Final optimized geometry and variables:
    Molecular point group: c1

    Geometry (in Angstrom), charge = 0, multiplicity = 1:

    H           -1.205178982603     1.931960890593    -0.045705839145
    C           -0.850325100109     0.915680323086     0.101091446356
    O            0.459282658406     0.912335337185     0.065505006515
    O           -1.570628486560     0.000955115681     0.281064320523
    C            1.277252214812    -0.261751564817     0.070537230162
    C            0.694747962245    -1.535234608886    -0.509724223606
    H            1.635015675102    -0.398066394880     1.082519232871
    H            2.131362847542     0.037495077268    -0.519615918410
    H           -0.075368162393    -1.963323920800     0.108724024016
    H            1.509554618701    -2.245227224860    -0.602717079262
    H            0.286885800267    -1.363862891629    -1.497865381417

  Mulliken Charges: (a.u.)
   Center  Symbol    Alpha    Beta     Spin     Total
       1     H     0.44731  0.44731  0.00000  0.10539
       2     C     2.84401  2.84401  0.00000  0.31198
       3     O     4.14782  4.14782  0.00000 -0.29565
       4     O     4.19603  4.19603  0.00000 -0.39207
       5     C     2.97407  2.97407  0.00000  0.05186
       6     C     3.15251  3.15251  0.00000 -0.30502
       7     H     0.45399  0.45399  0.00000  0.09202
       8     H     0.44983  0.44983  0.00000  0.10034
       9     H     0.43500  0.43500  0.00000  0.13001
      10     H     0.45052  0.45052  0.00000  0.09896
      11     H     0.44891  0.44891  0.00000  0.10218

   Total alpha = 20.00000, Total beta = 20.00000, Total charge = -0.00000
