  ==> Input File <==

--------------------------------------------------------------------------
set {
	reference rhf
	basis 6-31G*
}

set_num_threads( 1 )
memory 2 gb

molecule MOL {
0 1

H	 -4.031818	 -0.453427	 -0.000094
C	 -2.967712	 -0.297022	 -0.000064
C	 -2.458620	 0.992929	 0.000032
C	 -2.109895	 -1.385637	 -0.000122
H	 -3.124998	 1.836319	 0.000077
C	 -1.090278	 1.193236	 0.000070
H	 -2.506361	 -2.384847	 -0.000198
C	 -0.739812	 -1.187531	 -0.000085
H	 -0.678594	 2.184290	 0.000146
C	 -0.226438	 0.104061	 0.000012
H	 -0.072310	 -2.027032	 -0.000131
C	 1.239129	 0.373821	 0.000060
O	 1.639395	 1.067127	 -1.055268
O	 1.983084	 0.008463	 0.855573
C	 3.021068	 1.369015	 -1.135993
H	 3.328932	 1.962085	 -0.287299
H	 3.146606	 1.928323	 -2.049923
H	 3.605503	 0.461080	 -1.167786

	symmetry c1
}
set optking {
	frozen_dihedral = ("
		12 13 15 16,
		10 12 13 15
	")
}

ee = energy('scf')
oeprop('DIPOLE', 'QUADRUPOLE', 'MULLIKEN_CHARGES')
f=open( 'psi4out.xyz', 'w' )
f.write( "18  " )
f.write( str(ee) + "\n" )
f.write( MOL.save_string_xyz() )
f.close()
--------------------------------------------------------------------------

    Molecular point group: c1

    Geometry (in Angstrom), charge = 0, multiplicity = 1:

       Center              X                  Y                   Z               Mass
    ------------   -----------------  -----------------  -----------------  -----------------
           H         -3.984886829743    -0.708421828805     0.149552874484     1.007825032070
           C         -2.920780829743    -0.552016828805     0.149582874484    12.000000000000
           C         -2.411688829743     0.737934171195     0.149678874484    12.000000000000
           C         -2.062963829743    -1.640631828805     0.149524874484    12.000000000000
           H         -3.078066829743     1.581324171195     0.149723874484     1.007825032070
           C         -1.043346829743     0.938241171195     0.149716874484    12.000000000000
           H         -2.459429829743    -2.639841828805     0.149448874484     1.007825032070
           C         -0.692880829743    -1.442525828805     0.149561874484    12.000000000000
           H         -0.631662829743     1.929295171195     0.149792874484     1.007825032070
           C         -0.179506829743    -0.150933828805     0.149658874484    12.000000000000
           H         -0.025378829743    -2.282026828805     0.149515874484     1.007825032070
           C          1.286060170257     0.118826171195     0.149706874484    12.000000000000
           O          1.686326170257     0.812132171195    -0.905621125516    15.994914619560
           O          2.030015170257    -0.246531828805     1.005219874484    15.994914619560
           C          3.067999170257     1.114020171195    -0.986346125516    12.000000000000
           H          3.375863170257     1.707090171195    -0.137652125516     1.007825032070
           H          3.193537170257     1.673328171195    -1.900276125516     1.007825032070
           H          3.652434170257     0.206085171195    -1.018139125516     1.007825032070

  Charge       = 0
  Multiplicity = 1
  Basis Set: 6-31G*
  Basis Set:

    Orbital Energies (a.u.)
    -----------------------

    Doubly Occupied:

       1A    -20.609622     2A    -20.548332     3A    -11.379650
       4A    -11.283402     5A    -11.250758     6A    -11.245045
       7A    -11.243995     8A    -11.242006     9A    -11.239719
      10A    -11.239370    11A     -1.474342    12A     -1.365148
      13A     -1.166583    14A     -1.049516    15A     -1.026340
      16A     -0.979152    17A     -0.861012    18A     -0.838252
      19A     -0.779626    20A     -0.738226    21A     -0.686204
      22A     -0.678875    23A     -0.675260    24A     -0.630601
      25A     -0.629539    26A     -0.598268    27A     -0.590516
      28A     -0.549652    29A     -0.535085    30A     -0.517426
      31A     -0.507858    32A     -0.501669    33A     -0.458307
      34A     -0.444500    35A     -0.343128    36A     -0.342310

  @DF-RHF Final Energy:  -457.34115843456567

   => Energetics <=

    Nuclear Repulsion Energy =            491.9988910641412190
    One-Electron Energy =               -1598.1818813994723314
    Two-Electron Energy =                 648.8418319007661239
    DFT Exchange-Correlation Energy =       0.0000000000000000
    Empirical Dispersion Energy =           0.0000000000000000
    PCM Polarization Energy =               0.0000000000000000
    EFP Energy =                            0.0000000000000000
    Total Energy =                       -457.3411584345650454

  Mulliken Charges: (a.u.)
   Center  Symbol    Alpha    Beta     Spin     Total
       1     H     0.39627  0.39627  0.00000  0.20746
       2     C     3.09568  3.09568  0.00000 -0.19136
       3     C     3.10116  3.10116  0.00000 -0.20232
       4     C     3.10217  3.10217  0.00000 -0.20434
       5     H     0.39576  0.39576  0.00000  0.20847
       6     C     3.09413  3.09413  0.00000 -0.18825
       7     H     0.39518  0.39518  0.00000  0.20964
       8     C     3.09565  3.09565  0.00000 -0.19131
       9     H     0.38971  0.38971  0.00000  0.22058
      10     C     3.01867  3.01867  0.00000 -0.03734
      11     H     0.38748  0.38748  0.00000  0.22503
      12     C     2.63384  2.63384  0.00000  0.73232
      13     O     4.29835  4.29835  0.00000 -0.59671
      14     O     4.27947  4.27947  0.00000 -0.55894
      15     C     3.09379  3.09379  0.00000 -0.18757
      16     H     0.40821  0.40821  0.00000  0.18359
      17     H     0.40682  0.40682  0.00000  0.18636
      18     H     0.40766  0.40766  0.00000  0.18469

   Total alpha = 36.00000, Total beta = 36.00000, Total charge =  0.00000
