  ==> Input File <==

--------------------------------------------------------------------------
set {
	reference rhf
	basis 6-31G*
}

set_num_threads( 4 )
memory 2 gb

molecule MOL {
0 1

O	 0.074228	 1.262779	 -0.000085
C	 0.028650	 0.075053	 -0.000277
C	 -1.233602	 -0.752807	 0.000328
O	 1.109162	 -0.694619	 -0.000298
C	 -2.501530	 0.091881	 0.000126
H	 -1.193807	 -1.406641	 -0.865785
H	 -1.193516	 -1.405779	 0.867015
H	 -2.545121	 0.729328	 -0.874513
H	 -3.377167	 -0.548497	 0.000561
H	 -2.544818	 0.730135	 0.874258
C	 2.102947	 -0.407057	 -0.967401
H	 1.700670	 -0.503575	 -1.965535
H	 2.887236	 -1.130616	 -0.808606
H	 2.484763	 0.594818	 -0.833482

	symmetry c1
}
set optking {
	frozen_dihedral = ("
		11 4 2 3
	")
}

ee = optimize('scf')
oeprop('DIPOLE', 'QUADRUPOLE', 'MULLIKEN_CHARGES')
f=open( 'psi4out.xyz', 'w' )
f.write( "14  " )
f.write( str(ee) + "\n" )
f.write( MOL.save_string_xyz() )
f.close()
--------------------------------------------------------------------------

    Molecular point group: c1
  Charge       = 0
  Multiplicity = 1
  Basis Set: 6-31G*
  Basis Set:
  @DF-RHF Final Energy:  -305.86026755758957
    Total Energy =                       -305.8602675575898502
    Molecular point group: c1
  Basis Set: 6-31G*
  Basis Set:
  Basis Set: 6-31G*
  Basis Set:
  @DF-RHF Final Energy:  -305.85821186631654
    Total Energy =                       -305.8582118663165375
  Basis Set: 6-31G*
  Basis Set:
  Basis Set: 6-31G*
  Basis Set:
  @DF-RHF Final Energy:  -305.86094509731618
    Total Energy =                       -305.8609450973164030
  Basis Set: 6-31G*
  Basis Set:
  Basis Set: 6-31G*
  Basis Set:
  @DF-RHF Final Energy:  -305.86108870046337
    Total Energy =                       -305.8610887004632559
  Basis Set: 6-31G*
  Basis Set:
  Basis Set: 6-31G*
  Basis Set:
  @DF-RHF Final Energy:  -305.86110943327753
    Total Energy =                       -305.8611094332779317
  Basis Set: 6-31G*
  Basis Set:
  Basis Set: 6-31G*
  Basis Set:
  @DF-RHF Final Energy:  -305.86111092102976
    Total Energy =                       -305.8611109210295353
  Basis Set: 6-31G*
  Basis Set:
  Charge       = 0
  Multiplicity = 1
  Basis Set: 6-31G*
  Basis Set:

    Orbital Energies (a.u.)
    -----------------------

    Doubly Occupied:

       1A    -20.593423     2A    -20.552309     3A    -11.374916
       4A    -11.286017     5A    -11.240752     6A    -11.217842
       7A     -1.463754     8A     -1.365406     9A     -1.063683
      10A     -0.977936    11A     -0.884395    12A     -0.766598
      13A     -0.700347    14A     -0.677377    15A     -0.672436
      16A     -0.620811    17A     -0.608665    18A     -0.554317
      19A     -0.540077    20A     -0.521558    21A     -0.509676
      22A     -0.496264    23A     -0.455571    24A     -0.437207

  @DF-RHF Final Energy:  -305.86111107506531

   => Energetics <=

    Nuclear Repulsion Energy =            246.6914711794279640
    One-Electron Energy =                -905.9424934836036982
    Two-Electron Energy =                 353.3899112291105666
    DFT Exchange-Correlation Energy =       0.0000000000000000
    Empirical Dispersion Energy =           0.0000000000000000
    PCM Polarization Energy =               0.0000000000000000
    EFP Energy =                            0.0000000000000000
    Total Energy =                       -305.8611110750651960
    Molecular point group: c1
  Basis Set: 6-31G*
  Basis Set:

  -Total Gradient:
     Atom            X                  Y                   Z
    ------   -----------------  -----------------  -----------------
       1        0.000029454961     0.000002466179     0.000160614588
       2       -0.001973335435    -0.001833265177     0.007441726317
       3        0.000200795069    -0.000501873993    -0.007058432830
       4        0.005029055161     0.007704899530     0.004292058279
       5        0.000014343285    -0.000007002604     0.000010431300
       6       -0.000001699465    -0.000000960346     0.000003762476
       7       -0.000002474430     0.000001309061     0.000005641657
       8        0.000003577683     0.000003093961    -0.000009107367
       9        0.000011430266    -0.000002625897     0.000000413665
      10       -0.000004485046     0.000002417997     0.000003747644
      11       -0.003298212992    -0.005375093185    -0.004850869610
      12       -0.000008708515    -0.000001388688    -0.000003711556
      13        0.000003821443     0.000003537399    -0.000003084981
      14       -0.000003561988     0.000004485767     0.000006810419

  **** Optimization is complete! (in 7 steps) ****
    Final optimized geometry and variables:
    Molecular point group: c1

    Geometry (in Angstrom), charge = 0, multiplicity = 1:

    O            0.101266288466     1.326752986131    -0.011154583730
    C            0.064695675448     0.152826307003     0.147833006303
    C           -1.192783719877    -0.679985105540     0.164926557474
    O            1.167545050655    -0.605113609794     0.233625907086
    C           -2.468952605472     0.145985176471     0.261311008291
    H           -1.170426136049    -1.264188752728    -0.752227841568
    H           -1.118123314794    -1.399675217625     0.973817764982
    H           -2.542443930644     0.845874519511    -0.561553651690
    H           -3.338258440329    -0.502462601405     0.239957194310
    H           -2.494277779174     0.716700670877     1.182417985922
    C            2.185077070821    -0.365143145356    -0.720523963696
    H            1.810459713645    -0.553087026296    -1.719870805943
    H            2.979511012013    -1.059505611688    -0.495792731415
    H            2.548610613500     0.649669329566    -0.653733815467

  Mulliken Charges: (a.u.)
   Center  Symbol    Alpha    Beta     Spin     Total
       1     O     4.27020  4.27020  0.00000 -0.54040
       2     C     2.60886  2.60886  0.00000  0.78227
       3     C     3.20640  3.20640  0.00000 -0.41280
       4     O     4.31318  4.31318  0.00000 -0.62636
       5     C     3.24057  3.24057  0.00000 -0.48114
       6     H     0.40311  0.40311  0.00000  0.19377
       7     H     0.39965  0.39965  0.00000  0.20070
       8     H     0.40767  0.40767  0.00000  0.18466
       9     H     0.41749  0.41749  0.00000  0.16503
      10     H     0.41129  0.41129  0.00000  0.17742
      11     C     3.09335  3.09335  0.00000 -0.18670
      12     H     0.41919  0.41919  0.00000  0.16162
      13     H     0.40620  0.40620  0.00000  0.18760
      14     H     0.40283  0.40283  0.00000  0.19434

   Total alpha = 24.00000, Total beta = 24.00000, Total charge =  0.00000
