  ==> Input File <==

--------------------------------------------------------------------------
set {
	reference rhf
	basis 6-31G*
}

set_num_threads( 4 )
memory 2 gb

molecule MOL {
0 1

H	 -2.499100	 -0.730091	 -0.745082
O	 -2.347518	 -0.290803	 0.079804
C	 -1.184022	 0.487508	 -0.006784
C	 0.062599	 -0.378592	 0.031606
H	 -1.176523	 1.099369	 -0.904519
H	 -1.187323	 1.153111	 0.844927
O	 -0.141251	 -1.463892	 -0.817127
H	 0.250654	 -0.719450	 1.051621
H	 0.924748	 0.208057	 -0.280046
C	 0.940788	 -2.335523	 -0.909822
H	 1.184145	 -2.771904	 0.057121
H	 0.664816	 -3.127508	 -1.592100
H	 1.825300	 -1.831204	 -1.293349

	symmetry c1
}
set optking {
	frozen_dihedral = ("
		8 4 3 5
	")
}

ee = optimize('scf')
oeprop('DIPOLE', 'QUADRUPOLE', 'MULLIKEN_CHARGES')
f=open( 'psi4out.xyz', 'w' )
f.write( "13  " )
f.write( str(ee) + "\n" )
f.write( MOL.save_string_xyz() )
f.close()
--------------------------------------------------------------------------

    Molecular point group: c1
  Charge       = 0
  Multiplicity = 1
  Basis Set: 6-31G*
  Basis Set:
  @DF-RHF Final Energy:  -267.95022531016491
    Total Energy =                       -267.9502253101649103
    Molecular point group: c1
  Basis Set: 6-31G*
  Basis Set:
  Basis Set: 6-31G*
  Basis Set:
  @DF-RHF Final Energy:  -267.95205718121480
    Total Energy =                       -267.9520571812149683
  Basis Set: 6-31G*
  Basis Set:
  Basis Set: 6-31G*
  Basis Set:
  @DF-RHF Final Energy:  -267.95273041233014
    Total Energy =                       -267.9527304123303111
  Basis Set: 6-31G*
  Basis Set:
  Basis Set: 6-31G*
  Basis Set:
  @DF-RHF Final Energy:  -267.95276219376990
    Total Energy =                       -267.9527621937697290
  Basis Set: 6-31G*
  Basis Set:
  Charge       = 0
  Multiplicity = 1
  Basis Set: 6-31G*
  Basis Set:

    Orbital Energies (a.u.)
    -----------------------

    Doubly Occupied:

       1A    -20.571488     2A    -20.546531     3A    -11.276135
       4A    -11.275645     5A    -11.268060     6A     -1.398535
       7A     -1.353012     8A     -1.020311     9A     -0.924656
      10A     -0.835633    11A     -0.702044    12A     -0.682956
      13A     -0.668613    14A     -0.635349    15A     -0.586439
      16A     -0.578924    17A     -0.545115    18A     -0.495300
      19A     -0.480144    20A     -0.435944    21A     -0.424651

  @DF-RHF Final Energy:  -267.95276494300958

   => Energetics <=

    Nuclear Repulsion Energy =            195.0213243215675334
    One-Electron Energy =                -752.5372071783503998
    Two-Electron Energy =                 289.5631179137733966
    DFT Exchange-Correlation Energy =       0.0000000000000000
    Empirical Dispersion Energy =           0.0000000000000000
    PCM Polarization Energy =               0.0000000000000000
    EFP Energy =                            0.0000000000000000
    Total Energy =                       -267.9527649430094129
    Molecular point group: c1
  Basis Set: 6-31G*
  Basis Set:

  -Total Gradient:
     Atom            X                  Y                   Z
    ------   -----------------  -----------------  -----------------
       1       -0.000043989379    -0.000053937434    -0.000032741373
       2       -0.000003253168    -0.000051028607    -0.000021094922
       3       -0.002330801643    -0.003422712335    -0.003021580734
       4       -0.003069375916    -0.004377400078    -0.000759174835
       5        0.002482716258     0.003656934724     0.002642158082
       6        0.000063535019    -0.000003067550     0.000016321782
       7        0.000049720296     0.000047356705     0.000069035806
       8        0.002910547343     0.004167642675     0.001126033516
       9       -0.000011637935     0.000003451790    -0.000006215000
      10       -0.000001989295     0.000010875295    -0.000037942168
      11       -0.000011033648     0.000002188618     0.000021400680
      12       -0.000021250833     0.000024645089     0.000006062132
      13       -0.000013187093    -0.000004948890    -0.000002262966

  **** Optimization is complete! (in 5 steps) ****
    Final optimized geometry and variables:
    Molecular point group: c1

    Geometry (in Angstrom), charge = 0, multiplicity = 1:

    H           -1.729540244618    -0.173557986271    -0.210405639515
    O           -1.805901688476     0.545139954060     0.404046010747
    C           -0.633835314468     1.295173724753     0.330680218716
    C            0.608259509911     0.420096895768     0.377808107395
    H           -0.604173065893     1.927377003902    -0.554770036099
    H           -0.627367503774     1.961293959405     1.185565977792
    O            0.431251969232    -0.628602049234    -0.525898988854
    H            0.781243092717     0.051836679880     1.387701548246
    H            1.481398667498     1.013214291594     0.104932827678
    C            1.475966168823    -1.551080468880    -0.560820308769
    H            1.619026299300    -2.021691301939     0.409074899186
    H            1.217503382593    -2.309688388725    -1.286319021657
    H            2.409048383515    -1.079164247623    -0.860143151090

  Mulliken Charges: (a.u.)
   Center  Symbol    Alpha    Beta     Spin     Total
       1     H     0.27019  0.27019  0.00000  0.45961
       2     O     4.37301  4.37301  0.00000 -0.74602
       3     C     2.99651  2.99651  0.00000  0.00699
       4     C     3.00389  3.00389  0.00000 -0.00778
       5     H     0.42664  0.42664  0.00000  0.14672
       6     H     0.41819  0.41819  0.00000  0.16363
       7     O     4.31445  4.31445  0.00000 -0.62891
       8     H     0.42483  0.42483  0.00000  0.15034
       9     H     0.42994  0.42994  0.00000  0.14012
      10     C     3.08007  3.08007  0.00000 -0.16014
      11     H     0.42542  0.42542  0.00000  0.14915
      12     H     0.41010  0.41010  0.00000  0.17979
      13     H     0.42676  0.42676  0.00000  0.14649

   Total alpha = 21.00000, Total beta = 21.00000, Total charge = -0.00000
