  ==> Input File <==

--------------------------------------------------------------------------
set {
	reference rhf
	basis 6-31G*
}

set_num_threads( 1 )
memory 2 gb

molecule MOL {
0 1

H	 3.893188	 0.355400	 -0.101367
N	 3.092854	 -0.246221	 -0.068770
C	 1.865559	 0.531981	 0.018834
H	 3.199514	 -0.826043	 0.741946
C	 0.645745	 -0.382037	 -0.029944
H	 1.841966	 1.207024	 -0.831236
H	 1.815756	 1.155410	 0.915079
C	 -0.679275	 0.379305	 0.025956
H	 0.698998	 -0.976915	 -0.937203
H	 0.693479	 -1.083846	 0.802235
C	 -1.489549	 0.274548	 -1.267434
H	 -0.483539	 1.428820	 0.240562
H	 -1.279345	 0.006223	 0.854553
C	 -2.810869	 1.040157	 -1.208543
H	 -0.892512	 0.647950	 -2.096488
H	 -1.688926	 -0.773018	 -1.483093
H	 -2.643152	 2.098247	 -1.027896
H	 -3.361620	 0.947238	 -2.139480
H	 -3.445698	 0.666236	 -0.410065

	symmetry c1
}
set optking {
	frozen_dihedral = ("
		6 3 5 9,
		12 8 11 15,
		1 2 3 6
	")
}

ee = energy('scf')
oeprop('DIPOLE', 'QUADRUPOLE', 'MULLIKEN_CHARGES')
f=open( 'psi4out.xyz', 'w' )
f.write( "19  " )
f.write( str(ee) + "\n" )
f.write( MOL.save_string_xyz() )
f.close()
--------------------------------------------------------------------------

    Molecular point group: c1

    Geometry (in Angstrom), charge = 0, multiplicity = 1:

       Center              X                  Y                   Z               Mass
    ------------   -----------------  -----------------  -----------------  -----------------
           H          3.755147634512     0.084803017876     0.312064162905     1.007825032070
           N          2.954813634512    -0.516817982124     0.344661162905    14.003074004780
           C          1.727518634512     0.261384017876     0.432265162905    12.000000000000
           H          3.061473634512    -1.096639982124     1.155377162905     1.007825032070
           C          0.507704634512    -0.652633982124     0.383487162905    12.000000000000
           H          1.703925634512     0.936427017876    -0.417804837095     1.007825032070
           H          1.677715634512     0.884813017876     1.328510162905     1.007825032070
           C         -0.817315365488     0.108708017876     0.439387162905    12.000000000000
           H          0.560957634512    -1.247511982124    -0.523771837095     1.007825032070
           H          0.555438634512    -1.354442982124     1.215666162905     1.007825032070
           C         -1.627589365488     0.003951017876    -0.854002837095    12.000000000000
           H         -0.621579365488     1.158223017876     0.653993162905     1.007825032070
           H         -1.417385365488    -0.264373982124     1.267984162905     1.007825032070
           C         -2.948909365488     0.769560017876    -0.795111837095    12.000000000000
           H         -1.030552365488     0.377353017876    -1.683056837095     1.007825032070
           H         -1.826966365488    -1.043614982124    -1.069661837095     1.007825032070
           H         -2.781192365488     1.827650017876    -0.614464837095     1.007825032070
           H         -3.499660365488     0.676641017876    -1.726048837095     1.007825032070
           H         -3.583738365488     0.395639017876     0.003366162905     1.007825032070

  Charge       = 0
  Multiplicity = 1
  Basis Set: 6-31G*
  Basis Set:

    Orbital Energies (a.u.)
    -----------------------

    Doubly Occupied:

       1A    -15.532309     2A    -11.240256     3A    -11.213536
       4A    -11.211292     5A    -11.207891     6A    -11.206694
       7A     -1.176615     8A     -1.072796     9A     -0.997447
      10A     -0.899281    11A     -0.818115    12A     -0.786131
      13A     -0.660741    14A     -0.635260    15A     -0.624262
      16A     -0.586809    17A     -0.569823    18A     -0.549075
      19A     -0.526360    20A     -0.499045    21A     -0.484717
      22A     -0.465991    23A     -0.452305    24A     -0.447994
      25A     -0.381223

  @DF-RHF Final Energy:  -251.34656636586109

   => Energetics <=

    Nuclear Repulsion Energy =            247.1710285472310318
    One-Electron Energy =                -828.5432247072662904
    Two-Electron Energy =                 330.0256297941740513
    DFT Exchange-Correlation Energy =       0.0000000000000000
    Empirical Dispersion Energy =           0.0000000000000000
    PCM Polarization Energy =               0.0000000000000000
    EFP Energy =                            0.0000000000000000
    Total Energy =                       -251.3465663658612357

  Mulliken Charges: (a.u.)
   Center  Symbol    Alpha    Beta     Spin     Total
       1     H     0.33262  0.33262  0.00000  0.33475
       2     N     3.92209  3.92209  0.00000 -0.84418
       3     C     3.06308  3.06308  0.00000 -0.12616
       4     H     0.33530  0.33530  0.00000  0.32939
       5     C     3.15425  3.15425  0.00000 -0.30849
       6     H     0.42091  0.42091  0.00000  0.15818
       7     H     0.43398  0.43398  0.00000  0.13205
       8     C     3.15787  3.15787  0.00000 -0.31574
       9     H     0.41020  0.41020  0.00000  0.17960
      10     H     0.42530  0.42530  0.00000  0.14940
      11     C     3.15285  3.15285  0.00000 -0.30570
      12     H     0.42266  0.42266  0.00000  0.15468
      13     H     0.42131  0.42131  0.00000  0.15739
      14     C     3.23990  3.23990  0.00000 -0.47980
      15     H     0.42222  0.42222  0.00000  0.15556
      16     H     0.42160  0.42160  0.00000  0.15680
      17     H     0.42230  0.42230  0.00000  0.15540
      18     H     0.41947  0.41947  0.00000  0.16106
      19     H     0.42209  0.42209  0.00000  0.15582

   Total alpha = 25.00000, Total beta = 25.00000, Total charge = -0.00000
