  ==> Input File <==

--------------------------------------------------------------------------
set {
	reference rhf
	basis cc-pvtz
}

set_num_threads( 4 )
memory 2 gb

molecule MOL {
0 1

O	 0.395927	 1.296676	 -0.000076
C	 0.503051	 0.114301	 -0.000074
C	 -0.701422	 -0.805636	 -0.000109
C	 1.858118	 -0.556123	 0.000212
C	 -1.696220	 -0.524545	 1.114990
H	 -1.176957	 -0.722836	 -0.973991
H	 -0.333752	 -1.826934	 0.056543
H	 -2.081368	 0.483990	 1.046099
H	 -2.529809	 -1.214286	 1.058060
H	 -1.230704	 -0.629896	 2.085777
H	 1.961106	 -1.191101	 -0.872843
H	 2.636688	 0.191085	 -0.000109
H	 1.961070	 -1.190284	 0.873873

	symmetry c1
}
set optking {
	frozen_dihedral = ("
		6 3 2 1
	")
}

ee = optimize('scf')
oeprop('DIPOLE', 'QUADRUPOLE', 'MULLIKEN_CHARGES')
f=open( 'psi4out.xyz', 'w' )
f.write( "13  " )
f.write( str(ee) + "\n" )
f.write( MOL.save_string_xyz() )
f.close()
--------------------------------------------------------------------------

    Molecular point group: c1
  Charge       = 0
  Multiplicity = 1
  Basis Set: CC-PVTZ
  Basis Set:
  @DF-RHF Final Energy:  -231.08091753564659
    Total Energy =                       -231.0809175356465914
    Molecular point group: c1
  Basis Set: CC-PVTZ
  Basis Set:
  Basis Set: CC-PVTZ
  Basis Set:
  @DF-RHF Final Energy:  -231.08147399214513
    Total Energy =                       -231.0814739921450496
  Basis Set: CC-PVTZ
  Basis Set:
  Basis Set: CC-PVTZ
  Basis Set:
  @DF-RHF Final Energy:  -231.08006322383650
    Total Energy =                       -231.0800632238364756
  Basis Set: CC-PVTZ
  Basis Set:
  Basis Set: CC-PVTZ
  Basis Set:
  @DF-RHF Final Energy:  -231.08163979272317
    Total Energy =                       -231.0816397927231378
  Basis Set: CC-PVTZ
  Basis Set:
  Basis Set: CC-PVTZ
  Basis Set:
  @DF-RHF Final Energy:  -231.08164752465314
    Total Energy =                       -231.0816475246531922
  Basis Set: CC-PVTZ
  Basis Set:
  Charge       = 0
  Multiplicity = 1
  Basis Set: CC-PVTZ
  Basis Set:

    Orbital Energies (a.u.)
    -----------------------

    Doubly Occupied:

       1A    -20.538222     2A    -11.321409     3A    -11.232337
       4A    -11.228378     5A    -11.218330     6A     -1.399072
       7A     -1.062684     8A     -1.001515     9A     -0.879932
      10A     -0.732872    11A     -0.659407    12A     -0.645606
      13A     -0.614701    14A     -0.589223    15A     -0.572254
      16A     -0.532751    17A     -0.522428    18A     -0.504381
      19A     -0.482909    20A     -0.402814

  @DF-RHF Final Energy:  -231.08164772231419

   => Energetics <=

    Nuclear Repulsion Energy =            177.2022992290756065
    One-Electron Energy =                -664.2854424994934561
    Two-Electron Energy =                 256.0014955481038328
    DFT Exchange-Correlation Energy =       0.0000000000000000
    Empirical Dispersion Energy =           0.0000000000000000
    PCM Polarization Energy =               0.0000000000000000
    EFP Energy =                            0.0000000000000000
    Total Energy =                       -231.0816477223140168
    Molecular point group: c1
  Basis Set: CC-PVTZ
  Basis Set:

  -Total Gradient:
     Atom            X                  Y                   Z
    ------   -----------------  -----------------  -----------------
       1        0.000026259540     0.000039362096    -0.001124482196
       2       -0.000135806045     0.000120425916     0.001631146853
       3        0.000737290495    -0.000961599962    -0.000905003610
       4        0.000009007963     0.000006671548     0.000064922124
       5        0.000015687148    -0.000004306218    -0.000018998737
       6       -0.000625926478     0.000797412437     0.000396092840
       7       -0.000012091910    -0.000008061948    -0.000000403576
       8        0.000001572028    -0.000003021641    -0.000000662480
       9       -0.000004040499    -0.000001878512     0.000002779908
      10       -0.000000287088    -0.000000282053     0.000002447796
      11       -0.000012381833     0.000008608491    -0.000015755954
      12        0.000001730382     0.000002948760    -0.000010029448
      13       -0.000001013704     0.000003721085    -0.000022053519

  **** Optimization is complete! (in 6 steps) ****
    Final optimized geometry and variables:
    Molecular point group: c1

    Geometry (in Angstrom), charge = 0, multiplicity = 1:

    O            0.293754413101     1.371654912511    -0.183753728530
    C            0.439702833438     0.193510540824    -0.214233612033
    C           -0.756873932743    -0.743426108423    -0.232193732633
    C            1.810314441967    -0.434672427899    -0.266060347714
    C           -1.773843889599    -0.408267193815     0.856669276426
    H           -1.221005360340    -0.625722803616    -1.206879057400
    H           -0.431967236942    -1.773633879183    -0.151800183820
    H           -2.099423557651     0.618191889633     0.767427456545
    H           -2.639367396249    -1.054485335094     0.778179054026
    H           -1.347162529587    -0.540714982623     1.844621224599
    H            1.891727127270    -1.072188497515    -1.140302512005
    H            2.570935786226     0.330189906615    -0.295858052874
    H            1.956420782838    -1.066307024872     0.604171668916

  Mulliken Charges: (a.u.)
   Center  Symbol    Alpha    Beta     Spin     Total
       1     O     4.17471  4.17471  0.00000 -0.34943
       2     C     2.85632  2.85632  0.00000  0.28735
       3     C     3.09912  3.09912  0.00000 -0.19824
       4     C     3.15179  3.15179  0.00000 -0.30358
       5     C     3.14465  3.14465  0.00000 -0.28931
       6     H     0.44443  0.44443  0.00000  0.11114
       7     H     0.44764  0.44764  0.00000  0.10472
       8     H     0.44023  0.44023  0.00000  0.11955
       9     H     0.44908  0.44908  0.00000  0.10185
      10     H     0.45527  0.45527  0.00000  0.08945
      11     H     0.44996  0.44996  0.00000  0.10008
      12     H     0.43654  0.43654  0.00000  0.12692
      13     H     0.45026  0.45026  0.00000  0.09948

   Total alpha = 20.00000, Total beta = 20.00000, Total charge = -0.00000
