  ==> Input File <==

--------------------------------------------------------------------------
set {
	reference rhf
	basis 6-31G*
}

set_num_threads( 1 )
memory 2 gb

molecule MOL {
0 1

H	 -2.735986	 0.553201	 0.763151
C	 -2.279855	 1.535387	 0.656396
O	 -0.898220	 1.443058	 0.522605
H	 -2.663618	 2.004059	 -0.239267
H	 -2.559489	 2.141057	 1.517440
C	 -0.257408	 0.860352	 1.613046
C	 1.215020	 0.715177	 1.307946
H	 -0.379948	 1.482620	 2.500437
H	 -0.676956	 -0.119883	 1.830122
O	 1.392611	 -0.295398	 0.366430
H	 1.599227	 1.662768	 0.935841
H	 1.749486	 0.473401	 2.227503
C	 2.706965	 -0.449871	 -0.062409
H	 2.756559	 -0.644779	 -1.131878
H	 3.305899	 0.433456	 0.155466
H	 3.125548	 -1.294566	 0.467107

	symmetry c1
}
set optking {
	frozen_dihedral = ("
		3 6 7 11,
		2 3 6 7
	")
}

ee = energy('scf')
oeprop('DIPOLE', 'QUADRUPOLE', 'MULLIKEN_CHARGES')
f=open( 'psi4out.xyz', 'w' )
f.write( "16  " )
f.write( str(ee) + "\n" )
f.write( MOL.save_string_xyz() )
f.close()
--------------------------------------------------------------------------

    Molecular point group: c1

    Geometry (in Angstrom), charge = 0, multiplicity = 1:

       Center              X                  Y                   Z               Mass
    ------------   -----------------  -----------------  -----------------  -----------------
           H         -3.047668870707    -0.080019536001     0.035963994704     1.007825032070
           C         -2.591537870707     0.902166463999    -0.070791005296    12.000000000000
           O         -1.209902870707     0.809837463999    -0.204582005296    15.994914619560
           H         -2.975300870707     1.370838463999    -0.966454005296     1.007825032070
           H         -2.871171870707     1.507836463999     0.790252994704     1.007825032070
           C         -0.569090870707     0.227131463999     0.885858994704    12.000000000000
           C          0.903337129293     0.081956463999     0.580758994704    12.000000000000
           H         -0.691630870707     0.849399463999     1.773249994704     1.007825032070
           H         -0.988638870707    -0.753103536001     1.102934994704     1.007825032070
           O          1.080928129293    -0.928618536001    -0.360757005296    15.994914619560
           H          1.287544129293     1.029547463999     0.208653994704     1.007825032070
           H          1.437803129293    -0.159819536001     1.500315994704     1.007825032070
           C          2.395282129293    -1.083091536001    -0.789596005296    12.000000000000
           H          2.444876129293    -1.277999536001    -1.859065005296     1.007825032070
           H          2.994216129293    -0.199764536001    -0.571721005296     1.007825032070
           H          2.813865129293    -1.927786536001    -0.260080005296     1.007825032070

  Charge       = 0
  Multiplicity = 1
  Basis Set: 6-31G*
  Basis Set:

    Orbital Energies (a.u.)
    -----------------------

    Doubly Occupied:

       1A    -20.553425     2A    -20.550681     3A    -11.269472
       4A    -11.268322     5A    -11.263419     6A    -11.262771
       7A     -1.387678     8A     -1.370020     9A     -1.030408
      10A     -0.935426    11A     -0.892127    12A     -0.824796
      13A     -0.682735    14A     -0.680142    15A     -0.657149
      16A     -0.634422    17A     -0.629494    18A     -0.596773
      19A     -0.552470    20A     -0.537203    21A     -0.507477
      22A     -0.477782    23A     -0.463100    24A     -0.417855
      25A     -0.407534

  @DF-RHF Final Energy:  -306.97377450530320

   => Energetics <=

    Nuclear Repulsion Energy =            258.8693652873128599
    One-Electron Energy =                -931.9808331060141882
    Two-Electron Energy =                 366.1376933133983584
    DFT Exchange-Correlation Energy =       0.0000000000000000
    Empirical Dispersion Energy =           0.0000000000000000
    PCM Polarization Energy =               0.0000000000000000
    EFP Energy =                            0.0000000000000000
    Total Energy =                       -306.9737745053030267

  Mulliken Charges: (a.u.)
   Center  Symbol    Alpha    Beta     Spin     Total
       1     H     0.42806  0.42806  0.00000  0.14389
       2     C     3.07946  3.07946  0.00000 -0.15893
       3     O     4.30088  4.30088  0.00000 -0.60175
       4     H     0.41134  0.41134  0.00000  0.17732
       5     H     0.43194  0.43194  0.00000  0.13613
       6     C     2.99345  2.99345  0.00000  0.01311
       7     C     2.99476  2.99476  0.00000  0.01048
       8     H     0.43238  0.43238  0.00000  0.13524
       9     H     0.42273  0.42273  0.00000  0.15454
      10     O     4.30284  4.30284  0.00000 -0.60568
      11     H     0.42157  0.42157  0.00000  0.15686
      12     H     0.43261  0.43261  0.00000  0.13478
      13     C     3.07725  3.07725  0.00000 -0.15451
      14     H     0.41534  0.41534  0.00000  0.16933
      15     H     0.43070  0.43070  0.00000  0.13860
      16     H     0.42470  0.42470  0.00000  0.15059

   Total alpha = 25.00000, Total beta = 25.00000, Total charge = -0.00000
