  ==> Input File <==

--------------------------------------------------------------------------
set {
	reference rhf
	basis 6-31G*
}

set_num_threads( 4 )
memory 2 gb

molecule MOL {
0 1

H	 2.175697	 -0.091823	 -4.990933
C	 2.522188	 0.448462	 -4.115399
C	 1.373941	 0.721993	 -3.144892
H	 3.296918	 -0.148560	 -3.643488
H	 2.978561	 1.373679	 -4.456716
C	 1.827240	 1.489350	 -1.900908
H	 0.925697	 -0.219862	 -2.845580
H	 0.599047	 1.291131	 -3.656081
C	 0.695648	 1.793716	 -0.919008
H	 2.597768	 0.925866	 -1.386693
H	 2.275556	 2.431431	 -2.208377
C	 0.169600	 0.576866	 -0.172154
H	 1.044418	 2.494812	 -0.162309
H	 -0.131425	 2.290744	 -1.421094
C	 -1.181045	 0.701995	 0.511084
O	 0.798160	 -0.436498	 -0.105733
C	 -2.285934	 -0.139295	 -0.145128
H	 -1.449051	 1.751551	 0.493206
H	 -1.071135	 0.403303	 1.551943
C	 -3.651768	 0.085446	 0.506485
H	 -2.346596	 0.110469	 -1.202272
H	 -2.034737	 -1.195320	 -0.088721
C	 -4.759797	 -0.746382	 -0.137905
H	 -3.908762	 1.140117	 0.445781
H	 -3.588286	 -0.154158	 1.565709
H	 -4.868882	 -0.505166	 -1.191300
H	 -4.548009	 -1.809175	 -0.062213
H	 -5.715422	 -0.564821	 0.343442

	symmetry c1
}
set optking {
	frozen_dihedral = ("
		16 12 15 17
	")
}

ee = optimize('scf')
oeprop('DIPOLE', 'QUADRUPOLE', 'MULLIKEN_CHARGES')
f=open( 'psi4out.xyz', 'w' )
f.write( "28  " )
f.write( str(ee) + "\n" )
f.write( MOL.save_string_xyz() )
f.close()
--------------------------------------------------------------------------

    Molecular point group: c1
  Charge       = 0
  Multiplicity = 1
  Basis Set: 6-31G*
  Basis Set:
  @DF-RHF Final Energy:  -426.16880999674379
    Total Energy =                       -426.1688099967436756
    Molecular point group: c1
  Basis Set: 6-31G*
  Basis Set:
  Basis Set: 6-31G*
  Basis Set:
  @DF-RHF Final Energy:  -426.16983502237781
    Total Energy =                       -426.1698350223776970
  Basis Set: 6-31G*
  Basis Set:
  Basis Set: 6-31G*
  Basis Set:
  @DF-RHF Final Energy:  -426.16995715027781
    Total Energy =                       -426.1699571502779236
  Basis Set: 6-31G*
  Basis Set:
  Basis Set: 6-31G*
  Basis Set:
  @DF-RHF Final Energy:  -426.16989922941502
    Total Energy =                       -426.1698992294151367
  Basis Set: 6-31G*
  Basis Set:
  @DF-RHF Final Energy:  -426.16996924515081
    Total Energy =                       -426.1699692451506962
  Basis Set: 6-31G*
  Basis Set:
  @DF-RHF Final Energy:  -426.16997199126354
    Total Energy =                       -426.1699719912639921
  Basis Set: 6-31G*
  Basis Set:
  Basis Set: 6-31G*
  Basis Set:
  @DF-RHF Final Energy:  -426.16997886802164
    Total Energy =                       -426.1699788680219854
  Basis Set: 6-31G*
  Basis Set:
  Basis Set: 6-31G*
  Basis Set:
  @DF-RHF Final Energy:  -426.16998253257532
    Total Energy =                       -426.1699825325750908
  Basis Set: 6-31G*
  Basis Set:
  Charge       = 0
  Multiplicity = 1
  Basis Set: 6-31G*
  Basis Set:

    Orbital Energies (a.u.)
    -----------------------

    Doubly Occupied:

       1A    -20.547673     2A    -11.322853     3A    -11.231228
       4A    -11.228780     5A    -11.227444     6A    -11.223180
       7A    -11.216342     8A    -11.213543     9A    -11.211399
      10A    -11.205222    11A     -1.393570    12A     -1.091451
      13A     -1.077712    14A     -1.022129    15A     -0.991180
      16A     -0.909073    17A     -0.868347    18A     -0.806047
      19A     -0.797420    20A     -0.724324    21A     -0.670033
      22A     -0.651399    23A     -0.624370    24A     -0.619968
      25A     -0.608477    26A     -0.588432    27A     -0.574773
      28A     -0.573157    29A     -0.542732    30A     -0.529951
      31A     -0.517522    32A     -0.510500    33A     -0.500429
      34A     -0.480207    35A     -0.477632    36A     -0.472853
      37A     -0.467561    38A     -0.464637    39A     -0.455799
      40A     -0.391985

  @DF-RHF Final Energy:  -426.16998246604021

   => Energetics <=

    Nuclear Repulsion Energy =            533.5415470881349620
    One-Electron Energy =               -1635.3603936697072641
    Two-Electron Energy =                 675.6488641155319783
    DFT Exchange-Correlation Energy =       0.0000000000000000
    Empirical Dispersion Energy =           0.0000000000000000
    PCM Polarization Energy =               0.0000000000000000
    EFP Energy =                            0.0000000000000000
    Total Energy =                       -426.1699824660404374
    Molecular point group: c1
  Basis Set: 6-31G*
  Basis Set:

  -Total Gradient:
     Atom            X                  Y                   Z
    ------   -----------------  -----------------  -----------------
       1        0.000002698102    -0.000004749884     0.000002442510
       2       -0.000000267753    -0.000007206099     0.000001591113
       3       -0.000001290154     0.000012667539    -0.000018786440
       4        0.000007365544     0.000000353816    -0.000000767036
       5       -0.000002599295    -0.000002345744    -0.000000678083
       6       -0.000011612631    -0.000017992464     0.000015412162
       7       -0.000008276666     0.000012344353     0.000004879349
       8        0.000003569117     0.000000849388    -0.000011364672
       9       -0.000014336729    -0.000031576608    -0.000031717245
      10        0.000016711805     0.000000233135     0.000003171704
      11       -0.000017448783     0.000003047098     0.000008395163
      12        0.000179687347     0.000059994422     0.000269541997
      13       -0.000001419373    -0.000014641111     0.000015355404
      14        0.000005379925    -0.000001746300    -0.000001576101
      15       -0.000098483432     0.000107102132    -0.000155975198
      16       -0.000063774823    -0.000050185331    -0.000183876445
      17        0.000007138623    -0.000065373042     0.000047441333
      18       -0.000034844929    -0.000011001518     0.000001306676
      19        0.000002827913     0.000003856580    -0.000005954862
      20       -0.000005979407    -0.000010692423     0.000020675791
      21        0.000011197276    -0.000004446713    -0.000018293063
      22        0.000020784802     0.000019789660     0.000029169155
      23        0.000006594384     0.000009423459    -0.000002969807
      24        0.000006440088     0.000000253704     0.000009083360
      25       -0.000016606499    -0.000011961040     0.000003568808
      26        0.000004084199    -0.000000413874    -0.000002314998
      27       -0.000001408651    -0.000004143881     0.000004540138
      28        0.000003869997     0.000008560751    -0.000002300715

  **** Optimization is complete! (in 9 steps) ****
    Final optimized geometry and variables:
    Molecular point group: c1

    Geometry (in Angstrom), charge = 0, multiplicity = 1:

    H            2.868496704834    -0.529655911811    -3.980313031359
    C            3.146623988232     0.019196684374    -3.085918260144
    C            1.931798941889     0.274953568341    -2.194957252290
    H            3.898573947368    -0.562914775141    -2.561386261725
    H            3.608683705161     0.951265692964    -3.400062482655
    C            2.287747287446     1.055908477547    -0.927767191078
    H            1.481173115781    -0.672612033680    -1.920288005458
    H            1.182972468793     0.828945812904    -2.759017864655
    C            1.091275347563     1.333196574678    -0.019631718858
    H            3.039571651622     0.512529970079    -0.365375132374
    H            2.731573225138     2.007806041404    -1.210513153220
    C            0.569066882317     0.125983702673     0.736818363184
    H            1.349466545821     2.076763140837     0.734407007337
    H            0.266482114610     1.769121573766    -0.581373286874
    C           -0.732377866496     0.297851590345     1.503552414222
    O            1.140704149412    -0.922678830244     0.742946353971
    C           -1.871483312333    -0.490063284185     0.840661950414
    H           -0.998298073813     1.348114601161     1.579026248865
    H           -0.570589831713    -0.077626849971     2.509110520476
    C           -3.190803338843    -0.377306024971     1.605710290996
    H           -2.015519278773    -0.134804924047    -0.178465359179
    H           -1.573843010176    -1.531121013662     0.767950798599
    C           -4.324219831936    -1.163292662241     0.947788182231
    H           -3.475519508233     0.669669826175     1.685382078016
    H           -3.046549614050    -0.733855957322     2.623066069691
    H           -4.514887036346    -0.807352553459    -0.060680000039
    H           -4.082499394645    -2.220211713300     0.884891764514
    H           -5.246405273250    -1.067329566077     1.512141128024

  Mulliken Charges: (a.u.)
   Center  Symbol    Alpha    Beta     Spin     Total
       1     H     0.41943  0.41943  0.00000  0.16114
       2     C     3.24020  3.24020  0.00000 -0.48041
       3     C     3.15619  3.15619  0.00000 -0.31237
       4     H     0.41847  0.41847  0.00000  0.16305
       5     H     0.42387  0.42387  0.00000  0.15225
       6     C     3.14951  3.14951  0.00000 -0.29903
       7     H     0.40833  0.40833  0.00000  0.18335
       8     H     0.42808  0.42808  0.00000  0.14385
       9     C     3.21357  3.21357  0.00000 -0.42714
      10     H     0.40806  0.40806  0.00000  0.18387
      11     H     0.42181  0.42181  0.00000  0.15639
      12     C     2.73198  2.73198  0.00000  0.53603
      13     H     0.40507  0.40507  0.00000  0.18985
      14     H     0.41048  0.41048  0.00000  0.17903
      15     C     3.19869  3.19869  0.00000 -0.39739
      16     O     4.26950  4.26950  0.00000 -0.53900
      17     C     3.15967  3.15967  0.00000 -0.31935
      18     H     0.41580  0.41580  0.00000  0.16839
      19     H     0.40228  0.40228  0.00000  0.19545
      20     C     3.15213  3.15213  0.00000 -0.30426
      21     H     0.42098  0.42098  0.00000  0.15803
      22     H     0.40498  0.40498  0.00000  0.19003
      23     C     3.24017  3.24017  0.00000 -0.48034
      24     H     0.42280  0.42280  0.00000  0.15440
      25     H     0.41998  0.41998  0.00000  0.16004
      26     H     0.42115  0.42115  0.00000  0.15770
      27     H     0.41891  0.41891  0.00000  0.16218
      28     H     0.41787  0.41787  0.00000  0.16425

   Total alpha = 40.00000, Total beta = 40.00000, Total charge =  0.00000
