  ==> Input File <==

--------------------------------------------------------------------------
set {
	reference rhf
	basis 6-31G*
}

set_num_threads( 4 )
memory 2 gb

molecule MOL {
0 1

H	 2.591676	 2.013956	 0.335017
O	 3.341076	 1.666752	 -0.126416
C	 3.569581	 0.339145	 0.272707
C	 2.539767	 -0.640285	 -0.279495
H	 4.553106	 0.084646	 -0.100901
H	 3.608576	 0.269204	 1.359154
C	 2.928777	 -2.111401	 -0.114094
H	 1.589309	 -0.456333	 0.214628
H	 2.395727	 -0.420896	 -1.336135
C	 1.901015	 -3.067261	 -0.726349
H	 3.045818	 -2.333122	 0.943028
H	 3.899018	 -2.283973	 -0.580131
C	 2.283765	 -4.550474	 -0.663719
H	 0.940435	 -2.922470	 -0.235260
H	 1.752198	 -2.793896	 -1.768859
C	 2.340963	 -5.142257	 0.747309
H	 1.559663	 -5.115168	 -1.247339
H	 3.245059	 -4.694619	 -1.154608
C	 2.622616	 -6.646281	 0.751971
H	 1.395906	 -4.953182	 1.254485
H	 3.106956	 -4.639866	 1.333109
C	 2.686598	 -7.238330	 2.159468
H	 1.851893	 -7.158539	 0.180074
H	 3.561767	 -6.838053	 0.237088
H	 1.749740	 -7.091480	 2.689521
H	 2.885460	 -8.305182	 2.129214
H	 3.473365	 -6.772108	 2.745982

	symmetry c1
}
set optking {
	frozen_dihedral = ("
		8 4 3 2
	")
}

ee = optimize('scf')
oeprop('DIPOLE', 'QUADRUPOLE', 'MULLIKEN_CHARGES')
f=open( 'psi4out.xyz', 'w' )
f.write( "27  " )
f.write( str(ee) + "\n" )
f.write( MOL.save_string_xyz() )
f.close()
--------------------------------------------------------------------------

    Molecular point group: c1
  Charge       = 0
  Multiplicity = 1
  Basis Set: 6-31G*
  Basis Set:
  @DF-RHF Final Energy:  -388.28140746115861
    Total Energy =                       -388.2814074611583237
    Molecular point group: c1
  Basis Set: 6-31G*
  Basis Set:
  Basis Set: 6-31G*
  Basis Set:
  @DF-RHF Final Energy:  -388.28171525882232
    Total Energy =                       -388.2817152588222598
  Basis Set: 6-31G*
  Basis Set:
  Basis Set: 6-31G*
  Basis Set:
  @DF-RHF Final Energy:  -388.28175677975094
    Total Energy =                       -388.2817567797507081
  Basis Set: 6-31G*
  Basis Set:
  Basis Set: 6-31G*
  Basis Set:
  @DF-RHF Final Energy:  -388.28175893136449
    Total Energy =                       -388.2817589313646067
  Basis Set: 6-31G*
  Basis Set:
  Basis Set: 6-31G*
  Basis Set:
  @DF-RHF Final Energy:  -388.28176050772714
    Total Energy =                       -388.2817605077270855
  Basis Set: 6-31G*
  Basis Set:
  Basis Set: 6-31G*
  Basis Set:
  @DF-RHF Final Energy:  -388.28177158258831
    Total Energy =                       -388.2817715825883624
  Basis Set: 6-31G*
  Basis Set:
  Charge       = 0
  Multiplicity = 1
  Basis Set: 6-31G*
  Basis Set:

    Orbital Energies (a.u.)
    -----------------------

    Doubly Occupied:

       1A    -20.552054     2A    -11.266505     3A    -11.218831
       4A    -11.216679     5A    -11.216064     6A    -11.215564
       7A    -11.214879     8A    -11.213668     9A    -11.209094
      10A     -1.358735    11A     -1.095177    12A     -1.062249
      13A     -1.011479    14A     -0.945087    15A     -0.883154
      16A     -0.823623    17A     -0.804738    18A     -0.777855
      19A     -0.692778    20A     -0.647190    21A     -0.639347
      22A     -0.609425    23A     -0.607761    24A     -0.584409
      25A     -0.573471    26A     -0.555055    27A     -0.543968
      28A     -0.521662    29A     -0.509625    30A     -0.491521
      31A     -0.482075    32A     -0.476918    33A     -0.465237
      34A     -0.460556    35A     -0.457177    36A     -0.443501
      37A     -0.420269

  @DF-RHF Final Energy:  -388.28177116725419

   => Energetics <=

    Nuclear Repulsion Energy =            453.3191385558982347
    One-Electron Energy =               -1424.6670531716461028
    Two-Electron Energy =                 583.0661434484934489
    DFT Exchange-Correlation Energy =       0.0000000000000000
    Empirical Dispersion Energy =           0.0000000000000000
    PCM Polarization Energy =               0.0000000000000000
    EFP Energy =                            0.0000000000000000
    Total Energy =                       -388.2817711672544192
    Molecular point group: c1
  Basis Set: 6-31G*
  Basis Set:

  -Total Gradient:
     Atom            X                  Y                   Z
    ------   -----------------  -----------------  -----------------
       1        0.000001936394     0.000001460516     0.000003344443
       2        0.000984609043    -0.000283324707    -0.001370888684
       3       -0.001207420239    -0.000082733207     0.002183317305
       4       -0.000203593262     0.001774069035    -0.002368165778
       5        0.000031605929     0.000012368507     0.000012571743
       6       -0.000007213092    -0.000019807741    -0.000012869672
       7        0.000025492103     0.000038268458     0.000076984701
       8        0.000398338168    -0.001485440757     0.001498932024
       9       -0.000017032456     0.000015743915    -0.000002492894
      10       -0.000024136112     0.000029303454    -0.000037390309
      11        0.000026641025    -0.000030070801     0.000019498733
      12       -0.000019281090     0.000032236073     0.000017503728
      13       -0.000034472957    -0.000013794727     0.000014118522
      14       -0.000003932948     0.000006710570    -0.000017917066
      15       -0.000000131419    -0.000002986447    -0.000006478513
      16        0.000049221560     0.000013951813    -0.000007958021
      17        0.000005014807    -0.000027146908     0.000006861014
      18       -0.000005734055     0.000009646797     0.000007443309
      19       -0.000007745746    -0.000001539863    -0.000004278361
      20        0.000013887554     0.000012691566    -0.000008640125
      21        0.000013205018     0.000004491311    -0.000002093451
      22       -0.000019420948    -0.000003624627    -0.000000873166
      23        0.000003443099    -0.000004834822    -0.000013047362
      24        0.000001073060     0.000004771760     0.000012642591
      25       -0.000000548477    -0.000000666528     0.000005321266
      26       -0.000003807874    -0.000000440943    -0.000000136544
      27        0.000000002914     0.000000698295    -0.000005309433

  **** Optimization is complete! (in 7 steps) ****
    Final optimized geometry and variables:
    Molecular point group: c1

    Geometry (in Angstrom), charge = 0, multiplicity = 1:

    H           -0.172446344517     4.919092410570     0.027258195868
    O            0.665236027994     4.622466932253    -0.300630387556
    C            0.865604832432     3.283955970872     0.073308668441
    C           -0.149138851916     2.337964075897    -0.558880240058
    H            1.864144985804     3.035862103624    -0.264797070047
    H            0.857442259436     3.179488955928     1.157196521915
    C            0.222915582952     0.864575173627    -0.374253969939
    H           -1.128595191880     2.510866267340    -0.112794805159
    H           -0.229335474598     2.576532108403    -1.615428572549
    C           -0.817196519559    -0.087673982642    -0.970980600322
    H            0.350359178006     0.658367122001     0.685763952364
    H            1.188586152511     0.677555347210    -0.841078039734
    C           -0.439372619335    -1.572128498997    -0.909533288235
    H           -1.771618067772     0.061118988846    -0.468570353851
    H           -0.977998008862     0.183789715940    -2.012140205065
    C           -0.356171056526    -2.157598962642     0.502740065363
    H           -1.176821964781    -2.136628557375    -1.476450566541
    H            0.511588892734    -1.721670931830    -1.418286745077
    C           -0.085508946226    -3.663639712461     0.508674660056
    H           -1.289097054718    -1.959516181357     1.028973777212
    H            0.425857752726    -1.657908008168     1.069185253148
    C           -0.000802680339    -4.250424053404     1.917275277123
    H           -0.869882179361    -4.172655828811    -0.047389127808
    H            0.843005901426    -3.864205425694    -0.021787419500
    H           -0.927134783843    -4.094812683314     2.463208003008
    H            0.189880234910    -5.318796959769     1.888002380785
    H            0.799548822883    -3.787423980919     2.487699235255

  Mulliken Charges: (a.u.)
   Center  Symbol    Alpha    Beta     Spin     Total
       1     H     0.28348  0.28348  0.00000  0.43304
       2     O     4.37071  4.37071  0.00000 -0.74143
       3     C     2.98811  2.98811  0.00000  0.02378
       4     C     3.16920  3.16920  0.00000 -0.33840
       5     H     0.41709  0.41709  0.00000  0.16582
       6     H     0.43132  0.43132  0.00000  0.13735
       7     C     3.16160  3.16160  0.00000 -0.32319
       8     H     0.42801  0.42801  0.00000  0.14399
       9     H     0.41301  0.41301  0.00000  0.17399
      10     C     3.15245  3.15245  0.00000 -0.30490
      11     H     0.42104  0.42104  0.00000  0.15792
      12     H     0.42150  0.42150  0.00000  0.15699
      13     C     3.15346  3.15346  0.00000 -0.30692
      14     H     0.42392  0.42392  0.00000  0.15215
      15     H     0.42061  0.42061  0.00000  0.15878
      16     C     3.15274  3.15274  0.00000 -0.30548
      17     H     0.42148  0.42148  0.00000  0.15703
      18     H     0.42344  0.42344  0.00000  0.15312
      19     C     3.15119  3.15119  0.00000 -0.30237
      20     H     0.42491  0.42491  0.00000  0.15018
      21     H     0.42235  0.42235  0.00000  0.15530
      22     C     3.23918  3.23918  0.00000 -0.47835
      23     H     0.42306  0.42306  0.00000  0.15389
      24     H     0.42288  0.42288  0.00000  0.15424
      25     H     0.42200  0.42200  0.00000  0.15600
      26     H     0.41924  0.41924  0.00000  0.16151
      27     H     0.42202  0.42202  0.00000  0.15596

   Total alpha = 37.00000, Total beta = 37.00000, Total charge = -0.00000
