                              Psi4 1.0.54 Driver

  ==> Input File <==

--------------------------------------------------------------------------
set {
	reference rhf
	basis cc-pvtz
}

set_num_threads( 4 )
memory 2 gb

molecule MOL {
0 1

H	 -3.162190	 0.493205	 -0.000107
C	 -2.363908	 -0.234727	 0.000005
O	 -1.158738	 0.454634	 -0.000087
H	 -2.464314	 -0.863616	 -0.882153
H	 -2.464327	 -0.863359	 0.882345
C	 -0.109378	 -0.218411	 0.621339
C	 1.140858	 0.635241	 0.553665
H	 0.062918	 -1.176620	 0.130637
H	 -0.364017	 -0.430124	 1.660078
C	 2.339899	 -0.034686	 1.215369
H	 1.358641	 0.846938	 -0.487335
H	 0.935111	 1.587467	 1.029991
H	 2.578480	 -0.979183	 0.737779
H	 3.218116	 0.596031	 1.152513
H	 2.152239	 -0.233431	 2.265298

	symmetry c1
}
set optking {
	frozen_dihedral = ("
		6 3 2 4
	")
}

ee,wfn = optimize('scf', return_wfn=True)
oeprop( wfn, 'DIPOLE', 'QUADRUPOLE', 'MULLIKEN_CHARGES')
f=open( 'psi4out.xyz', 'w' )
f.write( "15  " )
f.write( str(ee) + "\n" )
f.write( MOL.save_string_xyz() )
f.close()
--------------------------------------------------------------------------

    Molecular point group: c1
  Charge       = 0
  Multiplicity = 1
  Basis Set: CC-PVTZ
  Basis Set:
  @DF-RHF Final Energy:  -232.22638060328597
    Total Energy =                       -232.2263806032856337
    Molecular point group: c1
  Basis Set: CC-PVTZ
  Basis Set:
  Basis Set: CC-PVTZ
  Basis Set:
  @DF-RHF Final Energy:  -232.22647255324637
    Total Energy =                       -232.2264725532463672
  Basis Set: CC-PVTZ
  Basis Set:
  Basis Set: CC-PVTZ
  Basis Set:
  @DF-RHF Final Energy:  -232.22648903178538
    Total Energy =                       -232.2264890317852633
  Basis Set: CC-PVTZ
  Basis Set:
  Charge       = 0
  Multiplicity = 1
  Basis Set: CC-PVTZ
  Basis Set:

    Orbital Energies (a.u.)
    -----------------------

    Doubly Occupied:

       1A    -20.545908     2A    -11.264642     3A    -11.261443
       4A    -11.212510     5A    -11.210610     6A     -1.379433
       7A     -1.058264     8A     -0.956222     9A     -0.877274
      10A     -0.809345    11A     -0.675221    12A     -0.654792
      13A     -0.632029    14A     -0.608428    15A     -0.564394
      16A     -0.543357    17A     -0.503316    18A     -0.489825
      19A     -0.478851    20A     -0.462503    21A     -0.413936

  @DF-RHF Final Energy:  -232.22648921222037

   => Energetics <=

    Nuclear Repulsion Energy =            189.8235093170901564
    One-Electron Energy =                -690.8953910629677466
    Two-Electron Energy =                 268.8453925336572752
    DFT Exchange-Correlation Energy =       0.0000000000000000
    Empirical Dispersion Energy =           0.0000000000000000
    PCM Polarization Energy =               0.0000000000000000
    EFP Energy =                            0.0000000000000000
    Total Energy =                       -232.2264892122203150
    Molecular point group: c1
  Basis Set: CC-PVTZ
  Basis Set:

  -Total Gradient:
     Atom            X                  Y                   Z
    ------   -----------------  -----------------  -----------------
       1       -0.000012107345    -0.000003232691    -0.000000762140
       2        0.001347575725    -0.002385467839     0.002633444829
       3        0.000391314277    -0.000777389314    -0.003276910445
       4       -0.001219672944     0.002202290494    -0.001374647881
       5        0.000004211488     0.000003304512    -0.000000531034
       6       -0.000533924620     0.000959560595     0.001996715025
       7       -0.000001742692    -0.000011207479     0.000011094710
       8       -0.000005379790     0.000004739477     0.000006987307
       9       -0.000006834037     0.000008003551    -0.000015035439
      10        0.000030222041     0.000011708729     0.000007385936
      11       -0.000010349942    -0.000007027678     0.000007044861
      12        0.000003103849    -0.000002007352    -0.000001957656
      13       -0.000002566873     0.000003672604     0.000000484374
      14        0.000014533037    -0.000006365554     0.000007697843
      15        0.000001617825    -0.000000582053    -0.000001010289

  **** Optimization is complete! (in 4 steps) ****
    Final optimized geometry and variables:
    Molecular point group: c1

    Geometry (in Angstrom), charge = 0, multiplicity = 1:

    H           -3.109019997407     0.384782704772    -0.487938744954
    C           -2.310380874254    -0.345060974193    -0.476422903314
    O           -1.099470606775     0.339529520235    -0.463207783953
    H           -2.406066910248    -0.958311297415    -1.368881800014
    H           -2.431864504724    -0.972759975710     0.401510410576
    C           -0.042088214542    -0.332023567323     0.147594020688
    C            1.202653497785     0.529096031641     0.073141159158
    H            0.135495672669    -1.288239672467    -0.345542051418
    H           -0.288721379187    -0.546403179282     1.187062375589
    C            2.408160771037    -0.131552850848     0.732755013014
    H            1.415971705969     0.739659037821    -0.969044938259
    H            0.992145035990     1.481301263221     0.547619126408
    H            2.651076138554    -1.075897496191     0.256961289127
    H            3.282404610267     0.504358163645     0.665467017562
    H            2.225075540269    -0.328618332893     1.783872501101

  Mulliken Charges: (a.u.)
   Center  Symbol    Alpha    Beta     Spin     Total
       1     H     0.45079  0.45079  0.00000  0.09841
       2     C     3.03164  3.03164  0.00000 -0.06328
       3     O     4.17397  4.17397  0.00000 -0.34794
       4     H     0.46524  0.46524  0.00000  0.06952
       5     H     0.47387  0.47387  0.00000  0.05225
       6     C     2.95590  2.95590  0.00000  0.08820
       7     C     3.08113  3.08113  0.00000 -0.16226
       8     H     0.47678  0.47678  0.00000  0.04645
       9     H     0.47459  0.47459  0.00000  0.05082
      10     C     3.15582  3.15582  0.00000 -0.31163
      11     H     0.45101  0.45101  0.00000  0.09798
      12     H     0.45123  0.45123  0.00000  0.09755
      13     H     0.45583  0.45583  0.00000  0.08834
      14     H     0.44627  0.44627  0.00000  0.10747
      15     H     0.45593  0.45593  0.00000  0.08814

   Total alpha = 21.00000, Total beta = 21.00000, Total charge = -0.00000

*** Psi4 exiting successfully. Buy a developer a beer!
