  ==> Input File <==

--------------------------------------------------------------------------
set {
	reference rhf
	basis 6-31G*
}

set_num_threads( 1 )
memory 2 gb

molecule MOL {
0 1

H	 -1.836216	 1.387520	 -0.000064
C	 -1.301823	 0.443321	 -0.000031
O	 -0.003969	 0.658512	 0.000451
O	 -1.829879	 -0.616434	 -0.000857
C	 0.572587	 1.194298	 -1.190223
C	 2.057699	 1.350935	 -0.944808
H	 0.099697	 2.141404	 -1.410866
H	 0.369639	 0.519595	 -2.010517
H	 2.241783	 2.023582	 -0.114934
H	 2.536006	 1.757856	 -1.829608
H	 2.513186	 0.393994	 -0.717467

	symmetry c1
}
set optking {
	frozen_dihedral = ("
		7 5 3 2
	")
}

ee = energy('scf')
oeprop('DIPOLE', 'QUADRUPOLE', 'MULLIKEN_CHARGES')
f=open( 'psi4out.xyz', 'w' )
f.write( "11  " )
f.write( str(ee) + "\n" )
f.write( MOL.save_string_xyz() )
f.close()
--------------------------------------------------------------------------

    Molecular point group: c1

    Geometry (in Angstrom), charge = 0, multiplicity = 1:

       Center              X                  Y                   Z               Mass
    ------------   -----------------  -----------------  -----------------  -----------------
           H         -1.735992367788     0.782091373284     0.428888980093     1.007825032070
           C         -1.201599367788    -0.162107626716     0.428921980093    12.000000000000
           O          0.096254632212     0.053083373284     0.429403980093    15.994914619560
           O         -1.729655367788    -1.221862626716     0.428095980093    15.994914619560
           C          0.672810632212     0.588869373284    -0.761270019907    12.000000000000
           C          2.157922632212     0.745506373284    -0.515855019907    12.000000000000
           H          0.199920632212     1.535975373284    -0.981913019907     1.007825032070
           H          0.469862632212    -0.085833626716    -1.581564019907     1.007825032070
           H          2.342006632212     1.418153373284     0.314018980093     1.007825032070
           H          2.636229632212     1.152427373284    -1.400655019907     1.007825032070
           H          2.613409632212    -0.211434626716    -0.288514019907     1.007825032070

  Charge       = 0
  Multiplicity = 1
  Basis Set: 6-31G*
  Basis Set:

    Orbital Energies (a.u.)
    -----------------------

    Doubly Occupied:

       1A    -20.596557     2A    -20.566974     3A    -11.379507
       4A    -11.307335     5A    -11.232773     6A     -1.470138
       7A     -1.379152     8A     -1.055154     9A     -0.891467
      10A     -0.837053    11A     -0.741993    12A     -0.690204
      13A     -0.654800    14A     -0.632882    15A     -0.565624
      16A     -0.547069    17A     -0.537608    18A     -0.501881
      19A     -0.466717    20A     -0.452342

  @DF-RHF Final Energy:  -266.80916178579673

   => Energetics <=

    Nuclear Repulsion Energy =            176.8405094200145413
    One-Electron Energy =                -714.2849559613536030
    Two-Electron Energy =                 270.6352847555432959
    DFT Exchange-Correlation Energy =       0.0000000000000000
    Empirical Dispersion Energy =           0.0000000000000000
    PCM Polarization Energy =               0.0000000000000000
    EFP Energy =                            0.0000000000000000
    Total Energy =                       -266.8091617857957658

  Mulliken Charges: (a.u.)
   Center  Symbol    Alpha    Beta     Spin     Total
       1     H     0.43138  0.43138  0.00000  0.13724
       2     C     2.72969  2.72969  0.00000  0.54063
       3     O     4.29478  4.29478  0.00000 -0.58956
       4     O     4.23403  4.23403  0.00000 -0.46806
       5     C     3.00609  3.00609  0.00000 -0.01217
       6     C     3.24726  3.24726  0.00000 -0.49451
       7     H     0.41941  0.41941  0.00000  0.16117
       8     H     0.40947  0.40947  0.00000  0.18106
       9     H     0.40814  0.40814  0.00000  0.18372
      10     H     0.41562  0.41562  0.00000  0.16876
      11     H     0.40414  0.40414  0.00000  0.19172

   Total alpha = 20.00000, Total beta = 20.00000, Total charge =  0.00000
