  ==> Input File <==

--------------------------------------------------------------------------
set {
	reference rhf
	basis 6-31G*
}

set_num_threads( 4 )
memory 2 gb

molecule MOL {
0 1

H	 2.672742	 1.259328	 2.242676
O	 1.741074	 1.132258	 2.354273
C	 1.149322	 0.829024	 1.178574
C	 1.862086	 0.729411	 -0.009428
C	 -0.217924	 0.614490	 1.185181
H	 2.926053	 0.896748	 -0.012383
C	 1.207853	 0.415642	 -1.188919
H	 -0.769668	 0.691122	 2.102123
C	 -0.865228	 0.300799	 0.000000
H	 1.770075	 0.341348	 -2.102026
C	 -0.158332	 0.199623	 -1.191567
C	 -2.333960	 0.069074	 0.000000
H	 -0.668530	 -0.044209	 -2.106580
O	 -2.847347	 -1.003763	 0.000000
H	 -2.943845	 0.977528	 0.000000

	symmetry c1
}
set optking {
	frozen_dihedral = ("
		11 9 12 14
	")
}

ee = optimize('scf')
oeprop('DIPOLE', 'QUADRUPOLE', 'MULLIKEN_CHARGES')
f=open( 'psi4out.xyz', 'w' )
f.write( "15  " )
f.write( str(ee) + "\n" )
f.write( MOL.save_string_xyz() )
f.close()
--------------------------------------------------------------------------

    Molecular point group: c1
  Charge       = 0
  Multiplicity = 1
  Basis Set: 6-31G*
  Basis Set:
  @DF-RHF Final Energy:  -418.27360497831859
    Total Energy =                       -418.2736049783190992
    Molecular point group: c1
  Basis Set: 6-31G*
  Basis Set:
  Basis Set: 6-31G*
  Basis Set:
  @DF-RHF Final Energy:  -418.27387346157349
    Total Energy =                       -418.2738734615734302
  Basis Set: 6-31G*
  Basis Set:
  Basis Set: 6-31G*
  Basis Set:
  @DF-RHF Final Energy:  -418.27390155377554
    Total Energy =                       -418.2739015537759997
  Basis Set: 6-31G*
  Basis Set:
  Basis Set: 6-31G*
  Basis Set:
  @DF-RHF Final Energy:  -418.27401186844639
    Total Energy =                       -418.2740118684455410
  Basis Set: 6-31G*
  Basis Set:
  Basis Set: 6-31G*
  Basis Set:
  @DF-RHF Final Energy:  -418.27403872515123
    Total Energy =                       -418.2740387251513994
  Basis Set: 6-31G*
  Basis Set:
  Basis Set: 6-31G*
  Basis Set:
  @DF-RHF Final Energy:  -418.27404004409192
    Total Energy =                       -418.2740400440920894
  Basis Set: 6-31G*
  Basis Set:
  Charge       = 0
  Multiplicity = 1
  Basis Set: 6-31G*
  Basis Set:

    Orbital Energies (a.u.)
    -----------------------

    Doubly Occupied:

       1A    -20.603214     2A    -20.573299     3A    -11.336880
       4A    -11.313903     5A    -11.257463     6A    -11.251689
       7A    -11.242151     8A    -11.240274     9A    -11.239212
      10A     -1.422995    11A     -1.412413    12A     -1.167713
      13A     -1.048229    14A     -1.023241    15A     -0.899106
      16A     -0.841810    17A     -0.817233    18A     -0.738512
      19A     -0.699531    20A     -0.673409    21A     -0.666585
      22A     -0.637324    23A     -0.613402    24A     -0.600934
      25A     -0.582442    26A     -0.543019    27A     -0.529228
      28A     -0.511891    29A     -0.492227    30A     -0.423104
      31A     -0.353290    32A     -0.323902

  @DF-RHF Final Energy:  -418.27404012986568

   => Energetics <=

    Nuclear Repulsion Energy =            401.6720258492494509
    One-Electron Energy =               -1365.7328846782895653
    Two-Electron Energy =                 545.7868186991747734
    DFT Exchange-Correlation Energy =       0.0000000000000000
    Empirical Dispersion Energy =           0.0000000000000000
    PCM Polarization Energy =               0.0000000000000000
    EFP Energy =                            0.0000000000000000
    Total Energy =                       -418.2740401298653978
    Molecular point group: c1
  Basis Set: 6-31G*
  Basis Set:

  -Total Gradient:
     Atom            X                  Y                   Z
    ------   -----------------  -----------------  -----------------
       1       -0.000002679586     0.000009564391    -0.000000966160
       2        0.000003915703     0.000008573704    -0.000004391363
       3       -0.000035410185    -0.000050724595     0.000036389124
       4       -0.000001650363     0.000008071977    -0.000051712502
       5        0.000025214980     0.000034972634     0.000016078796
       6       -0.000001305041     0.000005387670     0.000002449881
       7        0.000042773857    -0.000012113419     0.000028138800
       8        0.000000579764     0.000004284573    -0.000001929500
       9        0.000528468181    -0.003752677260     0.001916582325
      10       -0.000004964361     0.000002668359    -0.000004017093
      11       -0.000383844906     0.002530548349    -0.000369680797
      12       -0.000211072518     0.001240182889    -0.004696106938
      13        0.000001902464     0.000005905948    -0.000004056187
      14        0.000038415305    -0.000044064769     0.003130003375
      15       -0.000000343284     0.000009419552     0.000003218239

  **** Optimization is complete! (in 7 steps) ****
    Final optimized geometry and variables:
    Molecular point group: c1

    Geometry (in Angstrom), charge = 0, multiplicity = 1:

    H            2.724454696886     0.893598807009     1.948033902309
    O            1.790225202610     0.776470239979     2.050031151257
    C            1.212064547327     0.467977376938     0.869914523324
    C            1.929985749828     0.374292995962    -0.311783645381
    C           -0.158389043769     0.249701903765     0.871744136331
    H            2.992380063246     0.550027186074    -0.313858243173
    C            1.272976876358     0.056059952552    -1.489436643995
    H           -0.694650746796     0.334838476002     1.799397834519
    C           -0.799820972822    -0.085243338937    -0.307370339613
    H            1.834224259475    -0.012940955075    -2.403796078896
    C           -0.090525242742    -0.173543956077    -1.499089407205
    C           -2.287751130241    -0.287099857012    -0.301562004719
    H           -0.593922789229    -0.428882317444    -2.413509335757
    O           -2.812030118838    -1.351896335100    -0.320613478035
    H           -2.887700300212     0.626150232608    -0.254337582249

  Mulliken Charges: (a.u.)
   Center  Symbol    Alpha    Beta     Spin     Total
       1     H     0.27004  0.27004  0.00000  0.45993
       2     O     4.37647  4.37647  0.00000 -0.75293
       3     C     2.79027  2.79027  0.00000  0.41946
       4     C     3.14224  3.14224  0.00000 -0.28448
       5     C     3.13042  3.13042  0.00000 -0.26084
       6     H     0.40057  0.40057  0.00000  0.19886
       7     C     3.08871  3.08871  0.00000 -0.17742
       8     H     0.38505  0.38505  0.00000  0.22989
       9     C     3.02151  3.02151  0.00000 -0.04302
      10     H     0.39347  0.39347  0.00000  0.21307
      11     C     3.11636  3.11636  0.00000 -0.23273
      12     C     2.85092  2.85092  0.00000  0.29816
      13     H     0.39114  0.39114  0.00000  0.21772
      14     O     4.22130  4.22130  0.00000 -0.44259
      15     H     0.42154  0.42154  0.00000  0.15693

   Total alpha = 32.00000, Total beta = 32.00000, Total charge =  0.00000
