                              Psi4 1.0.54 Driver

  ==> Input File <==

--------------------------------------------------------------------------
set {
	reference rhf
	basis cc-pvtz
}

set_num_threads( 4 )
memory 2 gb

molecule MOL {
0 1

H	 2.825243	 -0.649440	 1.206120
O	 3.515887	 -0.699254	 0.571801
C	 3.306175	 -1.786670	 -0.290069
C	 2.168737	 -1.568095	 -1.276550
H	 4.233743	 -1.918234	 -0.830706
H	 3.134859	 -2.696620	 0.281851
C	 0.790148	 -1.455808	 -0.629453
H	 2.377414	 -0.670509	 -1.850964
H	 2.170301	 -2.399197	 -1.977738
C	 -0.329640	 -1.270096	 -1.652401
H	 0.786853	 -0.622430	 0.065149
H	 0.593099	 -2.352188	 -0.043825
C	 -1.741254	 -1.225681	 -1.064497
H	 -0.148144	 -0.359997	 -2.218974
H	 -0.281606	 -2.085885	 -2.368396
C	 -2.041121	 -0.006551	 -0.194127
H	 -2.453076	 -1.247603	 -1.885080
H	 -1.918263	 -2.131128	 -0.488313
C	 -3.489218	 0.042606	 0.286507
H	 -1.820554	 0.897906	 -0.756954
H	 -1.384768	 0.005674	 0.670774
C	 -4.219984	 1.311773	 -0.139038
H	 -4.022855	 -0.824300	 -0.093339
H	 -3.510372	 -0.038577	 1.370031
H	 -4.244251	 1.405725	 -1.219696
H	 -5.244345	 1.313233	 0.215630
H	 -3.732090	 2.196311	 0.257073

	symmetry c1
}
set optking {
	frozen_dihedral = ("
		20 16 19 22
	")
}

ee,wfn = optimize('scf', return_wfn=True)
oeprop( wfn, 'DIPOLE', 'QUADRUPOLE', 'MULLIKEN_CHARGES')
f=open( 'psi4out.xyz', 'w' )
f.write( "27  " )
f.write( str(ee) + "\n" )
f.write( MOL.save_string_xyz() )
f.close()
--------------------------------------------------------------------------

    Molecular point group: c1
  Charge       = 0
  Multiplicity = 1
  Basis Set: CC-PVTZ
  Basis Set:
  @DF-RHF Final Energy:  -388.42188221684609
    Total Energy =                       -388.4218822168460292
    Molecular point group: c1
  Basis Set: CC-PVTZ
  Basis Set:
  Basis Set: CC-PVTZ
  Basis Set:
  @DF-RHF Final Energy:  -388.42212197817906
    Total Energy =                       -388.4221219781788932
  Basis Set: CC-PVTZ
  Basis Set:
  Basis Set: CC-PVTZ
  Basis Set:
  @DF-RHF Final Energy:  -388.42218771836275
    Total Energy =                       -388.4221877183624656
  Basis Set: CC-PVTZ
  Basis Set:
  Basis Set: CC-PVTZ
  Basis Set:
  @DF-RHF Final Energy:  -388.42217897376946
    Total Energy =                       -388.4221789737687232
  Basis Set: CC-PVTZ
  Basis Set:
  Basis Set: CC-PVTZ
  Basis Set:
  @DF-RHF Final Energy:  -388.42218961126810
    Total Energy =                       -388.4221896112687773
  Basis Set: CC-PVTZ
  Basis Set:
  Charge       = 0
  Multiplicity = 1
  Basis Set: CC-PVTZ
  Basis Set:

    Orbital Energies (a.u.)
    -----------------------

    Doubly Occupied:

       1A    -20.545383     2A    -11.265010     3A    -11.216815
       4A    -11.214603     5A    -11.213790     6A    -11.213563
       7A    -11.213270     8A    -11.211582     9A    -11.207551
      10A     -1.363280    11A     -1.095297    12A     -1.060833
      13A     -1.011939    14A     -0.948928    15A     -0.889027
      16A     -0.822409    17A     -0.801279    18A     -0.778330
      19A     -0.696308    20A     -0.648597    21A     -0.636898
      22A     -0.616115    23A     -0.599277    24A     -0.591750
      25A     -0.580604    26A     -0.554674    27A     -0.540762
      28A     -0.528993    29A     -0.511155    30A     -0.491574
      31A     -0.484074    32A     -0.476928    33A     -0.468875
      34A     -0.459495    35A     -0.450064    36A     -0.441022
      37A     -0.425411

  @DF-RHF Final Energy:  -388.42218961039561

   => Energetics <=

    Nuclear Repulsion Energy =            459.7096513770981687
    One-Electron Energy =               -1437.7127474787826031
    Two-Electron Energy =                 589.5809064912895110
    DFT Exchange-Correlation Energy =       0.0000000000000000
    Empirical Dispersion Energy =           0.0000000000000000
    PCM Polarization Energy =               0.0000000000000000
    EFP Energy =                            0.0000000000000000
    Total Energy =                       -388.4221896103948666
    Molecular point group: c1
  Basis Set: CC-PVTZ
  Basis Set:

  -Total Gradient:
     Atom            X                  Y                   Z
    ------   -----------------  -----------------  -----------------
       1       -0.000001667693     0.000001494791     0.000000924035
       2       -0.000002972733    -0.000000340890     0.000002156900
       3        0.000003159587     0.000000655998    -0.000005882103
       4       -0.000001150570    -0.000005819297     0.000000683673
       5       -0.000000118316    -0.000000799415    -0.000001172013
       6       -0.000000711430     0.000001079443    -0.000000141861
       7       -0.000001684505     0.000001462333    -0.000000435016
       8        0.000000732490    -0.000001028870     0.000001752806
       9        0.000000723809    -0.000000751308    -0.000000727013
      10        0.000002635985     0.000000435390     0.000004623006
      11       -0.000000414333     0.000001376969     0.000000520603
      12        0.000000194144     0.000000773157     0.000001476402
      13       -0.000001554290    -0.000000074122    -0.000002487874
      14       -0.000003917039     0.000001003829     0.000001832922
      15        0.000000349290    -0.000000073108    -0.000000060947
      16       -0.000265277142    -0.000382676623    -0.000702944580
      17        0.000008032126     0.000000795205    -0.000002381975
      18       -0.000004084385    -0.000000752274    -0.000000765836
      19        0.000220983586     0.000313498279     0.000577833654
      20        0.000165079838     0.000258345954     0.000456747212
      21       -0.000000128435    -0.000000589386     0.000002599946
      22       -0.000119372157    -0.000185932431    -0.000337208427
      23       -0.000000562887    -0.000001738442     0.000001076022
      24        0.000000325762     0.000001743497     0.000000694860
      25       -0.000000106184    -0.000000601436     0.000001107830
      26        0.000001007742    -0.000001091962     0.000001252050
      27        0.000000497735    -0.000000395282    -0.000001074277

  **** Optimization is complete! (in 6 steps) ****
    Final optimized geometry and variables:
    Molecular point group: c1

    Geometry (in Angstrom), charge = 0, multiplicity = 1:

    H            3.011631976443     0.060688439351     1.668626204672
    O            3.702140981566     0.006974435083     1.034679557092
    C            3.485145082398    -1.077212091087     0.170623686631
    C            2.350096080398    -0.848581342541    -0.816214134968
    H            4.412126838725    -1.214642356848    -0.369534649168
    H            3.306699122546    -1.986834139758     0.740805159210
    C            0.972539379841    -0.722218598596    -0.169619434704
    H            2.567623131721     0.046386501509    -1.391316590593
    H            2.343833189948    -1.680259716307    -1.516656910916
    C           -0.146061465622    -0.534300312691    -1.193588364471
    H            0.975667203541     0.114781070618     0.520518737653
    H            0.769035018884    -1.613902176291     0.420780820863
    C           -1.557855084090    -0.485166283883    -0.607599937654
    H            0.038570490350     0.374360391001    -1.761497588705
    H           -0.099615303376    -1.351400257001    -1.908195498369
    C           -1.858993967411     0.739394739755     0.256447363307
    H           -2.270163210556    -0.509292709571    -1.427956685353
    H           -1.738084662088    -1.387075889094    -0.026839800913
    C           -3.316952494429     0.787874162563     0.760085893197
    H           -1.643067972903     1.635413760055    -0.318819763207
    H           -1.184046154334     0.763755907531     1.104048291810
    C           -4.066746553167     2.047161432912     0.334830141026
    H           -3.856295648551    -0.079440151234     0.392679942859
    H           -3.336911954030     0.712762063418     1.841907538310
    H           -4.102705375924     2.131944990559    -0.746428785348
    H           -5.087212511038     2.040828293006     0.701147094520
    H           -3.582420017293     2.939146723903     0.718169558451

  Mulliken Charges: (a.u.)
   Center  Symbol    Alpha    Beta     Spin     Total
       1     H     0.39231  0.39231  0.00000  0.21539
       2     O     4.20551  4.20551  0.00000 -0.41102
       3     C     2.97997  2.97997  0.00000  0.04007
       4     C     3.08917  3.08917  0.00000 -0.17835
       5     H     0.44857  0.44857  0.00000  0.10287
       6     H     0.46969  0.46969  0.00000  0.06061
       7     C     3.10279  3.10279  0.00000 -0.20557
       8     H     0.45076  0.45076  0.00000  0.09847
       9     H     0.45530  0.45530  0.00000  0.08940
      10     C     3.09879  3.09879  0.00000 -0.19757
      11     H     0.45588  0.45588  0.00000  0.08824
      12     H     0.45367  0.45367  0.00000  0.09265
      13     C     3.09843  3.09843  0.00000 -0.19687
      14     H     0.45152  0.45152  0.00000  0.09696
      15     H     0.44807  0.44807  0.00000  0.10386
      16     C     3.09636  3.09636  0.00000 -0.19273
      17     H     0.44720  0.44720  0.00000  0.10560
      18     H     0.45286  0.45286  0.00000  0.09428
      19     C     3.08791  3.08791  0.00000 -0.17581
      20     H     0.45359  0.45359  0.00000  0.09283
      21     H     0.44987  0.44987  0.00000  0.10026
      22     C     3.14707  3.14707  0.00000 -0.29414
      23     H     0.45469  0.45469  0.00000  0.09062
      24     H     0.45047  0.45047  0.00000  0.09905
      25     H     0.45542  0.45542  0.00000  0.08915
      26     H     0.44963  0.44963  0.00000  0.10073
      27     H     0.45449  0.45449  0.00000  0.09102

   Total alpha = 37.00000, Total beta = 37.00000, Total charge = -0.00000

*** Psi4 exiting successfully. Buy a developer a beer!
