                              Psi4 1.0.54 Driver

  ==> Input File <==

--------------------------------------------------------------------------
set {
	reference rhf
	basis cc-pvtz
}

set_num_threads( 4 )
memory 2 gb

molecule MOL {
0 1

H	 -0.366580	 2.045936	 -0.305741
C	 0.351829	 1.335402	 0.083179
N	 -0.000018	 0.000080	 -0.334836
H	 1.327156	 1.599860	 -0.305475
H	 0.380566	 1.445403	 1.171445
C	 0.612494	 -0.350444	 -1.593543
C	 0.276053	 -0.977068	 0.690448
H	 0.272546	 -1.328242	 -1.910464
H	 0.328381	 0.364916	 -2.354941
H	 1.705146	 -0.372857	 -1.541779
H	 -0.254085	 -0.719984	 1.598768
H	 -0.063311	 -1.954265	 0.371006
H	 1.341000	 -1.050809	 0.930366

	symmetry c1
}
set optking {
	frozen_dihedral = ("
		6 3 2 1
	")
}

ee,wfn = optimize('scf', return_wfn=True)
oeprop( wfn, 'DIPOLE', 'QUADRUPOLE', 'MULLIKEN_CHARGES')
f=open( 'psi4out.xyz', 'w' )
f.write( "13  " )
f.write( str(ee) + "\n" )
f.write( MOL.save_string_xyz() )
f.close()
--------------------------------------------------------------------------

    Molecular point group: c1
  Charge       = 0
  Multiplicity = 1
  Basis Set: CC-PVTZ
  Basis Set:
  @DF-RHF Final Energy:  -173.32931030003704
    Total Energy =                       -173.3293103000370081
    Molecular point group: c1
  Basis Set: CC-PVTZ
  Basis Set:
  Basis Set: CC-PVTZ
  Basis Set:
  @DF-RHF Final Energy:  -173.33025497359361
    Total Energy =                       -173.3302549735936395
  Basis Set: CC-PVTZ
  Basis Set:
  Basis Set: CC-PVTZ
  Basis Set:
  @DF-RHF Final Energy:  -173.33038074198495
    Total Energy =                       -173.3303807419849818
  Basis Set: CC-PVTZ
  Basis Set:
  Basis Set: CC-PVTZ
  Basis Set:
  @DF-RHF Final Energy:  -173.33038661663545
    Total Energy =                       -173.3303866166354794
  Basis Set: CC-PVTZ
  Basis Set:
  Charge       = 0
  Multiplicity = 1
  Basis Set: CC-PVTZ
  Basis Set:

    Orbital Energies (a.u.)
    -----------------------

    Doubly Occupied:

       1A    -15.538903     2A    -11.234018     3A    -11.233927
       4A    -11.233781     5A     -1.224429     6A     -0.952013
       7A     -0.950783     8A     -0.807801     9A     -0.642109
      10A     -0.630524    11A     -0.627446    12A     -0.551323
      13A     -0.544212    14A     -0.514118    15A     -0.501428
      16A     -0.497964    17A     -0.349159

  @DF-RHF Final Energy:  -173.33038712257775

   => Energetics <=

    Nuclear Repulsion Energy =            139.2793190285235028
    One-Electron Energy =                -509.1515363889390073
    Two-Electron Energy =                 196.5418302378377007
    DFT Exchange-Correlation Energy =       0.0000000000000000
    Empirical Dispersion Energy =           0.0000000000000000
    PCM Polarization Energy =               0.0000000000000000
    EFP Energy =                            0.0000000000000000
    Total Energy =                       -173.3303871225778039
    Molecular point group: c1
  Basis Set: CC-PVTZ
  Basis Set:

  -Total Gradient:
     Atom            X                  Y                   Z
    ------   -----------------  -----------------  -----------------
       1       -0.002959886014    -0.000700284542     0.004368947025
       2        0.004919876057     0.000321238949    -0.004843991089
       3       -0.005099604997     0.001740644865    -0.001529374108
       4       -0.000008867437    -0.000002724793     0.000008220113
       5       -0.000001701065     0.000011983677     0.000024438592
       6        0.003151376289    -0.001379490255     0.001993920610
       7       -0.000050171146     0.000041785925    -0.000033440403
       8        0.000003313482     0.000000071505    -0.000003103420
       9        0.000013280104    -0.000003477073    -0.000021532847
      10        0.000010172033    -0.000002055459     0.000003731585
      11        0.000006116951    -0.000014876569     0.000020237825
      12        0.000005186229    -0.000012408311     0.000010519464
      13        0.000010909513    -0.000000407920     0.000001426652

  **** Optimization is complete! (in 5 steps) ****
    Final optimized geometry and variables:
    Molecular point group: c1

    Geometry (in Angstrom), charge = 0, multiplicity = 1:

    H           -0.733970462571     2.049466896905     0.007387853199
    C           -0.010367411080     1.337431436967     0.387828228158
    N           -0.337849726197    -0.007399035484    -0.047810817894
    H            0.991987864743     1.648007504828     0.094267237366
    H           -0.066244081602     1.398169841320     1.467414069734
    C            0.291409742542    -0.327048585499    -1.307724239875
    C           -0.028217901332    -1.004125300184     0.952436800780
    H           -0.047280937270    -1.293435056206    -1.659527859336
    H            0.022628134232     0.410307540599    -2.054531367530
    H            1.382700500056    -0.352688569046    -1.238055571873
    H           -0.575967671309    -0.800527393851     1.863318844290
    H           -0.327033763771    -1.982687964959     0.597803002677
    H            1.037045674732    -1.048315600057     1.198766441299

  Mulliken Charges: (a.u.)
   Center  Symbol    Alpha    Beta     Spin     Total
       1     H     0.45027  0.45027  0.00000  0.09947
       2     C     3.08795  3.08795  0.00000 -0.17590
       3     N     3.59863  3.59863  0.00000 -0.19727
       4     H     0.46874  0.46874  0.00000  0.06252
       5     H     0.45707  0.45707  0.00000  0.08586
       6     C     3.09094  3.09094  0.00000 -0.18188
       7     C     3.08905  3.08905  0.00000 -0.17809
       8     H     0.45304  0.45304  0.00000  0.09392
       9     H     0.45204  0.45204  0.00000  0.09591
      10     H     0.47314  0.47314  0.00000  0.05372
      11     H     0.45218  0.45218  0.00000  0.09565
      12     H     0.45306  0.45306  0.00000  0.09389
      13     H     0.47390  0.47390  0.00000  0.05220

   Total alpha = 17.00000, Total beta = 17.00000, Total charge = -0.00000

*** Psi4 exiting successfully. Buy a developer a beer!
