  ==> Input File <==

--------------------------------------------------------------------------
set {
	reference rhf
	basis 6-31G*
}

set_num_threads( 1 )
memory 2 gb

molecule MOL {
0 1

H	 -0.920893	 -1.066790	 0.861165
N	 -0.626943	 -0.667432	 -0.000092
C	 -1.393187	 -0.965635	 -1.188646
C	 0.469286	 0.129090	 0.000148
H	 -1.401467	 -2.032014	 -1.388078
H	 -0.934831	 -0.457425	 -2.021330
H	 -2.417430	 -0.622583	 -1.087291
C	 1.788933	 -0.616240	 -0.000037
O	 0.411098	 1.327768	 -0.000049
H	 1.872803	 -1.245775	 -0.880381
H	 2.595421	 0.101576	 0.003713
H	 1.870096	 -1.252171	 0.875943

	symmetry c1
}
set optking {
	frozen_dihedral = ("
		4 2 3 5
	")
}

ee = energy('scf')
oeprop('DIPOLE', 'QUADRUPOLE', 'MULLIKEN_CHARGES')
f=open( 'psi4out.xyz', 'w' )
f.write( "12  " )
f.write( str(ee) + "\n" )
f.write( MOL.save_string_xyz() )
f.close()
--------------------------------------------------------------------------

    Molecular point group: c1

    Geometry (in Angstrom), charge = 0, multiplicity = 1:

       Center              X                  Y                   Z               Mass
    ------------   -----------------  -----------------  -----------------  -----------------
           H         -1.041978420789    -0.900217015441     1.106593152643     1.007825032070
           N         -0.748028420789    -0.500859015441     0.245336152643    14.003074004780
           C         -1.514272420789    -0.799062015441    -0.943217847357    12.000000000000
           C          0.348200579211     0.295662984559     0.245576152643    12.000000000000
           H         -1.522552420789    -1.865441015441    -1.142649847357     1.007825032070
           H         -1.055916420789    -0.290852015441    -1.775901847357     1.007825032070
           H         -2.538515420789    -0.456010015441    -0.841862847357     1.007825032070
           C          1.667847579211    -0.449667015441     0.245391152643    12.000000000000
           O          0.290012579211     1.494340984559     0.245379152643    15.994914619560
           H          1.751717579211    -1.079202015441    -0.634952847357     1.007825032070
           H          2.474335579211     0.268148984559     0.249141152643     1.007825032070
           H          1.749010579211    -1.085598015441     1.121371152643     1.007825032070

  Charge       = 0
  Multiplicity = 1
  Basis Set: 6-31G*
  Basis Set:

    Orbital Energies (a.u.)
    -----------------------

    Doubly Occupied:

       1A    -20.547143     2A    -15.544679     3A    -11.347986
       4A    -11.260833     5A    -11.224045     6A     -1.397811
       7A     -1.218973     8A     -1.005675     9A     -0.936109
      10A     -0.781427    11A     -0.684027    12A     -0.646007
      13A     -0.644074    14A     -0.589254    15A     -0.580376
      16A     -0.564409    17A     -0.548930    18A     -0.487688
      19A     -0.425959    20A     -0.368521

  @DF-RHF Final Energy:  -246.96445281195736

   => Energetics <=

    Nuclear Repulsion Energy =            180.9097461693096989
    One-Electron Energy =                -694.1405824193730041
    Two-Electron Energy =                 266.2663834381058905
    DFT Exchange-Correlation Energy =       0.0000000000000000
    Empirical Dispersion Energy =           0.0000000000000000
    PCM Polarization Energy =               0.0000000000000000
    EFP Energy =                            0.0000000000000000
    Total Energy =                       -246.9644528119573579

  Mulliken Charges: (a.u.)
   Center  Symbol    Alpha    Beta     Spin     Total
       1     H     0.30988  0.30988  0.00000  0.38024
       2     N     3.90554  3.90554  0.00000 -0.81108
       3     C     3.12993  3.12993  0.00000 -0.25985
       4     C     2.66318  2.66318  0.00000  0.67364
       5     H     0.41968  0.41968  0.00000  0.16064
       6     H     0.40979  0.40979  0.00000  0.18043
       7     H     0.41307  0.41307  0.00000  0.17385
       8     C     3.27650  3.27650  0.00000 -0.55301
       9     O     4.25007  4.25007  0.00000 -0.50013
      10     H     0.40856  0.40856  0.00000  0.18288
      11     H     0.40255  0.40255  0.00000  0.19491
      12     H     0.41126  0.41126  0.00000  0.17747

   Total alpha = 20.00000, Total beta = 20.00000, Total charge = -0.00000
