  ==> Input File <==

--------------------------------------------------------------------------
set {
	reference rhf
	basis cc-pvtz
}

set_num_threads( 4 )
memory 2 gb

molecule MOL {
0 1

H	 -0.376136	 2.474660	 0.585141
C	 0.447765	 1.846527	 0.948858
C	 0.692262	 0.592428	 0.156232
O	 1.065304	 2.174815	 1.902014
C	 -0.554654	 -0.292621	 0.086567
H	 1.526423	 0.064111	 0.598830
H	 0.977713	 0.893585	 -0.849601
C	 -1.846385	 0.513195	 -0.016346
H	 -0.473986	 -0.956115	 -0.769708
H	 -0.597929	 -0.929215	 0.966651
C	 -3.089953	 -0.365049	 -0.098564
H	 -1.798267	 1.154820	 -0.891143
H	 -1.925398	 1.173265	 0.842889
H	 -3.055079	 -1.012299	 -0.968245
H	 -3.988403	 0.236438	 -0.170014
H	 -3.183055	 -0.995885	 0.779079

	symmetry c1
}
set optking {
	frozen_dihedral = ("
		6 3 5 9
	")
}

ee = optimize('scf')
oeprop('DIPOLE', 'QUADRUPOLE', 'MULLIKEN_CHARGES')
f=open( 'psi4out.xyz', 'w' )
f.write( "16  " )
f.write( str(ee) + "\n" )
f.write( MOL.save_string_xyz() )
f.close()
--------------------------------------------------------------------------

    Molecular point group: c1
  Charge       = 0
  Multiplicity = 1
  Basis Set: CC-PVTZ
  Basis Set:
  @DF-RHF Final Energy:  -270.11152754811246
    Total Energy =                       -270.1115275481125764
    Molecular point group: c1
  Basis Set: CC-PVTZ
  Basis Set:
  Basis Set: CC-PVTZ
  Basis Set:
  @DF-RHF Final Energy:  -270.11211518342975
    Total Energy =                       -270.1121151834296938
  Basis Set: CC-PVTZ
  Basis Set:
  Basis Set: CC-PVTZ
  Basis Set:
  @DF-RHF Final Energy:  -270.11401860564354
    Total Energy =                       -270.1140186056433095
  Basis Set: CC-PVTZ
  Basis Set:
  Basis Set: CC-PVTZ
  Basis Set:
  @DF-RHF Final Energy:  -270.11436008593614
    Total Energy =                       -270.1143600859360276
  Basis Set: CC-PVTZ
  Basis Set:
  @DF-RHF Final Energy:  -270.11425004829869
    Total Energy =                       -270.1142500482987430
  @DF-RHF Final Energy:  -270.11461729630366
    Total Energy =                       -270.1146172963034928
  Basis Set: CC-PVTZ
  Basis Set:
  @DF-RHF Final Energy:  -270.11467192161194
    Total Energy =                       -270.1146719216117162
  Basis Set: CC-PVTZ
  Basis Set:
  Basis Set: CC-PVTZ
  Basis Set:
  @DF-RHF Final Energy:  -270.11471498945173
    Total Energy =                       -270.1147149894519544
  Basis Set: CC-PVTZ
  Basis Set:
  Basis Set: CC-PVTZ
  Basis Set:
  @DF-RHF Final Energy:  -270.11472080032183
    Total Energy =                       -270.1147208003219475
  Basis Set: CC-PVTZ
  Basis Set:
  Charge       = 0
  Multiplicity = 1
  Basis Set: CC-PVTZ
  Basis Set:

    Orbital Energies (a.u.)
    -----------------------

    Doubly Occupied:

       1A    -20.551155     2A    -11.319936     3A    -11.234248
       4A    -11.233501     5A    -11.228258     6A    -11.216846
       7A     -1.405724     8A     -1.095602     9A     -1.016961
      10A     -0.905548    11A     -0.832974    12A     -0.772225
      13A     -0.684624    14A     -0.649113    15A     -0.624359
      16A     -0.603796    17A     -0.582739    18A     -0.559959
      19A     -0.528730    20A     -0.517152    21A     -0.491978
      22A     -0.478940    23A     -0.471137    24A     -0.409547

  @DF-RHF Final Energy:  -270.11472321171675

   => Energetics <=

    Nuclear Repulsion Energy =            234.2935417557231403
    One-Electron Energy =                -829.9864230161283558
    Two-Electron Energy =                 325.5781580486883513
    DFT Exchange-Correlation Energy =       0.0000000000000000
    Empirical Dispersion Energy =           0.0000000000000000
    PCM Polarization Energy =               0.0000000000000000
    EFP Energy =                            0.0000000000000000
    Total Energy =                       -270.1147232117168642
    Molecular point group: c1
  Basis Set: CC-PVTZ
  Basis Set:

  -Total Gradient:
     Atom            X                  Y                   Z
    ------   -----------------  -----------------  -----------------
       1       -0.000003402771     0.000003855379    -0.000005437420
       2       -0.000003060739     0.000016854498     0.000029353198
       3        0.000960185313    -0.001341633754    -0.005645289874
       4       -0.000011794352    -0.000011817069    -0.000034401634
       5        0.002273772492    -0.003296637012     0.004116276570
       6       -0.001100062080     0.001588803635     0.004110687859
       7       -0.000011088854    -0.000003730325     0.000012450550
       8       -0.000038633496     0.000014931946     0.000022472649
       9       -0.002065701913     0.003017283322    -0.002593026546
      10        0.000008600624     0.000003988111    -0.000001274181
      11        0.000010673763     0.000016349067    -0.000004191614
      12       -0.000004406791    -0.000007929807     0.000003270511
      13       -0.000013137121    -0.000000916453    -0.000008195265
      14        0.000000223244    -0.000001335303    -0.000000978497
      15       -0.000005894286    -0.000002463552    -0.000001163646
      16        0.000003726969     0.000004397320    -0.000000552659

  **** Optimization is complete! (in 10 steps) ****
    Final optimized geometry and variables:
    Molecular point group: c1

    Geometry (in Angstrom), charge = 0, multiplicity = 1:

    H            0.541261436947     1.965142824481    -0.034897045598
    C            1.115779963778     1.151004195798     0.420196910895
    C            1.255728547810    -0.105432891159    -0.402272047312
    O            1.584202213233     1.292429723194     1.497522284802
    C           -0.014582161508    -0.978413433830    -0.401143255923
    H            2.079132599413    -0.656548757088     0.031669867839
    H            1.507117168116     0.183152009097    -1.418016364896
    C           -1.334725940557    -0.214835827062    -0.528879352906
    H            0.049856393893    -1.657581788968    -1.244474591777
    H           -0.033496401254    -1.576452785223     0.502436170300
    C           -2.533147919851    -1.150854367479    -0.642979300536
    H           -1.300107077071     0.431597356310    -1.402183579190
    H           -1.476247486905     0.434235873611     0.329540426099
    H           -2.451819575578    -1.786322422493    -1.518316371842
    H           -3.458595370308    -0.593077507787    -0.723219280551
    H           -2.608947282962    -1.794540483251     0.226731358727

  Mulliken Charges: (a.u.)
   Center  Symbol    Alpha    Beta     Spin     Total
       1     H     0.46018  0.46018  0.00000  0.07965
       2     C     2.90627  2.90627  0.00000  0.18747
       3     C     3.09130  3.09130  0.00000 -0.18260
       4     O     4.16685  4.16685  0.00000 -0.33370
       5     C     3.09451  3.09451  0.00000 -0.18902
       6     H     0.43930  0.43930  0.00000  0.12140
       7     H     0.44845  0.44845  0.00000  0.10310
       8     C     3.09732  3.09732  0.00000 -0.19463
       9     H     0.44982  0.44982  0.00000  0.10037
      10     H     0.44464  0.44464  0.00000  0.11071
      11     C     3.14889  3.14889  0.00000 -0.29778
      12     H     0.45132  0.45132  0.00000  0.09736
      13     H     0.44785  0.44785  0.00000  0.10430
      14     H     0.45410  0.45410  0.00000  0.09180
      15     H     0.44656  0.44656  0.00000  0.10688
      16     H     0.45265  0.45265  0.00000  0.09470

   Total alpha = 24.00000, Total beta = 24.00000, Total charge = -0.00000
