  ==> Input File <==

--------------------------------------------------------------------------
set {
	reference rhf
	basis cc-pvtz
}

set_num_threads( 4 )
memory 2 gb

molecule MOL {
0 1

H	 -3.144994	 -1.202467	 -0.018751
O	 -2.321472	 -0.864941	 -0.318626
C	 -2.021813	 0.336996	 0.342658
C	 -0.669613	 0.837286	 -0.127252
H	 -2.780861	 1.084746	 0.127159
H	 -2.006390	 0.184138	 1.420053
C	 0.490865	 -0.082543	 0.241244
H	 -0.708709	 0.967192	 -1.204587
H	 -0.507562	 1.822272	 0.303070
C	 1.546818	 -0.180648	 -0.856001
H	 0.105375	 -1.071049	 0.463299
H	 0.957260	 0.279288	 1.155398
C	 2.710805	 -1.093663	 -0.485430
H	 1.081880	 -0.543804	 -1.768499
H	 1.926750	 0.812286	 -1.082768
H	 2.366988	 -2.103307	 -0.287122
H	 3.441601	 -1.143874	 -1.284630
H	 3.218869	 -0.738396	 0.405132

	symmetry c1
}
set optking {
	frozen_dihedral = ("
		10 7 4 8
	")
}

ee = optimize('scf')
oeprop('DIPOLE', 'QUADRUPOLE', 'MULLIKEN_CHARGES')
f=open( 'psi4out.xyz', 'w' )
f.write( "18  " )
f.write( str(ee) + "\n" )
f.write( MOL.save_string_xyz() )
f.close()
--------------------------------------------------------------------------

    Molecular point group: c1
  Charge       = 0
  Multiplicity = 1
  Basis Set: CC-PVTZ
  Basis Set:
  @DF-RHF Final Energy:  -271.28340048392943
    Total Energy =                       -271.2834004839290856
    Molecular point group: c1
  Basis Set: CC-PVTZ
  Basis Set:
  Basis Set: CC-PVTZ
  Basis Set:
  @DF-RHF Final Energy:  -271.28362921747157
    Total Energy =                       -271.2836292174712867
  Basis Set: CC-PVTZ
  Basis Set:
  Basis Set: CC-PVTZ
  Basis Set:
  @DF-RHF Final Energy:  -271.28367171844536
    Total Energy =                       -271.2836717184453050
  Basis Set: CC-PVTZ
  Basis Set:
  Charge       = 0
  Multiplicity = 1
  Basis Set: CC-PVTZ
  Basis Set:

    Orbital Energies (a.u.)
    -----------------------

    Doubly Occupied:

       1A    -20.546747     2A    -11.266392     3A    -11.210114
       4A    -11.207790     5A    -11.204938     6A    -11.201672
       7A     -1.364639     8A     -1.074598     9A     -1.009528
      10A     -0.913952    11A     -0.818874    12A     -0.784639
      13A     -0.708904    14A     -0.639540    15A     -0.627638
      16A     -0.584166    17A     -0.570129    18A     -0.559964
      19A     -0.523206    20A     -0.498288    21A     -0.491671
      22A     -0.468309    23A     -0.456167    24A     -0.448506
      25A     -0.431500

  @DF-RHF Final Energy:  -271.28367257084915

   => Energetics <=

    Nuclear Repulsion Energy =            250.2808194601020375
    One-Electron Energy =                -863.9052384723609066
    Two-Electron Energy =                 342.3407464414098627
    DFT Exchange-Correlation Energy =       0.0000000000000000
    Empirical Dispersion Energy =           0.0000000000000000
    PCM Polarization Energy =               0.0000000000000000
    EFP Energy =                            0.0000000000000000
    Total Energy =                       -271.2836725708489780
    Molecular point group: c1
  Basis Set: CC-PVTZ
  Basis Set:

  -Total Gradient:
     Atom            X                  Y                   Z
    ------   -----------------  -----------------  -----------------
       1       -0.000010729630     0.000006705197    -0.000008801950
       2        0.000016504396    -0.000002932819     0.000023939029
       3        0.000026235611    -0.000066173262     0.000020384576
       4       -0.003167060658    -0.004195145719    -0.000729698118
       5        0.000030091471     0.000007635276    -0.000010591250
       6        0.000004366660    -0.000004858946    -0.000009056011
       7        0.002272179937     0.003402756575     0.001564198859
       8        0.002193422256     0.002772456822     0.000342386390
       9        0.000026713598     0.000030892184    -0.000010822581
      10       -0.001273444575    -0.002013401903    -0.001166134736
      11       -0.000075548838    -0.000028359436    -0.000023919063
      12       -0.000080390849     0.000022372878    -0.000022697917
      13        0.000010169424     0.000077491637     0.000059268228
      14        0.000002116129    -0.000026350337     0.000026903812
      15        0.000028980284     0.000001883678    -0.000056386053
      16       -0.000017556759     0.000012916836    -0.000020730528
      17       -0.000003375138     0.000026890684     0.000005837959
      18        0.000017326682    -0.000024779344     0.000015919352

  **** Optimization is complete! (in 4 steps) ****
    Final optimized geometry and variables:
    Molecular point group: c1

    Geometry (in Angstrom), charge = 0, multiplicity = 1:

    H           -3.067324172805    -0.985953881075     0.202544654427
    O           -2.256588468392    -0.641905858360    -0.123443946322
    C           -1.928555697148     0.545543010996     0.550280904466
    C           -0.576518169106     1.028494889021     0.066273961422
    H           -2.679075691824     1.307810862871     0.357696765112
    H           -1.898241363920     0.376607228243     1.625077089708
    C            0.589556492370     0.096654062511     0.428748467000
    H           -0.617200169495     1.177503602364    -1.007557329040
    H           -0.403963234015     2.013843289434     0.490540493247
    C            1.654887300595     0.006875193181    -0.660801372210
    H            0.203582977252    -0.901048584563     0.606550497280
    H            1.043166048067     0.423311820868     1.360067508876
    C            2.832007848419    -0.881540385548    -0.274289480967
    H            1.194888051451    -0.374609931606    -1.567263907122
    H            2.019580311380     1.003364240916    -0.898963883847
    H            2.503095488149    -1.893201204084    -0.060861266619
    H            3.564308749883    -0.933335742748    -1.071994346537
    H            3.333924915637    -0.504934288780     0.611027618972

  Mulliken Charges: (a.u.)
   Center  Symbol    Alpha    Beta     Spin     Total
       1     H     0.39536  0.39536  0.00000  0.20928
       2     O     4.19902  4.19902  0.00000 -0.39804
       3     C     2.97475  2.97475  0.00000  0.05051
       4     C     3.09349  3.09349  0.00000 -0.18697
       5     H     0.46389  0.46389  0.00000  0.07221
       6     H     0.47257  0.47257  0.00000  0.05487
       7     C     3.08685  3.08685  0.00000 -0.17370
       8     H     0.45261  0.45261  0.00000  0.09478
       9     H     0.45241  0.45241  0.00000  0.09518
      10     C     3.08357  3.08357  0.00000 -0.16715
      11     H     0.45088  0.45088  0.00000  0.09824
      12     H     0.45581  0.45581  0.00000  0.08839
      13     C     3.15051  3.15051  0.00000 -0.30102
      14     H     0.45149  0.45149  0.00000  0.09703
      15     H     0.45636  0.45636  0.00000  0.08729
      16     H     0.45450  0.45450  0.00000  0.09101
      17     H     0.44938  0.44938  0.00000  0.10125
      18     H     0.45657  0.45657  0.00000  0.08686

   Total alpha = 25.00000, Total beta = 25.00000, Total charge = -0.00000
