                              Psi4 1.0.54 Driver

  ==> Input File <==

--------------------------------------------------------------------------
set {
	reference rhf
	basis cc-pvtz
}

set_num_threads( 4 )
memory 2 gb

molecule MOL {
0 1

H	 -2.266619	 1.169943	 0.000098
O	 -1.438073	 1.611259	 0.000041
C	 -0.408657	 0.734701	 0.000005
C	 -0.072078	 0.166700	 -1.214696
C	 0.287810	 0.410043	 1.158298
H	 -0.633537	 0.443024	 -2.085523
C	 0.967698	 -0.735737	 -1.288464
C	 1.327784	 -0.499484	 1.054653
C	 -0.080713	 1.030770	 2.483097
H	 1.223312	 -1.172655	 -2.234901
C	 1.675174	 -1.074699	 -0.151357
H	 1.875875	 -0.760871	 1.940792
H	 -1.102597	 0.796205	 2.767794
H	 0.563866	 0.663992	 3.268865
H	 0.018176	 2.112498	 2.462818
H	 2.485193	 -1.775956	 -0.201152

	symmetry c1
}
set optking {
	frozen_dihedral = ("
		4 3 2 1
	")
}

ee,wfn = optimize('scf', return_wfn=True)
oeprop( wfn, 'DIPOLE', 'QUADRUPOLE', 'MULLIKEN_CHARGES')
f=open( 'psi4out.xyz', 'w' )
f.write( "16  " )
f.write( str(ee) + "\n" )
f.write( MOL.save_string_xyz() )
f.close()
--------------------------------------------------------------------------

    Molecular point group: c1
  Charge       = 0
  Multiplicity = 1
  Basis Set: CC-PVTZ
  Basis Set:
  @DF-RHF Final Energy:  -344.71495595411699
    Total Energy =                       -344.7149559541163057
    Molecular point group: c1
  Basis Set: CC-PVTZ
  Basis Set:
  Basis Set: CC-PVTZ
  Basis Set:
  @DF-RHF Final Energy:  -344.71615294109182
    Total Energy =                       -344.7161529410916501
  Basis Set: CC-PVTZ
  Basis Set:
  Basis Set: CC-PVTZ
  Basis Set:
  @DF-RHF Final Energy:  -344.71622405917844
    Total Energy =                       -344.7162240591779891
  Basis Set: CC-PVTZ
  Basis Set:
  Basis Set: CC-PVTZ
  Basis Set:
  @DF-RHF Final Energy:  -344.71623005543375
    Total Energy =                       -344.7162300554335843
  Basis Set: CC-PVTZ
  Basis Set:
  Basis Set: CC-PVTZ
  Basis Set:
  @DF-RHF Final Energy:  -344.71623170455439
    Total Energy =                       -344.7162317045541045
  Basis Set: CC-PVTZ
  Basis Set:
  Charge       = 0
  Multiplicity = 1
  Basis Set: CC-PVTZ
  Basis Set:

    Orbital Energies (a.u.)
    -----------------------

    Doubly Occupied:

       1A    -20.570013     2A    -11.282730     3A    -11.233010
       4A    -11.227261     5A    -11.225931     6A    -11.223390
       7A    -11.222723     8A    -11.216822     9A     -1.396383
      10A     -1.153480    11A     -1.047836    12A     -1.006843
      13A     -0.934444    14A     -0.834765    15A     -0.807226
      16A     -0.730591    17A     -0.669317    18A     -0.660372
      19A     -0.624945    20A     -0.594058    21A     -0.573771
      22A     -0.566520    23A     -0.545291    24A     -0.521945
      25A     -0.502640    26A     -0.487671    27A     -0.466491
      28A     -0.333648    29A     -0.321744

  @DF-RHF Final Energy:  -344.71623203272941

   => Energetics <=

    Nuclear Repulsion Energy =            350.4374922349001054
    One-Electron Energy =               -1162.3437273388099129
    Two-Electron Energy =                 467.1900030711806835
    DFT Exchange-Correlation Energy =       0.0000000000000000
    Empirical Dispersion Energy =           0.0000000000000000
    PCM Polarization Energy =               0.0000000000000000
    EFP Energy =                            0.0000000000000000
    Total Energy =                       -344.7162320327291241
    Molecular point group: c1
  Basis Set: CC-PVTZ
  Basis Set:

  -Total Gradient:
     Atom            X                  Y                   Z
    ------   -----------------  -----------------  -----------------
       1        0.000027321996    -0.000043480606     0.000813763617
       2        0.000121533334     0.000325637097    -0.001068582670
       3       -0.000521250488    -0.000762449154     0.000340359112
       4        0.000336157776     0.000488352404    -0.000104541455
       5        0.000010038781     0.000004184904     0.000003144860
       6        0.000006843992    -0.000004969203     0.000009293527
       7        0.000034405776    -0.000019546510     0.000004454471
       8       -0.000026603875     0.000033115962     0.000018842959
       9        0.000000655689    -0.000034475720     0.000003179238
      10        0.000003354741    -0.000006337904    -0.000001287550
      11       -0.000002018336     0.000002803677    -0.000019675239
      12        0.000000472144    -0.000002392782     0.000006875188
      13        0.000000837410     0.000003321550    -0.000006767901
      14        0.000001435169     0.000000853947     0.000006584425
      15        0.000010533680     0.000015594934    -0.000003616789
      16       -0.000003717791    -0.000000212595    -0.000002025791

  **** Optimization is complete! (in 6 steps) ****
    Final optimized geometry and variables:
    Molecular point group: c1

    Geometry (in Angstrom), charge = 0, multiplicity = 1:

    H           -2.481185233365     0.963112381532    -0.238218933004
    O           -1.640584791815     1.386120112232    -0.229882718054
    C           -0.632554211645     0.460431460937    -0.289745581548
    C           -0.288651406386    -0.096262939329    -1.504062405045
    C            0.064418312568     0.145201752199     0.869486422020
    H           -0.837125615621     0.190634910663    -2.380786473475
    C            0.754350304861    -0.999926980340    -1.581842793689
    C            1.109744577719    -0.757648169795     0.767706734056
    C           -0.310165513578     0.775489081619     2.185515687412
    H            1.017716401399    -1.432654253329    -2.527863645536
    C            1.455750604177    -1.332250023098    -0.441707256028
    H            1.662856049989    -1.015788410323     1.651375759238
    H           -1.323378783094     0.517547318877     2.471882304511
    H            0.355272021540     0.443429447501     2.970872452368
    H           -0.261389778218     1.855401602301     2.127536804873
    H            2.270381957650    -2.028996288377    -0.490103856077

  Mulliken Charges: (a.u.)
   Center  Symbol    Alpha    Beta     Spin     Total
       1     H     0.38898  0.38898  0.00000  0.22204
       2     O     4.18939  4.18939  0.00000 -0.37877
       3     C     2.88693  2.88693  0.00000  0.22613
       4     C     3.11017  3.11017  0.00000 -0.22034
       5     C     2.99187  2.99187  0.00000  0.01626
       6     H     0.41978  0.41978  0.00000  0.16044
       7     C     3.07708  3.07708  0.00000 -0.15417
       8     C     3.09478  3.09478  0.00000 -0.18956
       9     C     3.14135  3.14135  0.00000 -0.28271
      10     H     0.42215  0.42215  0.00000  0.15571
      11     C     3.07927  3.07927  0.00000 -0.15854
      12     H     0.42440  0.42440  0.00000  0.15120
      13     H     0.45450  0.45450  0.00000  0.09100
      14     H     0.45281  0.45281  0.00000  0.09438
      15     H     0.44250  0.44250  0.00000  0.11499
      16     H     0.42403  0.42403  0.00000  0.15194

   Total alpha = 29.00000, Total beta = 29.00000, Total charge = -0.00000

*** Psi4 exiting successfully. Buy a developer a beer!
