  ==> Input File <==

--------------------------------------------------------------------------
set {
	reference rhf
	basis 6-31G*
}

set_num_threads( 1 )
memory 2 gb

molecule MOL {
0 1

O	 1.973631	 1.065506	 -0.661042
C	 1.705091	 0.115954	 0.001797
C	 0.381791	 -0.609817	 0.001258
O	 2.560489	 -0.444824	 0.847349
C	 -0.823008	 0.326187	 0.001381
H	 0.371250	 -1.265087	 -0.865474
H	 0.370908	 -1.265746	 0.867490
C	 -2.149452	 -0.435131	 -0.000098
H	 -0.770201	 0.977095	 -0.865636
H	 -0.771220	 0.975655	 0.869608
C	 -3.368779	 0.488503	 -0.000883
H	 -2.193746	 -1.087250	 -0.871175
H	 -2.195311	 -1.087803	 0.870418
C	 -4.693822	 -0.272754	 -0.001129
H	 -3.325798	 1.139422	 -0.871284
H	 -3.326423	 1.139959	 0.869145
H	 -4.781274	 -0.907928	 -0.878124
H	 -5.538651	 0.408946	 -0.001420
H	 -4.781694	 -0.907783	 0.875984
C	 3.846213	 0.140520	 0.943482
H	 4.350086	 0.109938	 -0.011874
H	 4.384960	 -0.448189	 1.669463
H	 3.772905	 1.166761	 1.273575

	symmetry c1
}
set optking {
	frozen_dihedral = ("
		15 11 8 12,
		9 5 8 12,
		9 5 3 6,
		1 2 4 20
	")
}

ee = energy('scf')
oeprop('DIPOLE', 'QUADRUPOLE', 'MULLIKEN_CHARGES')
f=open( 'psi4out.xyz', 'w' )
f.write( "23  " )
f.write( str(ee) + "\n" )
f.write( MOL.save_string_xyz() )
f.close()
--------------------------------------------------------------------------

    Molecular point group: c1

    Geometry (in Angstrom), charge = 0, multiplicity = 1:

       Center              X                  Y                   Z               Mass
    ------------   -----------------  -----------------  -----------------  -----------------
           O          1.998595660718     1.020086432297    -0.793888823633    15.994914619560
           C          1.730055660718     0.070534432297    -0.131049823633    12.000000000000
           C          0.406755660718    -0.655236567703    -0.131588823633    12.000000000000
           O          2.585453660718    -0.490243567703     0.714502176367    15.994914619560
           C         -0.798043339282     0.280767432297    -0.131465823633    12.000000000000
           H          0.396214660718    -1.310506567703    -0.998320823633     1.007825032070
           H          0.395872660718    -1.311165567703     0.734643176367     1.007825032070
           C         -2.124487339282    -0.480550567703    -0.132944823633    12.000000000000
           H         -0.745236339282     0.931675432297    -0.998482823633     1.007825032070
           H         -0.746255339282     0.930235432297     0.736761176367     1.007825032070
           C         -3.343814339282     0.443083432297    -0.133729823633    12.000000000000
           H         -2.168781339282    -1.132669567703    -1.004021823633     1.007825032070
           H         -2.170346339282    -1.133222567703     0.737571176367     1.007825032070
           C         -4.668857339282    -0.318173567703    -0.133975823633    12.000000000000
           H         -3.300833339282     1.094002432297    -1.004130823633     1.007825032070
           H         -3.301458339282     1.094539432297     0.736298176367     1.007825032070
           H         -4.756309339282    -0.953347567703    -1.010970823633     1.007825032070
           H         -5.513686339282     0.363526432297    -0.134266823633     1.007825032070
           H         -4.756729339282    -0.953202567703     0.743137176367     1.007825032070
           C          3.871177660718     0.095100432297     0.810635176367    12.000000000000
           H          4.375050660718     0.064518432297    -0.144720823633     1.007825032070
           H          4.409924660718    -0.493608567703     1.536616176367     1.007825032070
           H          3.797869660718     1.121341432297     1.140728176367     1.007825032070

  Charge       = 0
  Multiplicity = 1
  Basis Set: 6-31G*
  Basis Set:

    Orbital Energies (a.u.)
    -----------------------

    Doubly Occupied:

       1A    -20.604957     2A    -20.543842     3A    -11.371860
       4A    -11.280489     5A    -11.234052     6A    -11.223648
       7A    -11.219712     8A    -11.217899     9A    -11.210660
      10A     -1.469324    11A     -1.362146    12A     -1.094901
      13A     -1.044369    14A     -0.987153    15A     -0.932757
      16A     -0.845177    17A     -0.796692    18A     -0.769812
      19A     -0.695182    20A     -0.682118    21A     -0.671635
      22A     -0.652474    23A     -0.607177    24A     -0.599312
      25A     -0.574776    26A     -0.568029    27A     -0.548049
      28A     -0.526950    29A     -0.523286    30A     -0.508382
      31A     -0.484655    32A     -0.473111    33A     -0.466990
      34A     -0.463889    35A     -0.454940    36A     -0.432163

  @DF-RHF Final Energy:  -422.97485751338246

   => Energetics <=

    Nuclear Repulsion Energy =            452.3130780950578469
    One-Electron Energy =               -1472.2907526150238482
    Two-Electron Energy =                 597.0028170065833137
    DFT Exchange-Correlation Energy =       0.0000000000000000
    Empirical Dispersion Energy =           0.0000000000000000
    PCM Polarization Energy =               0.0000000000000000
    EFP Energy =                            0.0000000000000000
    Total Energy =                       -422.9748575133827444

  Mulliken Charges: (a.u.)
   Center  Symbol    Alpha    Beta     Spin     Total
       1     O     4.28621  4.28621  0.00000 -0.57242
       2     C     2.60502  2.60502  0.00000  0.78996
       3     C     3.20932  3.20932  0.00000 -0.41863
       4     O     4.30513  4.30513  0.00000 -0.61026
       5     C     3.15824  3.15824  0.00000 -0.31649
       6     H     0.40037  0.40037  0.00000  0.19926
       7     H     0.40028  0.40028  0.00000  0.19943
       8     C     3.15292  3.15292  0.00000 -0.30584
       9     H     0.40520  0.40520  0.00000  0.18960
      10     H     0.41660  0.41660  0.00000  0.16680
      11     C     3.15204  3.15204  0.00000 -0.30409
      12     H     0.42250  0.42250  0.00000  0.15500
      13     H     0.42299  0.42299  0.00000  0.15402
      14     C     3.23974  3.23974  0.00000 -0.47948
      15     H     0.42068  0.42068  0.00000  0.15864
      16     H     0.42191  0.42191  0.00000  0.15619
      17     H     0.42138  0.42138  0.00000  0.15724
      18     H     0.41827  0.41827  0.00000  0.16346
      19     H     0.42168  0.42168  0.00000  0.15665
      20     C     3.09335  3.09335  0.00000 -0.18670
      21     H     0.40890  0.40890  0.00000  0.18220
      22     H     0.40845  0.40845  0.00000  0.18309
      23     H     0.40881  0.40881  0.00000  0.18237

   Total alpha = 36.00000, Total beta = 36.00000, Total charge = -0.00000
