  ==> Input File <==

--------------------------------------------------------------------------
set {
	reference rhf
	basis 6-31G*
}

set_num_threads( 1 )
memory 2 gb

molecule MOL {
0 1

O	 1.426736	 -0.609907	 -1.977596
C	 1.659390	 -0.854792	 -0.837876
C	 1.245376	 -0.013843	 0.345420
O	 2.332888	 -1.930543	 -0.449561
C	 0.455112	 1.231400	 -0.050772
H	 0.681953	 -0.658158	 1.012207
H	 2.150715	 0.252630	 0.884909
C	 -0.998893	 1.219485	 0.433193
H	 0.482531	 1.345121	 -1.130325
H	 0.957290	 2.103070	 0.354729
C	 -1.883438	 0.145884	 -0.207175
H	 -1.431207	 2.195402	 0.224832
H	 -1.019646	 1.105716	 1.516076
C	 -3.347647	 0.245583	 0.225435
H	 -1.822183	 0.231698	 -1.291012
H	 -1.510341	 -0.844814	 0.042401
C	 -4.239992	 -0.825570	 -0.404234
H	 -3.732888	 1.230466	 -0.033079
H	 -3.408585	 0.170602	 1.310038
C	 -5.701275	 -0.716658	 0.029921
H	 -4.179496	 -0.752714	 -1.488058
H	 -3.859041	 -1.810759	 -0.143352
H	 -6.308102	 -1.488908	 -0.432678
H	 -6.122175	 0.245478	 -0.248167
H	 -5.799072	 -0.820114	 1.106957
C	 2.783447	 -2.807922	 -1.465479
H	 1.947834	 -3.200029	 -2.027180
H	 3.300404	 -3.607068	 -0.957417
H	 3.455414	 -2.296116	 -2.139313

	symmetry c1
}
set optking {
	frozen_dihedral = ("
		21 17 14 11,
		17 14 11 15,
		15 11 8 5,
		11 8 5 9,
		2 4 26 27,
		1 2 4 26,
		6 3 2 1
	")
}

ee = energy('scf')
oeprop('DIPOLE', 'QUADRUPOLE', 'MULLIKEN_CHARGES')
f=open( 'psi4out.xyz', 'w' )
f.write( "29  " )
f.write( str(ee) + "\n" )
f.write( MOL.save_string_xyz() )
f.close()
--------------------------------------------------------------------------

    Molecular point group: c1

    Geometry (in Angstrom), charge = 0, multiplicity = 1:

       Center              X                  Y                   Z               Mass
    ------------   -----------------  -----------------  -----------------  -----------------
           O          1.974522905840    -0.130546464879    -1.563594675906    15.994914619560
           C          2.207176905840    -0.375431464879    -0.423874675906    12.000000000000
           C          1.793162905840     0.465517535121     0.759421324094    12.000000000000
           O          2.880674905840    -1.451182464879    -0.035559675906    15.994914619560
           C          1.002898905840     1.710760535121     0.363229324094    12.000000000000
           H          1.229739905840    -0.178797464879     1.426208324094     1.007825032070
           H          2.698501905840     0.731990535121     1.298910324094     1.007825032070
           C         -0.451106094160     1.698845535121     0.847194324094    12.000000000000
           H          1.030317905840     1.824481535121    -0.716323675906     1.007825032070
           H          1.505076905840     2.582430535121     0.768730324094     1.007825032070
           C         -1.335651094160     0.625244535121     0.206826324094    12.000000000000
           H         -0.883420094160     2.674762535121     0.638833324094     1.007825032070
           H         -0.471859094160     1.585076535121     1.930077324094     1.007825032070
           C         -2.799860094160     0.724943535121     0.639436324094    12.000000000000
           H         -1.274396094160     0.711058535121    -0.877010675906     1.007825032070
           H         -0.962554094160    -0.365453464879     0.456402324094     1.007825032070
           C         -3.692205094160    -0.346209464879     0.009767324094    12.000000000000
           H         -3.185101094160     1.709826535121     0.380922324094     1.007825032070
           H         -2.860798094160     0.649962535121     1.724039324094     1.007825032070
           C         -5.153488094160    -0.237297464879     0.443922324094    12.000000000000
           H         -3.631709094160    -0.273353464879    -1.074056675906     1.007825032070
           H         -3.311254094160    -1.331398464879     0.270649324094     1.007825032070
           H         -5.760315094160    -1.009547464879    -0.018676675906     1.007825032070
           H         -5.574388094160     0.724838535121     0.165834324094     1.007825032070
           H         -5.251285094160    -0.340753464879     1.520958324094     1.007825032070
           C          3.331233905840    -2.328561464879    -1.051477675906    12.000000000000
           H          2.495620905840    -2.720668464879    -1.613178675906     1.007825032070
           H          3.848190905840    -3.127707464879    -0.543415675906     1.007825032070
           H          4.003200905840    -1.816755464879    -1.725311675906     1.007825032070

  Charge       = 0
  Multiplicity = 1
  Basis Set: 6-31G*
  Basis Set:

    Orbital Energies (a.u.)
    -----------------------

    Doubly Occupied:

       1A    -20.604039     2A    -20.546270     3A    -11.372488
       4A    -11.280995     5A    -11.233566     6A    -11.215187
       7A    -11.214601     8A    -11.212987     9A    -11.211821
      10A    -11.211238    11A    -11.206862    12A     -1.469817
      13A     -1.363665    14A     -1.095716    15A     -1.064770
      16A     -1.017263    17A     -0.976409    18A     -0.926765
      19A     -0.860238    20A     -0.798211    21A     -0.786862
      22A     -0.762729    23A     -0.703429    24A     -0.681943
      25A     -0.673378    26A     -0.647882    27A     -0.623834
      28A     -0.607879    29A     -0.591977    30A     -0.579109
      31A     -0.564788    32A     -0.545401    33A     -0.536561
      34A     -0.528639    35A     -0.515798    36A     -0.501829
      37A     -0.494524    38A     -0.475882    39A     -0.467423
      40A     -0.459118    41A     -0.457700    42A     -0.455840
      43A     -0.439521    44A     -0.434516

  @DF-RHF Final Energy:  -501.03981784727796

   => Energetics <=

    Nuclear Repulsion Energy =            626.6271245998406130
    One-Electron Energy =               -1924.4949673619416899
    Two-Electron Energy =                 796.8280249148234589
    DFT Exchange-Correlation Energy =       0.0000000000000000
    Empirical Dispersion Energy =           0.0000000000000000
    PCM Polarization Energy =               0.0000000000000000
    EFP Energy =                            0.0000000000000000
    Total Energy =                       -501.0398178472777317

  Mulliken Charges: (a.u.)
   Center  Symbol    Alpha    Beta     Spin     Total
       1     O     4.28505  4.28505  0.00000 -0.57011
       2     C     2.61077  2.61077  0.00000  0.77845
       3     C     3.21059  3.21059  0.00000 -0.42118
       4     O     4.30585  4.30585  0.00000 -0.61170
       5     C     3.16469  3.16469  0.00000 -0.32938
       6     H     0.39770  0.39770  0.00000  0.20460
       7     H     0.39710  0.39710  0.00000  0.20581
       8     C     3.15669  3.15669  0.00000 -0.31338
       9     H     0.39338  0.39338  0.00000  0.21323
      10     H     0.41794  0.41794  0.00000  0.16411
      11     C     3.15439  3.15439  0.00000 -0.30877
      12     H     0.42048  0.42048  0.00000  0.15903
      13     H     0.42517  0.42517  0.00000  0.14966
      14     C     3.15045  3.15045  0.00000 -0.30091
      15     H     0.41590  0.41590  0.00000  0.16820
      16     H     0.42633  0.42633  0.00000  0.14734
      17     C     3.15133  3.15133  0.00000 -0.30266
      18     H     0.42365  0.42365  0.00000  0.15270
      19     H     0.42523  0.42523  0.00000  0.14954
      20     C     3.23927  3.23927  0.00000 -0.47854
      21     H     0.42176  0.42176  0.00000  0.15648
      22     H     0.42371  0.42371  0.00000  0.15257
      23     H     0.41951  0.41951  0.00000  0.16098
      24     H     0.42179  0.42179  0.00000  0.15641
      25     H     0.42234  0.42234  0.00000  0.15531
      26     C     3.09224  3.09224  0.00000 -0.18448
      27     H     0.40906  0.40906  0.00000  0.18187
      28     H     0.40850  0.40850  0.00000  0.18301
      29     H     0.40910  0.40910  0.00000  0.18181

   Total alpha = 44.00000, Total beta = 44.00000, Total charge =  0.00000
