                              Psi4 1.0.54 Driver

  ==> Input File <==

--------------------------------------------------------------------------
set {
	reference rhf
	basis cc-pvtz
}

set_num_threads( 4 )
memory 2 gb

molecule MOL {
0 1

H	 -3.258660	 -0.290394	 1.471450
C	 -3.307964	 -0.275695	 0.374072
C	 -2.653809	 0.914422	 -0.273689
O	 -3.855140	 -1.148880	 -0.205112
C	 -1.324217	 0.565456	 -0.949028
H	 -3.353343	 1.353794	 -0.972930
H	 -2.473278	 1.638287	 0.517976
C	 -1.475872	 -0.340101	 -2.169336
H	 -0.836641	 1.488430	 -1.243525
H	 -0.665135	 0.094169	 -0.223981
C	 -0.143980	 -0.670117	 -2.837867
H	 -2.132288	 0.141661	 -2.889149
H	 -1.971581	 -1.263999	 -1.882784
C	 -0.299929	 -1.566105	 -4.065113
H	 0.349910	 0.256265	 -3.113972
H	 0.506986	 -1.160898	 -2.117676
C	 1.014919	 -1.990962	 -4.721294
H	 -0.920003	 -1.060583	 -4.801822
H	 -0.844359	 -2.460325	 -3.774816
C	 1.809253	 -0.851949	 -5.355933
H	 0.792497	 -2.727793	 -5.486801
H	 1.635216	 -2.497159	 -3.986241
H	 1.211412	 -0.322904	 -6.091252
H	 2.143287	 -0.130245	 -4.620236
H	 2.690037	 -1.232526	 -5.860259

	symmetry c1
}
set optking {
	frozen_dihedral = ("
		6 3 2 4
	")
}

ee,wfn = optimize('scf', return_wfn=True)
oeprop( wfn, 'DIPOLE', 'QUADRUPOLE', 'MULLIKEN_CHARGES')
f=open( 'psi4out.xyz', 'w' )
f.write( "25  " )
f.write( str(ee) + "\n" )
f.write( MOL.save_string_xyz() )
f.close()
--------------------------------------------------------------------------

    Molecular point group: c1
  Charge       = 0
  Multiplicity = 1
  Basis Set: CC-PVTZ
  Basis Set:
  @DF-RHF Final Energy:  -387.25692853210467
    Total Energy =                       -387.2569285321052348
    Molecular point group: c1
  Basis Set: CC-PVTZ
  Basis Set:
  Basis Set: CC-PVTZ
  Basis Set:
  @DF-RHF Final Energy:  -387.25617192089652
    Total Energy =                       -387.2561719208969180
  Basis Set: CC-PVTZ
  Basis Set:
  Basis Set: CC-PVTZ
  Basis Set:
  @DF-RHF Final Energy:  -387.25723468606066
    Total Energy =                       -387.2572346860606558
  Basis Set: CC-PVTZ
  Basis Set:
  Basis Set: CC-PVTZ
  Basis Set:
  @DF-RHF Final Energy:  -387.25749395030715
    Total Energy =                       -387.2574939503070937
  Basis Set: CC-PVTZ
  Basis Set:
  Basis Set: CC-PVTZ
  Basis Set:
  @DF-RHF Final Energy:  -387.25749892255470
    Total Energy =                       -387.2574989225547597
  Basis Set: CC-PVTZ
  Basis Set:
  Basis Set: CC-PVTZ
  Basis Set:
  @DF-RHF Final Energy:  -387.25750036060572
    Total Energy =                       -387.2575003606054906
  Basis Set: CC-PVTZ
  Basis Set:
  Charge       = 0
  Multiplicity = 1
  Basis Set: CC-PVTZ
  Basis Set:

    Orbital Energies (a.u.)
    -----------------------

    Doubly Occupied:

       1A    -20.552715     2A    -11.322376     3A    -11.234143
       4A    -11.230840     5A    -11.212229     6A    -11.211885
       7A    -11.211276     8A    -11.209855     9A    -11.205623
      10A     -1.407849    11A     -1.098502    12A     -1.065913
      13A     -1.010706    14A     -0.941496    15A     -0.874305
      16A     -0.814534    17A     -0.783442    18A     -0.775046
      19A     -0.681005    20A     -0.661117    21A     -0.631637
      22A     -0.616045    23A     -0.593991    24A     -0.591664
      25A     -0.573972    26A     -0.553036    27A     -0.538027
      28A     -0.516518    29A     -0.508072    30A     -0.496576
      31A     -0.485644    32A     -0.474266    33A     -0.459875
      34A     -0.454633    35A     -0.438819    36A     -0.409085

  @DF-RHF Final Energy:  -387.25750033027731

   => Energetics <=

    Nuclear Repulsion Energy =            443.1575348367370566
    One-Electron Energy =               -1403.1366353833082030
    Two-Electron Energy =                 572.7216002162937230
    DFT Exchange-Correlation Energy =       0.0000000000000000
    Empirical Dispersion Energy =           0.0000000000000000
    PCM Polarization Energy =               0.0000000000000000
    EFP Energy =                            0.0000000000000000
    Total Energy =                       -387.2575003302773666
    Molecular point group: c1
  Basis Set: CC-PVTZ
  Basis Set:

  -Total Gradient:
     Atom            X                  Y                   Z
    ------   -----------------  -----------------  -----------------
       1        0.000021452341     0.000024930782     0.000039731283
       2       -0.002580153392     0.001691309454     0.000297601705
       3        0.001642824954    -0.001863390520    -0.001596379668
       4        0.001664939203    -0.000991108211    -0.000083922354
       5        0.000012988179     0.000022957048     0.000044468633
       6       -0.000708492069     0.001120386330     0.001252022559
       7        0.000045950664    -0.000020216789     0.000011816423
       8       -0.000012380327     0.000007736555    -0.000016983362
       9       -0.000033752147     0.000006847802     0.000024611156
      10       -0.000027702549     0.000008010074     0.000026654657
      11       -0.000006476753     0.000006089948     0.000012136857
      12       -0.000000529704    -0.000000141142    -0.000002855017
      13       -0.000006267810    -0.000024417989    -0.000000420293
      14        0.000000805294     0.000017167268    -0.000020918800
      15       -0.000036462924    -0.000011689310     0.000009589674
      16       -0.000000968316     0.000007738481    -0.000002480449
      17        0.000017394079     0.000003086708     0.000037500720
      18        0.000007925944     0.000011352943     0.000005053041
      19       -0.000005934734     0.000001440626    -0.000009485483
      20        0.000001355425    -0.000005432935    -0.000016407932
      21       -0.000000733506    -0.000006164519     0.000008115766
      22        0.000003547086     0.000007592266     0.000002328336
      23        0.000000666396     0.000006511138     0.000001617644
      24        0.000009846063    -0.000019683383    -0.000018364844
      25       -0.000009841396    -0.000000912628    -0.000005030255

  **** Optimization is complete! (in 7 steps) ****
    Final optimized geometry and variables:
    Molecular point group: c1

    Geometry (in Angstrom), charge = 0, multiplicity = 1:

    H           -2.155270805457     0.357543564180     3.756081273934
    C           -2.214873070548     0.318850324342     2.661332812599
    C           -1.602484465821     1.487840291993     1.926887503448
    O           -2.712097814790    -0.616719959467     2.134958848984
    C           -0.260047040364     1.141265964488     1.262930497308
    H           -2.315628289434     1.835779494433     1.187800530178
    H           -1.451810228922     2.293434314330     2.636999052060
    C           -0.370890708423     0.252216177894     0.026877937379
    H            0.221215966007     2.074496542059     0.989309085475
    H            0.390832265606     0.671029436983     1.996035005349
    C            0.987672288867    -0.056903539236    -0.597298894213
    H           -1.000323562995     0.748398347127    -0.707749886655
    H           -0.874263969072    -0.671964087316     0.282317502426
    C            0.880414997148    -0.928025861316    -1.847523909741
    H            1.490421663737     0.875456193330    -0.836012139923
    H            1.612405133735    -0.562314126957     0.136068128202
    C            2.219682922065    -1.344109534262    -2.458288928423
    H            0.292001561119    -0.406296052521    -2.598915807060
    H            0.322402601245    -1.825601686479    -1.596852770282
    C            3.040847515104    -0.195952395482    -3.040207434505
    H            2.027137581190    -2.066712679329    -3.245308973869
    H            2.809302357345    -1.864737746783    -1.708219726542
    H            2.473033235312     0.348821748539    -3.787826041102
    H            3.347716272555     0.510723497152    -2.278552178175
    H            3.939648572963    -0.569533057981    -3.517460121680

  Mulliken Charges: (a.u.)
   Center  Symbol    Alpha    Beta     Spin     Total
       1     H     0.45397  0.45397  0.00000  0.09206
       2     C     2.91521  2.91521  0.00000  0.16957
       3     C     3.09354  3.09354  0.00000 -0.18708
       4     O     4.16815  4.16815  0.00000 -0.33630
       5     C     3.10306  3.10306  0.00000 -0.20612
       6     H     0.44312  0.44312  0.00000  0.11377
       7     H     0.44268  0.44268  0.00000  0.11465
       8     C     3.08982  3.08982  0.00000 -0.17964
       9     H     0.44555  0.44555  0.00000  0.10891
      10     H     0.45177  0.45177  0.00000  0.09646
      11     C     3.09276  3.09276  0.00000 -0.18552
      12     H     0.45570  0.45570  0.00000  0.08861
      13     H     0.43750  0.43750  0.00000  0.12501
      14     C     3.09520  3.09520  0.00000 -0.19041
      15     H     0.45380  0.45380  0.00000  0.09241
      16     H     0.45487  0.45487  0.00000  0.09026
      17     C     3.09053  3.09053  0.00000 -0.18106
      18     H     0.45404  0.45404  0.00000  0.09191
      19     H     0.44714  0.44714  0.00000  0.10573
      20     C     3.15265  3.15265  0.00000 -0.30529
      21     H     0.44822  0.44822  0.00000  0.10356
      22     H     0.45486  0.45486  0.00000  0.09027
      23     H     0.45502  0.45502  0.00000  0.08995
      24     H     0.45443  0.45443  0.00000  0.09113
      25     H     0.44641  0.44641  0.00000  0.10718

   Total alpha = 36.00000, Total beta = 36.00000, Total charge =  0.00000

*** Psi4 exiting successfully. Buy a developer a beer!
