  ==> Input File <==

--------------------------------------------------------------------------
set {
	reference rhf
	basis 6-31G*
}

set_num_threads( 4 )
memory 2 gb

molecule MOL {
0 1

H	 -2.273092	 1.173159	 0.000295
O	 -1.438904	 1.618192	 0.000114
C	 -0.409536	 0.736003	 0.000030
C	 0.465780	 0.801857	 1.072729
C	 -0.226581	 -0.196068	 -1.019142
H	 0.287905	 1.535606	 1.836905
C	 1.538953	 -0.065986	 1.140973
C	 0.860803	 -1.056094	 -0.924586
C	 -1.182648	 -0.266227	 -2.188766
H	 2.214421	 -0.009760	 1.975883
C	 1.742851	 -1.002192	 0.140013
H	 1.016040	 -1.781951	 -1.703931
H	 -1.208077	 0.665732	 -2.749792
H	 -0.886040	 -1.045679	 -2.879022
H	 -2.198896	 -0.489815	 -1.870578
H	 2.575424	 -1.680317	 0.186571

	symmetry c1
}
set optking {
	frozen_dihedral = ("
		4 3 2 1
	")
}

ee = optimize('scf')
oeprop('DIPOLE', 'QUADRUPOLE', 'MULLIKEN_CHARGES')
f=open( 'psi4out.xyz', 'w' )
f.write( "16  " )
f.write( str(ee) + "\n" )
f.write( MOL.save_string_xyz() )
f.close()
--------------------------------------------------------------------------

    Molecular point group: c1
  Charge       = 0
  Multiplicity = 1
  Basis Set: 6-31G*
  Basis Set:
  @DF-RHF Final Energy:  -344.59099125458260
    Total Energy =                       -344.5909912545826614
    Molecular point group: c1
  Basis Set: 6-31G*
  Basis Set:
  Basis Set: 6-31G*
  Basis Set:
  @DF-RHF Final Energy:  -344.59155976622594
    Total Energy =                       -344.5915597662259415
  Basis Set: 6-31G*
  Basis Set:
  Basis Set: 6-31G*
  Basis Set:
  @DF-RHF Final Energy:  -344.59163304118061
    Total Energy =                       -344.5916330411808417
  Basis Set: 6-31G*
  Basis Set:
  Basis Set: 6-31G*
  Basis Set:
  @DF-RHF Final Energy:  -344.59164955066257
    Total Energy =                       -344.5916495506623960
  Basis Set: 6-31G*
  Basis Set:
  Basis Set: 6-31G*
  Basis Set:
  @DF-RHF Final Energy:  -344.59165231166583
    Total Energy =                       -344.5916523116658823
  Basis Set: 6-31G*
  Basis Set:
  Charge       = 0
  Multiplicity = 1
  Basis Set: 6-31G*
  Basis Set:

    Orbital Energies (a.u.)
    -----------------------

    Doubly Occupied:

       1A    -20.578491     2A    -11.285049     3A    -11.235200
       4A    -11.229419     5A    -11.229152     6A    -11.224931
       7A    -11.224216     8A    -11.222811     9A     -1.393606
      10A     -1.148680    11A     -1.045937    12A     -1.003390
      13A     -0.935859    14A     -0.825283    15A     -0.810765
      16A     -0.725706    17A     -0.670627    18A     -0.648950
      19A     -0.620642    20A     -0.592122    21A     -0.571639
      22A     -0.568794    23A     -0.548088    24A     -0.523046
      25A     -0.500621    26A     -0.482884    27A     -0.464964
      28A     -0.328618    29A     -0.315093

  @DF-RHF Final Energy:  -344.59165263974865

   => Energetics <=

    Nuclear Repulsion Energy =            349.8173723569842650
    One-Electron Energy =               -1160.9088817828983338
    Two-Electron Energy =                 466.4998567861654237
    DFT Exchange-Correlation Energy =       0.0000000000000000
    Empirical Dispersion Energy =           0.0000000000000000
    PCM Polarization Energy =               0.0000000000000000
    EFP Energy =                            0.0000000000000000
    Total Energy =                       -344.5916526397486450
    Molecular point group: c1
  Basis Set: 6-31G*
  Basis Set:

  -Total Gradient:
     Atom            X                  Y                   Z
    ------   -----------------  -----------------  -----------------
       1       -0.000020622525     0.000070586171     0.001530140095
       2       -0.000304364945    -0.000401054727    -0.001628746107
       3        0.000991413565     0.001019788945    -0.000459627213
       4       -0.000691365437    -0.000645344828     0.000581021723
       5        0.000010868352    -0.000023263571    -0.000027267782
       6        0.000000806970    -0.000011520057    -0.000008426462
       7        0.000029139003    -0.000048108040    -0.000021015676
       8       -0.000058057241     0.000050086857    -0.000034751435
       9       -0.000007656961    -0.000006812917     0.000032840144
      10        0.000005342616    -0.000000258496     0.000006245694
      11        0.000025551244     0.000009311964     0.000053180289
      12        0.000002293053    -0.000007824711    -0.000005947076
      13        0.000010631191    -0.000005905673    -0.000000335291
      14        0.000005950679    -0.000005333394    -0.000018725145
      15        0.000008283155     0.000004539555     0.000005248638
      16       -0.000008212715     0.000001112921    -0.000003834392

  **** Optimization is complete! (in 6 steps) ****
    Final optimized geometry and variables:
    Molecular point group: c1

    Geometry (in Angstrom), charge = 0, multiplicity = 1:

    H           -2.359659472774     1.077786181820     0.197129288225
    O           -1.525078229779     1.527073985793     0.193910098581
    C           -0.495843792644     0.625682699091     0.250609881512
    C            0.377430100849     0.697167981061     1.319934139539
    C           -0.320591132993    -0.313160625753    -0.763554374574
    H            0.204767096241     1.438861521553     2.077803918019
    C            1.453783974158    -0.172052280961     1.392926912254
    C            0.758285470285    -1.180934425578    -0.664431633572
    C           -1.280537352552    -0.368539063999    -1.927580775248
    H            2.134240855374    -0.111859071436     2.223367867080
    C            1.643588908316    -1.117034910833     0.400499868027
    H            0.911906376527    -1.913601134779    -1.437584373201
    H           -1.394547681188     0.607555259720    -2.386030328100
    H           -0.930942435718    -1.061390990308    -2.683286158027
    H           -2.270258210841    -0.699165733057    -1.618666921413
    H            2.474222351792    -1.797909118342     0.449707523997

  Mulliken Charges: (a.u.)
   Center  Symbol    Alpha    Beta     Spin     Total
       1     H     0.27177  0.27177  0.00000  0.45645
       2     O     4.38624  4.38624  0.00000 -0.77248
       3     C     2.83172  2.83172  0.00000  0.33655
       4     C     3.11323  3.11323  0.00000 -0.22646
       5     C     3.00065  3.00065  0.00000 -0.00130
       6     H     0.39282  0.39282  0.00000  0.21436
       7     C     3.10061  3.10061  0.00000 -0.20123
       8     C     3.11174  3.11174  0.00000 -0.22347
       9     C     3.25449  3.25449  0.00000 -0.50897
      10     H     0.39893  0.39893  0.00000  0.20215
      11     C     3.10230  3.10230  0.00000 -0.20459
      12     H     0.40116  0.40116  0.00000  0.19768
      13     H     0.40252  0.40252  0.00000  0.19495
      14     H     0.41145  0.41145  0.00000  0.17710
      15     H     0.42007  0.42007  0.00000  0.15986
      16     H     0.40030  0.40030  0.00000  0.19941

   Total alpha = 29.00000, Total beta = 29.00000, Total charge =  0.00000
