  ==> Input File <==

--------------------------------------------------------------------------
set {
	reference rhf
	basis 6-31G*
}

set_num_threads( 1 )
memory 2 gb

molecule MOL {
0 1

H	 3.893188	 0.355400	 -0.101367
N	 3.092854	 -0.246221	 -0.068770
C	 1.865559	 0.531981	 0.018834
H	 3.199514	 -0.826043	 0.741946
C	 0.645745	 -0.382037	 -0.029944
H	 1.841966	 1.207024	 -0.831236
H	 1.815756	 1.155410	 0.915079
C	 -0.679275	 0.379305	 0.025956
H	 0.698998	 -0.976915	 -0.937203
H	 0.693479	 -1.083846	 0.802235
C	 -1.010694	 1.108663	 -1.277337
H	 -0.646485	 1.101175	 0.840620
H	 -1.486782	 -0.311434	 0.263985
C	 -2.333539	 1.871407	 -1.215594
H	 -0.205917	 1.800296	 -1.516486
H	 -1.046718	 0.389433	 -2.092854
H	 -2.316679	 2.622599	 -0.430901
H	 -2.540163	 2.377899	 -2.153345
H	 -3.163852	 1.200948	 -1.011984

	symmetry c1
}
set optking {
	frozen_dihedral = ("
		6 3 5 9,
		12 8 11 15,
		1 2 3 6
	")
}

ee = energy('scf')
oeprop('DIPOLE', 'QUADRUPOLE', 'MULLIKEN_CHARGES')
f=open( 'psi4out.xyz', 'w' )
f.write( "19  " )
f.write( str(ee) + "\n" )
f.write( MOL.save_string_xyz() )
f.close()
--------------------------------------------------------------------------

    Molecular point group: c1

    Geometry (in Angstrom), charge = 0, multiplicity = 1:

       Center              X                  Y                   Z               Mass
    ------------   -----------------  -----------------  -----------------  -----------------
           H          3.595786683078    -0.192749380963     0.314851743288     1.007825032070
           N          2.795452683078    -0.794370380963     0.347448743288    14.003074004780
           C          1.568157683078    -0.016168380963     0.435052743288    12.000000000000
           H          2.902112683078    -1.374192380963     1.158164743288     1.007825032070
           C          0.348343683078    -0.930186380963     0.386274743288    12.000000000000
           H          1.544564683078     0.658874619037    -0.415017256712     1.007825032070
           H          1.518354683078     0.607260619037     1.331297743288     1.007825032070
           C         -0.976676316922    -0.168844380963     0.442174743288    12.000000000000
           H          0.401596683078    -1.525064380963    -0.520984256712     1.007825032070
           H          0.396077683078    -1.631995380963     1.218453743288     1.007825032070
           C         -1.308095316922     0.560513619037    -0.861118256712    12.000000000000
           H         -0.943886316922     0.553025619037     1.256838743288     1.007825032070
           H         -1.784183316922    -0.859583380963     0.680203743288     1.007825032070
           C         -2.630940316922     1.323257619037    -0.799375256712    12.000000000000
           H         -0.503318316922     1.252146619037    -1.100267256712     1.007825032070
           H         -1.344119316922    -0.158716380963    -1.676635256712     1.007825032070
           H         -2.614080316922     2.074449619037    -0.014682256712     1.007825032070
           H         -2.837564316922     1.829749619037    -1.737126256712     1.007825032070
           H         -3.461253316922     0.652798619037    -0.595765256712     1.007825032070

  Charge       = 0
  Multiplicity = 1
  Basis Set: 6-31G*
  Basis Set:

    Orbital Energies (a.u.)
    -----------------------

    Doubly Occupied:

       1A    -15.532503     2A    -11.239347     3A    -11.213357
       4A    -11.212389     5A    -11.209225     6A    -11.207420
       7A     -1.176650     8A     -1.073592     9A     -0.996706
      10A     -0.898753    11A     -0.826783    12A     -0.778095
      13A     -0.662286    14A     -0.636486    15A     -0.618911
      16A     -0.592344    17A     -0.570453    18A     -0.549147
      19A     -0.524943    20A     -0.499917    21A     -0.489434
      22A     -0.463914    23A     -0.455262    24A     -0.446122
      25A     -0.381324

  @DF-RHF Final Energy:  -251.34966138498990

   => Energetics <=

    Nuclear Repulsion Energy =            249.3449385333955490
    One-Electron Energy =                -832.8784551834653485
    Two-Electron Energy =                 332.1838552650800125
    DFT Exchange-Correlation Energy =       0.0000000000000000
    Empirical Dispersion Energy =           0.0000000000000000
    PCM Polarization Energy =               0.0000000000000000
    EFP Energy =                            0.0000000000000000
    Total Energy =                       -251.3496613849898154

  Mulliken Charges: (a.u.)
   Center  Symbol    Alpha    Beta     Spin     Total
       1     H     0.33257  0.33257  0.00000  0.33485
       2     N     3.92186  3.92186  0.00000 -0.84372
       3     C     3.06164  3.06164  0.00000 -0.12327
       4     H     0.33539  0.33539  0.00000  0.32922
       5     C     3.15365  3.15365  0.00000 -0.30730
       6     H     0.41936  0.41936  0.00000  0.16127
       7     H     0.43478  0.43478  0.00000  0.13044
       8     C     3.15711  3.15711  0.00000 -0.31422
       9     H     0.41312  0.41312  0.00000  0.17375
      10     H     0.42547  0.42547  0.00000  0.14906
      11     C     3.15317  3.15317  0.00000 -0.30634
      12     H     0.42492  0.42492  0.00000  0.15015
      13     H     0.42069  0.42069  0.00000  0.15863
      14     C     3.23879  3.23879  0.00000 -0.47759
      15     H     0.42239  0.42239  0.00000  0.15521
      16     H     0.42137  0.42137  0.00000  0.15726
      17     H     0.42239  0.42239  0.00000  0.15521
      18     H     0.41945  0.41945  0.00000  0.16109
      19     H     0.42186  0.42186  0.00000  0.15629

   Total alpha = 25.00000, Total beta = 25.00000, Total charge = -0.00000
