                              Psi4 1.0.54 Driver

  ==> Input File <==

--------------------------------------------------------------------------
set {
	reference rhf
	basis cc-pvtz
}

set_num_threads( 4 )
memory 2 gb

molecule MOL {
0 1

H	 3.459101	 0.139266	 -0.762951
C	 2.749156	 -0.051729	 0.031265
C	 1.322304	 0.099773	 -0.484271
H	 2.929445	 -1.053887	 0.403481
H	 2.954281	 0.646699	 0.834672
C	 0.308557	 -0.162619	 0.622645
H	 1.143368	 -0.594400	 -1.295960
H	 1.169532	 1.100095	 -0.870217
N	 -1.069352	 -0.004081	 0.085342
H	 0.371632	 -1.172932	 0.991288
H	 0.400391	 0.548875	 1.426218
O	 -1.257155	 0.888594	 -0.671254
O	 -1.893440	 -0.763132	 0.472205

	symmetry c1
}
set optking {
	frozen_dihedral = ("
		12 9 6 3
	")
}

ee,wfn = optimize('scf', return_wfn=True)
oeprop( wfn, 'DIPOLE', 'QUADRUPOLE', 'MULLIKEN_CHARGES')
f=open( 'psi4out.xyz', 'w' )
f.write( "13  " )
f.write( str(ee) + "\n" )
f.write( MOL.save_string_xyz() )
f.close()
--------------------------------------------------------------------------

    Molecular point group: c1
  Charge       = 0
  Multiplicity = 1
  Basis Set: CC-PVTZ
  Basis Set:
  @DF-RHF Final Energy:  -321.86005741084023
    Total Energy =                       -321.8600574108402270
    Molecular point group: c1
  Basis Set: CC-PVTZ
  Basis Set:
  Basis Set: CC-PVTZ
  Basis Set:
  @DF-RHF Final Energy:  -321.85939671433630
    Total Energy =                       -321.8593967143359578
  Basis Set: CC-PVTZ
  Basis Set:
  Basis Set: CC-PVTZ
  Basis Set:
  @DF-RHF Final Energy:  -321.85422810612158
    Total Energy =                       -321.8542281061216386
  Basis Set: CC-PVTZ
  Basis Set:
  Basis Set: CC-PVTZ
  Basis Set:
  @DF-RHF Final Energy:  -321.85889951215847
    Total Energy =                       -321.8588995121585867
  Basis Set: CC-PVTZ
  Basis Set:
  Basis Set: CC-PVTZ
  Basis Set:
  @DF-RHF Final Energy:  -321.86064562726170
    Total Energy =                       -321.8606456272619880
  Basis Set: CC-PVTZ
  Basis Set:
  Basis Set: CC-PVTZ
  Basis Set:
  @DF-RHF Final Energy:  -321.86086689695401
    Total Energy =                       -321.8608668969540076
  Basis Set: CC-PVTZ
  Basis Set:
  Basis Set: CC-PVTZ
  Basis Set:
  @DF-RHF Final Energy:  -321.86087360219449
    Total Energy =                       -321.8608736021946015
  Basis Set: CC-PVTZ
  Basis Set:
  Charge       = 0
  Multiplicity = 1
  Basis Set: CC-PVTZ
  Basis Set:

    Orbital Energies (a.u.)
    -----------------------

    Doubly Occupied:

       1A    -20.591277     2A    -20.590419     3A    -15.837998
       4A    -11.298471     5A    -11.249197     6A    -11.235573
       7A     -1.636942     8A     -1.420986     9A     -1.132331
      10A     -1.027147    11A     -0.884681    12A     -0.829410
      13A     -0.763632    14A     -0.746030    15A     -0.730287
      16A     -0.663734    17A     -0.605850    18A     -0.581466
      19A     -0.551823    20A     -0.522256    21A     -0.510259
      22A     -0.487580    23A     -0.474400    24A     -0.454500

  @DF-RHF Final Energy:  -321.86087379913749

   => Energetics <=

    Nuclear Repulsion Energy =            247.6896882014580115
    One-Electron Energy =                -929.4486234180433257
    Two-Electron Energy =                 359.8980614174479342
    DFT Exchange-Correlation Energy =       0.0000000000000000
    Empirical Dispersion Energy =           0.0000000000000000
    PCM Polarization Energy =               0.0000000000000000
    EFP Energy =                            0.0000000000000000
    Total Energy =                       -321.8608737991373800
    Molecular point group: c1
  Basis Set: CC-PVTZ
  Basis Set:

  -Total Gradient:
     Atom            X                  Y                   Z
    ------   -----------------  -----------------  -----------------
       1       -0.000000153852    -0.000001514406    -0.000001809449
       2       -0.000002698759     0.000001984817     0.000001509520
       3       -0.000053185657     0.000358503293     0.000095428002
       4       -0.000002517648    -0.000000311235    -0.000002001979
       5       -0.000004884530     0.000000680618     0.000000126632
       6        0.000093706923    -0.000618366818    -0.000252615822
       7        0.000002256688    -0.000007798259    -0.000010218473
       8       -0.000002686487     0.000001285387     0.000017251935
       9       -0.000137783463     0.000502815052     0.000593345790
      10        0.000022565732     0.000003804293    -0.000007579421
      11        0.000013168873     0.000005812556     0.000004876548
      12        0.000077164177    -0.000346073499    -0.000372215225
      13       -0.000004951997     0.000099178200    -0.000066098057

  **** Optimization is complete! (in 8 steps) ****
    Final optimized geometry and variables:
    Molecular point group: c1

    Geometry (in Angstrom), charge = 0, multiplicity = 1:

    H            3.408539484232     0.537369903226    -0.944688946039
    C            2.750813764462     0.288638055154    -0.122085420898
    C            1.299002085494     0.269710598196    -0.590741941489
    H            3.056718911228    -0.676295028454     0.266429523897
    H            2.903680368697     1.026348011261     0.658030138853
    C            0.369541676392    -0.082132882079     0.556547364190
    H            1.176350996515    -0.457909330274    -1.384983670412
    H            1.021347284386     1.231677140900    -0.995485470961
    N           -1.062128768951    -0.140861993248     0.139886122880
    H            0.581208326793    -1.044470830853     0.989950574801
    H            0.395829330243     0.669581572098     1.334039870472
    O           -1.449505831829     0.680663748920    -0.621096545017
    O           -1.726569385148    -0.995667313933     0.620710951788

  Mulliken Charges: (a.u.)
   Center  Symbol    Alpha    Beta     Spin     Total
       1     H     0.44141  0.44141  0.00000  0.11718
       2     C     3.15194  3.15194  0.00000 -0.30389
       3     C     3.09438  3.09438  0.00000 -0.18875
       4     H     0.45248  0.45248  0.00000  0.09504
       5     H     0.45264  0.45264  0.00000  0.09471
       6     C     3.04276  3.04276  0.00000 -0.08552
       7     H     0.44363  0.44363  0.00000  0.11273
       8     H     0.43362  0.43362  0.00000  0.13275
       9     N     3.27569  3.27569  0.00000  0.44862
      10     H     0.43175  0.43175  0.00000  0.13650
      11     H     0.43718  0.43718  0.00000  0.12564
      12     O     4.17220  4.17220  0.00000 -0.34441
      13     O     4.17030  4.17030  0.00000 -0.34060

   Total alpha = 24.00000, Total beta = 24.00000, Total charge =  0.00000

*** Psi4 exiting successfully. Buy a developer a beer!
