  ==> Input File <==

--------------------------------------------------------------------------
set {
	reference rhf
	basis 6-31G*
}

set_num_threads( 4 )
memory 2 gb

molecule MOL {
0 1

H	 2.465338	 -2.224223	 0.000000
O	 2.784187	 -1.332015	 0.000000
C	 1.765313	 -0.449364	 0.000000
C	 1.282608	 -0.031197	 1.236154
C	 1.203031	 0.037741	 -1.163917
H	 1.736402	 -0.424318	 2.126313
C	 0.241126	 0.871040	 1.302109
H	 1.555032	 -0.267197	 -2.129647
C	 0.158661	 0.942479	 -1.061162
H	 -0.125315	 1.188488	 2.260652
C	 -0.340811	 1.375172	 0.146668
N	 -0.432574	 1.454667	 -2.295500
H	 -1.149289	 2.075557	 0.181717
O	 0.018564	 1.063846	 -3.329795
O	 -1.330963	 2.232941	 -2.198288

	symmetry c1
}
set optking {
	frozen_dihedral = ("
		4 3 2 1
	")
}

ee = optimize('scf')
oeprop('DIPOLE', 'QUADRUPOLE', 'MULLIKEN_CHARGES')
f=open( 'psi4out.xyz', 'w' )
f.write( "15  " )
f.write( str(ee) + "\n" )
f.write( MOL.save_string_xyz() )
f.close()
--------------------------------------------------------------------------

    Molecular point group: c1
  Charge       = 0
  Multiplicity = 1
  Basis Set: 6-31G*
  Basis Set:
  @DF-RHF Final Energy:  -509.02235610566743
    Total Energy =                       -509.0223561056677681
    Molecular point group: c1
  Basis Set: 6-31G*
  Basis Set:
  Basis Set: 6-31G*
  Basis Set:
  @DF-RHF Final Energy:  -509.02314337641195
    Total Energy =                       -509.0231433764122357
  Basis Set: 6-31G*
  Basis Set:
  Basis Set: 6-31G*
  Basis Set:
  @DF-RHF Final Energy:  -509.00856738465626
    Total Energy =                       -509.0085673846563168
  Basis Set: 6-31G*
  Basis Set:
  Basis Set: 6-31G*
  Basis Set:
  @DF-RHF Final Energy:  -509.02294676855655
    Total Energy =                       -509.0229467685564941
  Basis Set: 6-31G*
  Basis Set:
  Basis Set: 6-31G*
  Basis Set:
  @DF-RHF Final Energy:  -509.02339805539413
    Total Energy =                       -509.0233980553941819
  Basis Set: 6-31G*
  Basis Set:
  Basis Set: 6-31G*
  Basis Set:
  @DF-RHF Final Energy:  -509.02340698613335
    Total Energy =                       -509.0234069861338639
  Basis Set: 6-31G*
  Basis Set:
  Charge       = 0
  Multiplicity = 1
  Basis Set: 6-31G*
  Basis Set:

    Orbital Energies (a.u.)
    -----------------------

    Doubly Occupied:

       1A    -20.603461     2A    -20.603317     3A    -20.601067
       4A    -15.858301     5A    -11.320905     6A    -11.309020
       7A    -11.269711     8A    -11.267918     9A    -11.266634
      10A    -11.265334    11A     -1.637000    12A     -1.420272
      13A     -1.418117    14A     -1.200694    15A     -1.094571
      16A     -1.046566    17A     -0.964096    18A     -0.867328
      19A     -0.833294    20A     -0.792168    21A     -0.736495
      22A     -0.734988    23A     -0.720373    24A     -0.710072
      25A     -0.680506    26A     -0.642378    27A     -0.624638
      28A     -0.567915    29A     -0.555744    30A     -0.528242
      31A     -0.511141    32A     -0.489885    33A     -0.484436
      34A     -0.453630    35A     -0.377309    36A     -0.358688

  @DF-RHF Final Energy:  -509.02340935849952

   => Energetics <=

    Nuclear Repulsion Energy =            502.7477187458692924
    One-Electron Energy =               -1691.9098332381865930
    Two-Electron Energy =                 680.1387051338181209
    DFT Exchange-Correlation Energy =       0.0000000000000000
    Empirical Dispersion Energy =           0.0000000000000000
    PCM Polarization Energy =               0.0000000000000000
    EFP Energy =                            0.0000000000000000
    Total Energy =                       -509.0234093584992934
    Molecular point group: c1
  Basis Set: 6-31G*
  Basis Set:

  -Total Gradient:
     Atom            X                  Y                   Z
    ------   -----------------  -----------------  -----------------
       1        0.000004981210    -0.000003482718     0.000163877158
       2        0.000011874944    -0.000076396129    -0.000179719982
       3        0.000042374297     0.000166427879    -0.000254673657
       4       -0.000223879119     0.000047290623     0.000143248847
       5        0.000178010558    -0.000162419809     0.000124342210
       6        0.000011267429     0.000001504041    -0.000018149680
       7        0.000130906764    -0.000158296428     0.000120548267
       8       -0.000003046204     0.000008953048    -0.000001376505
       9       -0.000168172077     0.000124292282     0.000135419349
      10       -0.000017380577     0.000017771156    -0.000004131575
      11        0.000035601837     0.000024582623    -0.000210554588
      12        0.000074617451     0.000023576838     0.000027187940
      13        0.000004799199    -0.000014801906     0.000027598058
      14       -0.000092254342     0.000048568663     0.000033074064
      15        0.000010298621    -0.000047570162    -0.000106689894

  **** Optimization is complete! (in 7 steps) ****
    Final optimized geometry and variables:
    Molecular point group: c1

    Geometry (in Angstrom), charge = 0, multiplicity = 1:

    H            1.965297098404    -2.836130376647     0.769555439240
    O            2.271633564952    -1.938447473688     0.765984176251
    C            1.218761654467    -1.070334555829     0.825903263022
    C            0.740323111705    -0.643858874985     2.055576790879
    C            0.667905747480    -0.582181231347    -0.343780074343
    H            1.195687459859    -1.025550126162     2.950731493201
    C           -0.299952665644     0.267733766694     2.119936244369
    H            1.043000255498    -0.896242867318    -1.296153212678
    C           -0.370261350386     0.327010316348    -0.250455069243
    H           -0.666324603240     0.595139190702     3.075063256829
    C           -0.870066252837     0.765152665663     0.960650938550
    N           -0.958427220795     0.842081660335    -1.483796401966
    H           -1.673790107285     1.471724272255     0.988885668335
    O           -0.522969326683     0.435449467612    -2.517722745699
    O           -1.842322167595     1.637923433458    -1.385203864267

  Mulliken Charges: (a.u.)
   Center  Symbol    Alpha    Beta     Spin     Total
       1     H     0.26747  0.26747  0.00000  0.46506
       2     O     4.38477  4.38477  0.00000 -0.76953
       3     C     2.82123  2.82123  0.00000  0.35753
       4     C     3.10308  3.10308  0.00000 -0.20615
       5     C     3.10805  3.10805  0.00000 -0.21611
       6     H     0.38374  0.38374  0.00000  0.23251
       7     C     3.10587  3.10587  0.00000 -0.21175
       8     H     0.35964  0.35964  0.00000  0.28072
       9     C     2.91819  2.91819  0.00000  0.16363
      10     H     0.38657  0.38657  0.00000  0.22687
      11     C     3.08998  3.08998  0.00000 -0.17995
      12     N     3.24074  3.24074  0.00000  0.51851
      13     H     0.36400  0.36400  0.00000  0.27200
      14     O     4.23303  4.23303  0.00000 -0.46607
      15     O     4.23363  4.23363  0.00000 -0.46726

   Total alpha = 36.00000, Total beta = 36.00000, Total charge = -0.00000
