  ==> Input File <==

--------------------------------------------------------------------------
set {
	reference rhf
	basis cc-pvtz
}

set_num_threads( 4 )
memory 2 gb

molecule MOL {
0 1

H	 1.114968	 0.135034	 -0.874954
C	 0.788096	 -0.429819	 0.000000
N	 -0.537714	 -0.645117	 0.000000
O	 1.555482	 -0.793123	 0.834175
C	 -1.522613	 0.412524	 0.000000
H	 -0.845894	 -1.585866	 0.000000
H	 -2.150256	 0.356137	 -0.880771
H	 -1.005621	 1.357208	 0.000000
H	 -2.150256	 0.356137	 0.880771

	symmetry c1
}
set optking {
	frozen_dihedral = ("
		1 2 3 6
	")
}

ee = optimize('scf')
oeprop('DIPOLE', 'QUADRUPOLE', 'MULLIKEN_CHARGES')
f=open( 'psi4out.xyz', 'w' )
f.write( "9  " )
f.write( str(ee) + "\n" )
f.write( MOL.save_string_xyz() )
f.close()
--------------------------------------------------------------------------

    Molecular point group: c1
  Charge       = 0
  Multiplicity = 1
  Basis Set: CC-PVTZ
  Basis Set:
  @DF-RHF Final Energy:  -208.01184024117254
    Total Energy =                       -208.0118402411725071
    Molecular point group: c1
  Basis Set: CC-PVTZ
  Basis Set:
  Basis Set: CC-PVTZ
  Basis Set:
  @DF-RHF Final Energy:  -208.01709681364920
    Total Energy =                       -208.0170968136494025
  Basis Set: CC-PVTZ
  Basis Set:
  Basis Set: CC-PVTZ
  Basis Set:
  @DF-RHF Final Energy:  -208.02169525694535
    Total Energy =                       -208.0216952569454634
  Basis Set: CC-PVTZ
  Basis Set:
  Basis Set: CC-PVTZ
  Basis Set:
  @DF-RHF Final Energy:  -208.02669482472891
    Total Energy =                       -208.0266948247288781
  Basis Set: CC-PVTZ
  Basis Set:
  @DF-RHF Final Energy:  -208.02729461388248
    Total Energy =                       -208.0272946138824182
  @DF-RHF Final Energy:  -208.02751755845182
    Total Energy =                       -208.0275175584519047
  @DF-RHF Final Energy:  -208.02780969020773
    Total Energy =                       -208.0278096902077039
  @DF-RHF Final Energy:  -208.02804458194282
    Total Energy =                       -208.0280445819427939
  @DF-RHF Final Energy:  -208.02811276463137
    Total Energy =                       -208.0281127646315440
  @DF-RHF Final Energy:  -208.02820206422953
    Total Energy =                       -208.0282020642295890
  Basis Set: CC-PVTZ
  Basis Set:
  @DF-RHF Final Energy:  -208.02829843448842
    Total Energy =                       -208.0282984344884767
  Basis Set: CC-PVTZ
  Basis Set:
  Basis Set: CC-PVTZ
  Basis Set:
  @DF-RHF Final Energy:  -208.02834492389076
    Total Energy =                       -208.0283449238909270
  Basis Set: CC-PVTZ
  Basis Set:
  Basis Set: CC-PVTZ
  Basis Set:
  @DF-RHF Final Energy:  -208.02835379192720
    Total Energy =                       -208.0283537919273158
  Basis Set: CC-PVTZ
  Basis Set:
  Charge       = 0
  Multiplicity = 1
  Basis Set: CC-PVTZ
  Basis Set:

    Orbital Energies (a.u.)
    -----------------------

    Doubly Occupied:

       1A    -20.538619     2A    -15.576678     3A    -11.345161
       4A    -11.266895     5A     -1.410711     6A     -1.237914
       7A     -0.953279     8A     -0.836843     9A     -0.702032
      10A     -0.679254    11A     -0.644400    12A     -0.585282
      13A     -0.565740    14A     -0.541098    15A     -0.441827
      16A     -0.405533

  @DF-RHF Final Energy:  -208.02835405930097

   => Energetics <=

    Nuclear Repulsion Energy =            120.4860748204619796
    One-Electron Energy =                -521.5663224038196404
    Two-Electron Energy =                 193.0518935240567089
    DFT Exchange-Correlation Energy =       0.0000000000000000
    Empirical Dispersion Energy =           0.0000000000000000
    PCM Polarization Energy =               0.0000000000000000
    EFP Energy =                            0.0000000000000000
    Total Energy =                       -208.0283540593009661
    Molecular point group: c1
  Basis Set: CC-PVTZ
  Basis Set:

  -Total Gradient:
     Atom            X                  Y                   Z
    ------   -----------------  -----------------  -----------------
       1       -0.002324981642    -0.008725806657    -0.007602276843
       2        0.001939356944     0.012318324712     0.007253472329
       3        0.005010871534    -0.006323442827     0.011415738225
       4       -0.000002811800     0.000015490123    -0.000004153174
       5        0.000037476390     0.000083611195     0.000125032856
       6       -0.004648887155     0.002619023751    -0.011185018098
       7       -0.000022329323     0.000022435572    -0.000011185211
       8        0.000004840104    -0.000015442477     0.000008284559
       9        0.000006464945     0.000005806607     0.000000105357

  **** Optimization is complete! (in 14 steps) ****
    Final optimized geometry and variables:
    Molecular point group: c1

    Geometry (in Angstrom), charge = 0, multiplicity = 1:

    H            0.777251089747     0.677480502857    -1.040899166014
    C            0.671666218329    -0.021676931912    -0.205612395571
    N           -0.609816780443    -0.119719766404     0.300238884858
    O            1.575036958797    -0.700872252782     0.137315151891
    C           -1.580490693028     0.847755699934    -0.185385201467
    H           -0.955813373694    -1.051612873124     0.226135661842
    H           -1.770861492280     0.775609052565    -1.253595215803
    H           -1.239678706785     1.849926423630     0.034830170633
    H           -2.513651758490     0.699398154560     0.338154614958

  Mulliken Charges: (a.u.)
   Center  Symbol    Alpha    Beta     Spin     Total
       1     H     0.47306  0.47306  0.00000  0.05387
       2     C     2.87471  2.87471  0.00000  0.25059
       3     N     3.60118  3.60118  0.00000 -0.20236
       4     O     4.18122  4.18122  0.00000 -0.36244
       5     C     3.08972  3.08972  0.00000 -0.17944
       6     H     0.42476  0.42476  0.00000  0.15048
       7     H     0.46146  0.46146  0.00000  0.07709
       8     H     0.44904  0.44904  0.00000  0.10193
       9     H     0.44485  0.44485  0.00000  0.11029

   Total alpha = 16.00000, Total beta = 16.00000, Total charge = -0.00000
