                              Psi4 1.0.54 Driver

  ==> Input File <==

--------------------------------------------------------------------------
set {
	reference rhf
	basis cc-pvtz
}

set_num_threads( 4 )
memory 2 gb

molecule MOL {
0 1

H	 -3.537645	 0.227676	 0.592740
O	 -3.098730	 -0.280646	 -0.065529
C	 -1.770861	 -0.098045	 -0.018427
C	 -1.174672	 0.748208	 0.908315
C	 -0.996815	 -0.789002	 -0.935823
H	 -1.781862	 1.280856	 1.616858
C	 0.191680	 0.899054	 0.912883
H	 -1.476501	 -1.436537	 -1.641952
C	 0.370091	 -0.626903	 -0.917992
H	 0.663756	 1.548929	 1.622754
C	 0.981121	 0.213562	 0.000000
H	 0.971577	 -1.162466	 -1.629262
C	 2.447402	 0.371303	 0.000000
O	 3.227427	 -0.521847	 0.000000
H	 2.796538	 1.409525	 0.000000

	symmetry c1
}
set optking {
	frozen_dihedral = ("
		7 11 13 14
	")
}

ee,wfn = optimize('scf', return_wfn=True)
oeprop( wfn, 'DIPOLE', 'QUADRUPOLE', 'MULLIKEN_CHARGES')
f=open( 'psi4out.xyz', 'w' )
f.write( "15  " )
f.write( str(ee) + "\n" )
f.write( MOL.save_string_xyz() )
f.close()
--------------------------------------------------------------------------

    Molecular point group: c1
  Charge       = 0
  Multiplicity = 1
  Basis Set: CC-PVTZ
  Basis Set:
  @DF-RHF Final Energy:  -418.43325947007861
    Total Energy =                       -418.4332594700786103
    Molecular point group: c1
  Basis Set: CC-PVTZ
  Basis Set:
  Basis Set: CC-PVTZ
  Basis Set:
  @DF-RHF Final Energy:  -418.43233522262091
    Total Energy =                       -418.4323352226208499
  Basis Set: CC-PVTZ
  Basis Set:
  Basis Set: CC-PVTZ
  Basis Set:
  @DF-RHF Final Energy:  -418.43405033940780
    Total Energy =                       -418.4340503394080315
  Basis Set: CC-PVTZ
  Basis Set:
  Basis Set: CC-PVTZ
  Basis Set:
  @DF-RHF Final Energy:  -418.43449959740252
    Total Energy =                       -418.4344995974024641
  Basis Set: CC-PVTZ
  Basis Set:
  Basis Set: CC-PVTZ
  Basis Set:
  @DF-RHF Final Energy:  -418.43452681207566
    Total Energy =                       -418.4345268120756600
  Basis Set: CC-PVTZ
  Basis Set:
  Charge       = 0
  Multiplicity = 1
  Basis Set: CC-PVTZ
  Basis Set:

    Orbital Energies (a.u.)
    -----------------------

    Doubly Occupied:

       1A    -20.600710     2A    -20.553476     3A    -11.326632
       4A    -11.317130     5A    -11.257535     6A    -11.251058
       7A    -11.241477     8A    -11.239314     9A    -11.234837
      10A     -1.433209    11A     -1.408611    12A     -1.173787
      13A     -1.044288    14A     -1.038971    15A     -0.894493
      16A     -0.861031    17A     -0.805931    18A     -0.759284
      19A     -0.702051    20A     -0.688918    21A     -0.648271
      22A     -0.631130    23A     -0.611410    24A     -0.609636
      25A     -0.592637    26A     -0.563092    27A     -0.543431
      28A     -0.507563    29A     -0.493518    30A     -0.423958
      31A     -0.359649    32A     -0.329965

  @DF-RHF Final Energy:  -418.43452907077545

   => Energetics <=

    Nuclear Repulsion Energy =            402.1359175629680180
    One-Electron Energy =               -1366.8468853613003375
    Two-Electron Energy =                 546.2764387275569788
    DFT Exchange-Correlation Energy =       0.0000000000000000
    Empirical Dispersion Energy =           0.0000000000000000
    PCM Polarization Energy =               0.0000000000000000
    EFP Energy =                            0.0000000000000000
    Total Energy =                       -418.4345290707753975
    Molecular point group: c1
  Basis Set: CC-PVTZ
  Basis Set:

  -Total Gradient:
     Atom            X                  Y                   Z
    ------   -----------------  -----------------  -----------------
       1        0.000006398309     0.000001358056    -0.000007564137
       2       -0.000025608522     0.000044960061     0.000024847908
       3        0.000066291150    -0.000297201681    -0.000223428228
       4        0.000246994523     0.000172257588     0.000084854694
       5       -0.000305879385     0.000089472050     0.000123117809
       6       -0.000023021882    -0.000008780840    -0.000010032166
       7       -0.000108029697    -0.005549379380     0.004329954499
       8        0.000028846255    -0.000005524029    -0.000011753156
       9        0.000257036149     0.000188123441     0.000124173150
      10        0.000007292427    -0.000004095727    -0.000019483592
      11       -0.000400444259     0.007689831361    -0.002491406562
      12       -0.000016000478    -0.000010230866    -0.000007973535
      13        0.000699982206    -0.001789249960    -0.010505091059
      14       -0.000431659668    -0.000534732216     0.008566525256
      15       -0.000002197129     0.000013192140     0.000023259119

  **** Optimization is complete! (in 6 steps) ****
    Final optimized geometry and variables:
    Molecular point group: c1

    Geometry (in Angstrom), charge = 0, multiplicity = 1:

    H           -3.531490764770     0.208303508186     0.651278441734
    O           -3.095472720253    -0.291359704129    -0.015416465740
    C           -1.768439554593    -0.082994114120     0.009240248119
    C           -1.169064437689     0.772039104877     0.916088054531
    C           -0.996822655124    -0.767812399716    -0.919407848971
    H           -1.764126308810     1.290203644274     1.645260568229
    C            0.199664965270     0.954181525975     0.878585417326
    H           -1.479255951991    -1.432268631562    -1.608214134271
    C            0.366192028701    -0.597653512028    -0.926429711074
    H            0.658272910201     1.624764400210     1.582063671765
    C            0.978146486354     0.287386442860    -0.047101512049
    H            0.970165831059    -1.151288043165    -1.618706271901
    C            2.458320327826     0.386460031751     0.029222967709
    O            3.188799402225    -0.544453274019     0.007197565248
    H            2.855641571927     1.394621148799     0.190814385575

  Mulliken Charges: (a.u.)
   Center  Symbol    Alpha    Beta     Spin     Total
       1     H     0.38620  0.38620  0.00000  0.22760
       2     O     4.16805  4.16805  0.00000 -0.33611
       3     C     2.85023  2.85023  0.00000  0.29955
       4     C     3.13103  3.13103  0.00000 -0.26206
       5     C     3.10024  3.10024  0.00000 -0.20048
       6     H     0.43221  0.43221  0.00000  0.13558
       7     C     3.07971  3.07971  0.00000 -0.15941
       8     H     0.41647  0.41647  0.00000  0.16706
       9     C     3.06804  3.06804  0.00000 -0.13607
      10     H     0.42229  0.42229  0.00000  0.15542
      11     C     2.97970  2.97970  0.00000  0.04059
      12     H     0.41413  0.41413  0.00000  0.17173
      13     C     2.92834  2.92834  0.00000  0.14333
      14     O     4.16537  4.16537  0.00000 -0.33074
      15     H     0.45800  0.45800  0.00000  0.08401

   Total alpha = 32.00000, Total beta = 32.00000, Total charge = -0.00000

*** Psi4 exiting successfully. Buy a developer a beer!
