  ==> Input File <==

--------------------------------------------------------------------------
set {
	reference rhf
	basis cc-pvtz
}

set_num_threads( 4 )
memory 2 gb

molecule MOL {
0 1

H	 1.140552	 -0.022511	 0.949381
C	 0.788096	 -0.429819	 0.000000
N	 -0.537714	 -0.645117	 0.000000
O	 1.531090	 -0.642921	 -0.905133
C	 -1.522613	 0.412524	 0.000000
H	 -0.845894	 -1.585866	 0.000000
H	 -2.150256	 0.356137	 -0.880771
H	 -1.005621	 1.357208	 0.000000
H	 -2.150256	 0.356137	 0.880771

	symmetry c1
}
set optking {
	frozen_dihedral = ("
		1 2 3 6
	")
}

ee = optimize('scf')
oeprop('DIPOLE', 'QUADRUPOLE', 'MULLIKEN_CHARGES')
f=open( 'psi4out.xyz', 'w' )
f.write( "9  " )
f.write( str(ee) + "\n" )
f.write( MOL.save_string_xyz() )
f.close()
--------------------------------------------------------------------------

    Molecular point group: c1
  Charge       = 0
  Multiplicity = 1
  Basis Set: CC-PVTZ
  Basis Set:
  @DF-RHF Final Energy:  -208.00556433379211
    Total Energy =                       -208.0055643337921083
    Molecular point group: c1
  Basis Set: CC-PVTZ
  Basis Set:
  Basis Set: CC-PVTZ
  Basis Set:
  @DF-RHF Final Energy:  -208.01083525421600
    Total Energy =                       -208.0108352542158912
  Basis Set: CC-PVTZ
  Basis Set:
  Basis Set: CC-PVTZ
  Basis Set:
  @DF-RHF Final Energy:  -208.01519477411136
    Total Energy =                       -208.0151947741113929
  Basis Set: CC-PVTZ
  Basis Set:
  Basis Set: CC-PVTZ
  Basis Set:
  @DF-RHF Final Energy:  -208.02118212096042
    Total Energy =                       -208.0211821209604466
  Basis Set: CC-PVTZ
  Basis Set:
  @DF-RHF Final Energy:  -208.02253869391649
    Total Energy =                       -208.0225386939163457
  @DF-RHF Final Energy:  -208.02301887512351
    Total Energy =                       -208.0230188751235687
  @DF-RHF Final Energy:  -208.02350825103096
    Total Energy =                       -208.0235082510308757
  @DF-RHF Final Energy:  -208.02379191838278
    Total Energy =                       -208.0237919183828410
  @DF-RHF Final Energy:  -208.02389162177548
    Total Energy =                       -208.0238916217754195
  @DF-RHF Final Energy:  -208.02396730681096
    Total Energy =                       -208.0239673068109028
  @DF-RHF Final Energy:  -208.02403502721594
    Total Energy =                       -208.0240350272158310
  @DF-RHF Final Energy:  -208.02420410957325
    Total Energy =                       -208.0242041095732759
  @DF-RHF Final Energy:  -207.99850872768735
    Total Energy =                       -207.9985087276873514
  @DF-RHF Final Energy:  -208.02317935361398
    Total Energy =                       -208.0231793536140117
  @DF-RHF Final Energy:  -208.02440710037050
    Total Energy =                       -208.0244071003706097
  @DF-RHF Final Energy:  -208.02450394717746
    Total Energy =                       -208.0245039471773225
  @DF-RHF Final Energy:  -208.02451226672750
    Total Energy =                       -208.0245122667274131
  @DF-RHF Final Energy:  -208.01787056091086
    Total Energy =                       -208.0178705609108363
  @DF-RHF Final Energy:  -208.02423516408788
    Total Energy =                       -208.0242351640878837
  @DF-RHF Final Energy:  -208.00760888515885
    Total Energy =                       -208.0076088851589020
  @DF-RHF Final Energy:  -208.02358691518265
    Total Energy =                       -208.0235869151825909
  @DF-RHF Final Energy:  -208.02448779075408
    Total Energy =                       -208.0244877907539376
  @DF-RHF Final Energy:  -208.02450817666585
    Total Energy =                       -208.0245081766659894
  @DF-RHF Final Energy:  -208.02451478674004
    Total Energy =                       -208.0245147867400703
  @DF-RHF Final Energy:  -208.02451449644866
    Total Energy =                       -208.0245144964486030
  @DF-RHF Final Energy:  -208.02110308586086
    Total Energy =                       -208.0211030858609149
  @DF-RHF Final Energy:  -208.01679549981529
    Total Energy =                       -208.0167954998152595
  Basis Set: CC-PVTZ
  Basis Set:
  @DF-RHF Final Energy:  -208.02440466801178
    Total Energy =                       -208.0244046680117265
  Basis Set: CC-PVTZ
  Basis Set:
  Basis Set: CC-PVTZ
  Basis Set:
  @DF-RHF Final Energy:  -208.02448989040346
    Total Energy =                       -208.0244898904034585
  Basis Set: CC-PVTZ
  Basis Set:
  Basis Set: CC-PVTZ
  Basis Set:
  @DF-RHF Final Energy:  -208.02451364783826
    Total Energy =                       -208.0245136478381767
  Basis Set: CC-PVTZ
  Basis Set:
  Charge       = 0
  Multiplicity = 1
  Basis Set: CC-PVTZ
  Basis Set:

    Orbital Energies (a.u.)
    -----------------------

    Doubly Occupied:

       1A    -20.543981     2A    -15.574617     3A    -11.346627
       4A    -11.265519     5A     -1.414578     6A     -1.236087
       7A     -0.950597     8A     -0.833684     9A     -0.705750
      10A     -0.677978    11A     -0.646476    12A     -0.583913
      13A     -0.564788    14A     -0.537629    15A     -0.444091
      16A     -0.407495

  @DF-RHF Final Energy:  -208.02451440453456

   => Energetics <=

    Nuclear Repulsion Energy =            120.3907873945667149
    One-Electron Energy =                -521.3629829500396227
    Two-Electron Energy =                 192.9476811509383936
    DFT Exchange-Correlation Energy =       0.0000000000000000
    Empirical Dispersion Energy =           0.0000000000000000
    PCM Polarization Energy =               0.0000000000000000
    EFP Energy =                            0.0000000000000000
    Total Energy =                       -208.0245144045345285
    Molecular point group: c1
  Basis Set: CC-PVTZ
  Basis Set:

  -Total Gradient:
     Atom            X                  Y                   Z
    ------   -----------------  -----------------  -----------------
       1       -0.001855229562    -0.009382604195     0.006065562181
       2        0.001398515099     0.012941107164    -0.005101349971
       3        0.005184030684    -0.006698419162    -0.011486317033
       4        0.000081893898     0.000228780396    -0.000119286936
       5       -0.000104817610     0.000230713064    -0.000075325245
       6       -0.004761758337     0.002649466540     0.010726702063
       7        0.000035841656     0.000030070093     0.000028278261
       8       -0.000042882331     0.000009907224    -0.000002997776
       9        0.000064406506    -0.000009021124    -0.000035265547

  **** Optimization is complete! (in 31 steps) ****
    Final optimized geometry and variables:
    Molecular point group: c1

    Geometry (in Angstrom), charge = 0, multiplicity = 1:

    H            0.730348628308     0.517328089595     1.166125006146
    C            0.660835207166    -0.052699571602     0.233395743470
    N           -0.617899702797    -0.132722330913    -0.307286724381
    O            1.595700560165    -0.631329556087    -0.192610746013
    C           -1.582395058364     0.822846284038     0.217874940443
    H           -0.969999835727    -1.062795579973    -0.223953229492
    H           -2.536472399499     0.654139020343    -0.259530870595
    H           -1.270019698549     1.829421875088    -0.024258008941
    H           -1.720612384373     0.755650382462     1.294836074307

  Mulliken Charges: (a.u.)
   Center  Symbol    Alpha    Beta     Spin     Total
       1     H     0.47444  0.47444  0.00000  0.05113
       2     C     2.87463  2.87463  0.00000  0.25074
       3     N     3.60149  3.60149  0.00000 -0.20298
       4     O     4.17339  4.17339  0.00000 -0.34677
       5     C     3.09057  3.09057  0.00000 -0.18114
       6     H     0.42812  0.42812  0.00000  0.14375
       7     H     0.44521  0.44521  0.00000  0.10959
       8     H     0.44839  0.44839  0.00000  0.10322
       9     H     0.46377  0.46377  0.00000  0.07246

   Total alpha = 16.00000, Total beta = 16.00000, Total charge = -0.00000
