  ==> Input File <==

--------------------------------------------------------------------------
set {
	reference rhf
	basis 6-31G*
}

set_num_threads( 4 )
memory 2 gb

molecule MOL {
0 1

H	 -2.985796	 2.148375	 -0.589998
C	 -3.102614	 1.116136	 -0.942785
C	 -2.062544	 0.659927	 -1.934117
O	 -3.999649	 0.446673	 -0.544166
C	 -0.630249	 0.899626	 -1.436795
H	 -2.237449	 -0.386369	 -2.156340
H	 -2.223204	 1.227203	 -2.850110
C	 -0.252658	 0.041456	 -0.226725
H	 0.056052	 0.694259	 -2.252944
H	 -0.503997	 1.953437	 -1.193277
C	 1.180775	 0.282413	 0.250794
H	 -0.378804	 -1.008694	 -0.481910
H	 -0.941204	 0.236434	 0.593291
C	 2.148627	 -0.814315	 -0.201312
H	 1.516199	 1.249228	 -0.115937
H	 1.192670	 0.346017	 1.338083
C	 3.580890	 -0.659131	 0.322722
H	 2.166869	 -0.852443	 -1.289387
H	 1.762857	 -1.776509	 0.128956
C	 4.324889	 0.564933	 -0.213704
H	 4.142010	 -1.551473	 0.056605
H	 3.564836	 -0.624694	 1.410140
H	 4.342616	 0.565491	 -1.300421
H	 3.866655	 1.493402	 0.110242
H	 5.353900	 0.572371	 0.132816

	symmetry c1
}
set optking {
	frozen_dihedral = ("
		12 8 11 14
	")
}

ee = optimize('scf')
oeprop('DIPOLE', 'QUADRUPOLE', 'MULLIKEN_CHARGES')
f=open( 'psi4out.xyz', 'w' )
f.write( "25  " )
f.write( str(ee) + "\n" )
f.write( MOL.save_string_xyz() )
f.close()
--------------------------------------------------------------------------

    Molecular point group: c1
  Charge       = 0
  Multiplicity = 1
  Basis Set: 6-31G*
  Basis Set:
  @DF-RHF Final Energy:  -387.11731137973015
    Total Energy =                       -387.1173113797300402
    Molecular point group: c1
  Basis Set: 6-31G*
  Basis Set:
  Basis Set: 6-31G*
  Basis Set:
  @DF-RHF Final Energy:  -387.11733896855782
    Total Energy =                       -387.1173389685575330
  Basis Set: 6-31G*
  Basis Set:
  Basis Set: 6-31G*
  Basis Set:
  @DF-RHF Final Energy:  -387.11756493187278
    Total Energy =                       -387.1175649318726073
  Basis Set: 6-31G*
  Basis Set:
  Basis Set: 6-31G*
  Basis Set:
  @DF-RHF Final Energy:  -387.11768654654895
    Total Energy =                       -387.1176865465489527
  Basis Set: 6-31G*
  Basis Set:
  @DF-RHF Final Energy:  -387.11763312982930
    Total Energy =                       -387.1176331298297555
  Basis Set: 6-31G*
  Basis Set:
  @DF-RHF Final Energy:  -387.11768200246848
    Total Energy =                       -387.1176820024684275
  Basis Set: 6-31G*
  Basis Set:
  Basis Set: 6-31G*
  Basis Set:
  @DF-RHF Final Energy:  -387.11768950473464
    Total Energy =                       -387.1176895047345852
  Basis Set: 6-31G*
  Basis Set:
  Basis Set: 6-31G*
  Basis Set:
  @DF-RHF Final Energy:  -387.11769225877777
    Total Energy =                       -387.1176922587781064
  Basis Set: 6-31G*
  Basis Set:
  Charge       = 0
  Multiplicity = 1
  Basis Set: 6-31G*
  Basis Set:

    Orbital Energies (a.u.)
    -----------------------

    Doubly Occupied:

       1A    -20.561923     2A    -11.326099     3A    -11.235308
       4A    -11.234444     5A    -11.223875     6A    -11.219790
       7A    -11.218898     8A    -11.218311     9A    -11.211720
      10A     -1.401861    11A     -1.103293    12A     -1.069477
      13A     -1.012272    14A     -0.942075    15A     -0.877289
      16A     -0.822256    17A     -0.788007    18A     -0.781779
      19A     -0.665581    20A     -0.651102    21A     -0.635362
      22A     -0.623084    23A     -0.608686    24A     -0.598846
      25A     -0.570088    26A     -0.556904    27A     -0.526987
      28A     -0.522249    29A     -0.521001    30A     -0.501423
      31A     -0.484999    32A     -0.478864    33A     -0.460597
      34A     -0.455802    35A     -0.444236    36A     -0.409314

  @DF-RHF Final Energy:  -387.11769296624658

   => Energetics <=

    Nuclear Repulsion Energy =            441.2868662305543808
    One-Electron Energy =               -1398.8815121078030188
    Two-Electron Energy =                 570.4769529110023996
    DFT Exchange-Correlation Energy =       0.0000000000000000
    Empirical Dispersion Energy =           0.0000000000000000
    PCM Polarization Energy =               0.0000000000000000
    EFP Energy =                            0.0000000000000000
    Total Energy =                       -387.1176929662462953
    Molecular point group: c1
  Basis Set: 6-31G*
  Basis Set:

  -Total Gradient:
     Atom            X                  Y                   Z
    ------   -----------------  -----------------  -----------------
       1        0.000003101800     0.000004442954     0.000003085513
       2       -0.000005453550     0.000023325648     0.000000089095
       3        0.000000396597    -0.000023175799    -0.000034661802
       4        0.000016288700    -0.000005028178    -0.000019113778
       5       -0.000061434547     0.000016244092     0.000045467241
       6       -0.000008375558    -0.000004774264    -0.000013913031
       7       -0.000035574060    -0.000005112267    -0.000000148377
       8       -0.001205982262    -0.001246519374     0.004113613674
       9       -0.000014266409    -0.000016632686     0.000021499576
      10        0.000021543820     0.000007137000     0.000002508097
      11        0.000809806922     0.001734058393    -0.003121725950
      12        0.000852123151     0.000667800694    -0.002799439848
      13       -0.000003608831     0.000007609559    -0.000020499352
      14       -0.000436859636    -0.001119475154     0.001805478881
      15       -0.000002155496    -0.000032887391     0.000001301453
      16        0.000021783406    -0.000007952037     0.000015099020
      17        0.000024420479     0.000002660539    -0.000025571920
      18       -0.000006990139     0.000002157932     0.000008756420
      19        0.000002497625     0.000012593190     0.000013511805
      20        0.000006347424    -0.000006247892     0.000010588616
      21        0.000027282057    -0.000006360529     0.000005696776
      22       -0.000012581679     0.000008117533    -0.000014592053
      23       -0.000007830931    -0.000001224982     0.000002332315
      24        0.000012244617    -0.000005038147     0.000003317709
      25        0.000003276505    -0.000005718832    -0.000002680080

  **** Optimization is complete! (in 9 steps) ****
    Final optimized geometry and variables:
    Molecular point group: c1

    Geometry (in Angstrom), charge = 0, multiplicity = 1:

    H           -3.172411237854     1.831128562165    -0.065863300620
    C           -3.245542732658     0.802774086056    -0.441321348721
    C           -2.155240214279     0.395163475475    -1.399419676440
    O           -4.140793491610     0.102829764656    -0.094207796492
    C           -0.751110505952     0.656948787394    -0.837534654339
    H           -2.295319788038    -0.649556212522    -1.652124241437
    H           -2.292687943103     0.979881240067    -2.308145040655
    C           -0.403404913659    -0.215871398232     0.374205264458
    H           -0.026219532977     0.483370651184    -1.627867170476
    H           -0.659449511267     1.707948574776    -0.569075320936
    C            1.043020932372    -0.007418080931     0.867010684293
    H           -0.545578845826    -1.255033469412     0.088065918641
    H           -1.106336122609    -0.016921679492     1.178215218406
    C            2.004943997114    -1.101050383655     0.390647215366
    H            1.394954668361     0.970119387833     0.550378227501
    H            1.058692669005     0.006872378228     1.954157077943
    C            3.452579374148    -0.931222678226     0.864839267927
    H            1.989672813136    -1.154585046997    -0.697522419992
    H            1.633653770924    -2.059521353704     0.745764311059
    C            4.181866513195     0.272906654247     0.265900132495
    H            4.004883750170    -1.832910724994     0.612105981437
    H            3.468793683243    -0.860858368007     1.950596703974
    H            4.173034736438     0.233380937009    -0.820127591245
    H            3.731855957431     1.213197619388     0.566600376697
    H            5.219037640779     0.292834516093     0.585921591367

  Mulliken Charges: (a.u.)
   Center  Symbol    Alpha    Beta     Spin     Total
       1     H     0.43261  0.43261  0.00000  0.13478
       2     C     2.83090  2.83090  0.00000  0.33821
       3     C     3.20861  3.20861  0.00000 -0.41721
       4     O     4.23776  4.23776  0.00000 -0.47551
       5     C     3.16816  3.16816  0.00000 -0.33633
       6     H     0.39975  0.39975  0.00000  0.20051
       7     H     0.40674  0.40674  0.00000  0.18653
       8     C     3.15766  3.15766  0.00000 -0.31532
       9     H     0.41265  0.41265  0.00000  0.17469
      10     H     0.41939  0.41939  0.00000  0.16121
      11     C     3.15809  3.15809  0.00000 -0.31618
      12     H     0.41618  0.41618  0.00000  0.16763
      13     H     0.41545  0.41545  0.00000  0.16910
      14     C     3.15424  3.15424  0.00000 -0.30848
      15     H     0.41954  0.41954  0.00000  0.16091
      16     H     0.41894  0.41894  0.00000  0.16213
      17     C     3.15331  3.15331  0.00000 -0.30662
      18     H     0.42513  0.42513  0.00000  0.14973
      19     H     0.41973  0.41973  0.00000  0.16053
      20     C     3.24115  3.24115  0.00000 -0.48230
      21     H     0.42005  0.42005  0.00000  0.15990
      22     H     0.42255  0.42255  0.00000  0.15491
      23     H     0.42248  0.42248  0.00000  0.15504
      24     H     0.42058  0.42058  0.00000  0.15884
      25     H     0.41834  0.41834  0.00000  0.16332

   Total alpha = 36.00000, Total beta = 36.00000, Total charge =  0.00000
