                              Psi4 1.0.54 Driver

  ==> Input File <==

--------------------------------------------------------------------------
set {
	reference rhf
	basis cc-pvtz
}

set_num_threads( 4 )
memory 2 gb

molecule MOL {
0 1

O	 1.768706	 0.382592	 0.957290
C	 1.121787	 0.124983	 0.000110
C	 -0.170912	 -0.649867	 -0.000147
O	 1.460715	 0.494771	 -1.224129
C	 -1.413045	 0.229353	 0.001137
H	 -0.152877	 -1.303435	 -0.866175
H	 -0.152278	 -1.305116	 0.864586
C	 -2.702562	 -0.586401	 0.000228
H	 -1.390744	 0.882001	 -0.864365
H	 -1.390549	 0.879837	 0.868264
C	 -3.953810	 0.284959	 -0.000782
H	 -2.717793	 -1.238567	 -0.869075
H	 -2.719108	 -1.238472	 0.869576
H	 -3.983727	 0.924403	 -0.876454
H	 -4.852989	 -0.320147	 -0.001515
H	 -3.985140	 0.924399	 0.874841
C	 2.657345	 1.232141	 -1.371378
H	 2.605414	 2.157875	 -0.817711
H	 2.754659	 1.434092	 -2.425709
H	 3.503591	 0.659521	 -1.021812

	symmetry c1
}
set optking {
	frozen_dihedral = ("
		1 2 3 6
	")
}

ee,wfn = optimize('scf', return_wfn=True)
oeprop( wfn, 'DIPOLE', 'QUADRUPOLE', 'MULLIKEN_CHARGES')
f=open( 'psi4out.xyz', 'w' )
f.write( "20  " )
f.write( str(ee) + "\n" )
f.write( MOL.save_string_xyz() )
f.close()
--------------------------------------------------------------------------

    Molecular point group: c1
  Charge       = 0
  Multiplicity = 1
  Basis Set: CC-PVTZ
  Basis Set:
  @DF-RHF Final Energy:  -384.08150484821346
    Total Energy =                       -384.0815048482135126
    Molecular point group: c1
  Basis Set: CC-PVTZ
  Basis Set:
  Basis Set: CC-PVTZ
  Basis Set:
  @DF-RHF Final Energy:  -384.08178205028730
    Total Energy =                       -384.0817820502874156
  Basis Set: CC-PVTZ
  Basis Set:
  Basis Set: CC-PVTZ
  Basis Set:
  @DF-RHF Final Energy:  -384.08207897236269
    Total Energy =                       -384.0820789723627513
  Basis Set: CC-PVTZ
  Basis Set:
  Basis Set: CC-PVTZ
  Basis Set:
  @DF-RHF Final Energy:  -384.08216583824259
    Total Energy =                       -384.0821658382428723
  Basis Set: CC-PVTZ
  Basis Set:
  Basis Set: CC-PVTZ
  Basis Set:
  @DF-RHF Final Energy:  -384.08216897900530
    Total Energy =                       -384.0821689790052460
  Basis Set: CC-PVTZ
  Basis Set:
  Charge       = 0
  Multiplicity = 1
  Basis Set: CC-PVTZ
  Basis Set:

    Orbital Energies (a.u.)
    -----------------------

    Doubly Occupied:

       1A    -20.597169     2A    -20.532257     3A    -11.363269
       4A    -11.278429     5A    -11.232166     6A    -11.227752
       7A    -11.222370     8A    -11.212543     9A     -1.471673
      10A     -1.364396    11A     -1.094129    12A     -1.026299
      13A     -0.968285    14A     -0.890787    15A     -0.807615
      16A     -0.775742    17A     -0.696338    18A     -0.683162
      19A     -0.676472    20A     -0.648973    21A     -0.599053
      22A     -0.593331    23A     -0.575765    24A     -0.554671
      25A     -0.535089    26A     -0.521160    27A     -0.512419
      28A     -0.485118    29A     -0.480796    30A     -0.476691
      31A     -0.457699    32A     -0.432612

  @DF-RHF Final Energy:  -384.08216958596211

   => Energetics <=

    Nuclear Repulsion Energy =            383.9274983185437122
    One-Electron Energy =               -1284.0308765805054918
    Two-Electron Energy =                 516.0212086759996737
    DFT Exchange-Correlation Energy =       0.0000000000000000
    Empirical Dispersion Energy =           0.0000000000000000
    PCM Polarization Energy =               0.0000000000000000
    EFP Energy =                            0.0000000000000000
    Total Energy =                       -384.0821695859621059
    Molecular point group: c1
  Basis Set: CC-PVTZ
  Basis Set:

  -Total Gradient:
     Atom            X                  Y                   Z
    ------   -----------------  -----------------  -----------------
       1       -0.000070562274     0.000054024863    -0.000053030739
       2        0.000065965057    -0.000108313770     0.000133597574
       3       -0.000005826425    -0.000000455429     0.000025186566
       4        0.000009444161     0.000047067171    -0.000083705956
       5       -0.000004771827     0.000004764731    -0.000001422656
       6       -0.000018300944     0.000043506328    -0.000032679505
       7       -0.000001200760    -0.000017349981     0.000012829061
       8        0.000005915238    -0.000012752807     0.000002307607
       9        0.000005221700     0.000004648731    -0.000003999166
      10        0.000000610370    -0.000003203471     0.000002376352
      11        0.000008815443     0.000009790424     0.000002577885
      12        0.000005254797    -0.000008448210    -0.000004015986
      13       -0.000000057030    -0.000004090178     0.000004430313
      14       -0.000002302763     0.000004468821    -0.000004511256
      15       -0.000000428878    -0.000004214481    -0.000000546257
      16       -0.000004483994     0.000005802942     0.000003792640
      17        0.000004732776    -0.000032161725    -0.000002557717
      18       -0.000010104659     0.000012606972     0.000008342720
      19       -0.000002890828     0.000004966931    -0.000009358669
      20        0.000014970840    -0.000000657861     0.000000387190

  **** Optimization is complete! (in 6 steps) ****
    Final optimized geometry and variables:
    Molecular point group: c1

    Geometry (in Angstrom), charge = 0, multiplicity = 1:

    O            1.891395782261     0.143948738426     1.170105603113
    C            1.247699309575    -0.116788590077     0.210898893848
    C           -0.031063128749    -0.911585428818     0.226238208851
    O            1.566497594025     0.289275116019    -1.007385859187
    C           -1.260347241988     0.003320013302     0.191010458212
    H           -0.042391026245    -1.575719412297    -0.628970789913
    H           -0.031238204471    -1.504618219046     1.129848140424
    C           -2.569112617662    -0.779623291970     0.232109583402
    H           -1.229066987689     0.611665425126    -0.706805765812
    H           -1.219119499865     0.684685231748     1.035261188365
    C           -3.798921521269     0.121319479748     0.203044763157
    H           -2.603405536684    -1.465220556410    -0.609950884975
    H           -2.591997047993    -1.393415718397     1.127961460204
    H           -3.820975311675     0.724465812421    -0.698350619451
    H           -4.711546138146    -0.462275699476     0.232929593323
    H           -3.809549372967     0.796164383045     1.052205151719
    C            2.727555793614     1.083687475292    -1.142819772989
    H            2.635160415736     1.994428767646    -0.569838439264
    H            2.811947385472     1.311301497679    -2.193084974124
    H            3.599916212686     0.543133570222    -0.806878877382

  Mulliken Charges: (a.u.)
   Center  Symbol    Alpha    Beta     Spin     Total
       1     O     4.20272  4.20272  0.00000 -0.40544
       2     C     2.80658  2.80658  0.00000  0.38683
       3     C     3.07645  3.07645  0.00000 -0.15289
       4     O     4.15050  4.15050  0.00000 -0.30101
       5     C     3.09882  3.09882  0.00000 -0.19764
       6     H     0.44506  0.44506  0.00000  0.10988
       7     H     0.43876  0.43876  0.00000  0.12248
       8     C     3.08857  3.08857  0.00000 -0.17714
       9     H     0.44634  0.44634  0.00000  0.10732
      10     H     0.44549  0.44549  0.00000  0.10902
      11     C     3.14931  3.14931  0.00000 -0.29863
      12     H     0.45349  0.45349  0.00000  0.09302
      13     H     0.45228  0.45228  0.00000  0.09544
      14     H     0.45445  0.45445  0.00000  0.09111
      15     H     0.44736  0.44736  0.00000  0.10527
      16     H     0.45352  0.45352  0.00000  0.09295
      17     C     3.03752  3.03752  0.00000 -0.07503
      18     H     0.45453  0.45453  0.00000  0.09094
      19     H     0.44553  0.44553  0.00000  0.10894
      20     H     0.45271  0.45271  0.00000  0.09458

   Total alpha = 32.00000, Total beta = 32.00000, Total charge = -0.00000

*** Psi4 exiting successfully. Buy a developer a beer!
