  ==> Input File <==

--------------------------------------------------------------------------
set {
	reference rhf
	basis 6-31G*
}

set_num_threads( 1 )
memory 2 gb

molecule MOL {
0 1

H	 2.568595	 2.259408	 -2.589527
N	 1.806403	 1.609583	 -2.607868
C	 1.221363	 1.462915	 -1.282824
H	 2.179278	 0.735088	 -2.925755
C	 0.001569	 0.548933	 -1.332765
H	 0.916828	 2.449157	 -0.946012
H	 1.928566	 1.083372	 -0.541063
C	 -0.679275	 0.379305	 0.025956
H	 -0.700309	 0.952958	 -2.056620
H	 0.304129	 -0.428040	 -1.708686
C	 -1.903357	 -0.536963	 -0.023547
H	 -0.979244	 1.355665	 0.403566
H	 0.035624	 -0.018269	 0.744775
C	 -3.225172	 0.228290	 0.028445
H	 -1.867824	 -1.134999	 -0.931459
H	 -1.860449	 -1.239604	 0.805977
H	 -3.313397	 0.915643	 -0.808262
H	 -4.073500	 -0.448134	 -0.008893
H	 -3.306061	 0.809945	 0.942516

	symmetry c1
}
set optking {
	frozen_dihedral = ("
		6 3 5 9,
		12 8 5 9,
		1 2 3 6
	")
}

ee = energy('scf')
oeprop('DIPOLE', 'QUADRUPOLE', 'MULLIKEN_CHARGES')
f=open( 'psi4out.xyz', 'w' )
f.write( "19  " )
f.write( str(ee) + "\n" )
f.write( MOL.save_string_xyz() )
f.close()
--------------------------------------------------------------------------

    Molecular point group: c1

    Geometry (in Angstrom), charge = 0, multiplicity = 1:

       Center              X                  Y                   Z               Mass
    ------------   -----------------  -----------------  -----------------  -----------------
           H          3.004333861415     1.629383915784    -1.702897278545     1.007825032070
           N          2.242141861415     0.979558915784    -1.721238278545    14.003074004780
           C          1.657101861415     0.832890915784    -0.396194278545    12.000000000000
           H          2.615016861415     0.105063915784    -2.039125278545     1.007825032070
           C          0.437307861415    -0.081091084216    -0.446135278545    12.000000000000
           H          1.352566861415     1.819132915784    -0.059382278545     1.007825032070
           H          2.364304861415     0.453347915784     0.345566721455     1.007825032070
           C         -0.243536138585    -0.250719084216     0.912585721455    12.000000000000
           H         -0.264570138585     0.322933915784    -1.169990278545     1.007825032070
           H          0.739867861415    -1.058064084216    -0.822056278545     1.007825032070
           C         -1.467618138585    -1.166987084216     0.863082721455    12.000000000000
           H         -0.543505138585     0.725640915784     1.290195721455     1.007825032070
           H          0.471362861415    -0.648293084216     1.631404721455     1.007825032070
           C         -2.789433138585    -0.401734084216     0.915074721455    12.000000000000
           H         -1.432085138585    -1.765023084216    -0.044829278545     1.007825032070
           H         -1.424710138585    -1.869628084216     1.692606721455     1.007825032070
           H         -2.877658138585     0.285618915784     0.078367721455     1.007825032070
           H         -3.637761138585    -1.078158084216     0.877736721455     1.007825032070
           H         -2.870322138585     0.179920915784     1.829145721455     1.007825032070

  Charge       = 0
  Multiplicity = 1
  Basis Set: 6-31G*
  Basis Set:

    Orbital Energies (a.u.)
    -----------------------

    Doubly Occupied:

       1A    -15.532374     2A    -11.239329     3A    -11.212408
       4A    -11.211236     5A    -11.209738     6A    -11.206868
       7A     -1.176485     8A     -1.073217     9A     -0.996426
      10A     -0.900932    11A     -0.816762    12A     -0.785563
      13A     -0.664274    14A     -0.636341    15A     -0.612094
      16A     -0.591904    17A     -0.582709    18A     -0.536076
      19A     -0.524590    20A     -0.503756    21A     -0.487228
      22A     -0.464560    23A     -0.452418    24A     -0.447629
      25A     -0.380892

  @DF-RHF Final Energy:  -251.34662742384080

   => Energetics <=

    Nuclear Repulsion Energy =            247.4866821126884702
    One-Electron Energy =                -829.1749439959951360
    Two-Electron Energy =                 330.3416344594656948
    DFT Exchange-Correlation Energy =       0.0000000000000000
    Empirical Dispersion Energy =           0.0000000000000000
    PCM Polarization Energy =               0.0000000000000000
    EFP Energy =                            0.0000000000000000
    Total Energy =                       -251.3466274238410278

  Mulliken Charges: (a.u.)
   Center  Symbol    Alpha    Beta     Spin     Total
       1     H     0.33252  0.33252  0.00000  0.33495
       2     N     3.92192  3.92192  0.00000 -0.84384
       3     C     3.06060  3.06060  0.00000 -0.12121
       4     H     0.33542  0.33542  0.00000  0.32916
       5     C     3.15336  3.15336  0.00000 -0.30672
       6     H     0.42083  0.42083  0.00000  0.15833
       7     H     0.43472  0.43472  0.00000  0.13055
       8     C     3.15855  3.15855  0.00000 -0.31709
       9     H     0.41304  0.41304  0.00000  0.17391
      10     H     0.42713  0.42713  0.00000  0.14575
      11     C     3.15378  3.15378  0.00000 -0.30756
      12     H     0.42122  0.42122  0.00000  0.15757
      13     H     0.42233  0.42233  0.00000  0.15535
      14     C     3.24028  3.24028  0.00000 -0.48056
      15     H     0.42018  0.42018  0.00000  0.15964
      16     H     0.42108  0.42108  0.00000  0.15783
      17     H     0.42075  0.42075  0.00000  0.15850
      18     H     0.42049  0.42049  0.00000  0.15902
      19     H     0.42178  0.42178  0.00000  0.15643

   Total alpha = 25.00000, Total beta = 25.00000, Total charge =  0.00000
