  ==> Input File <==

--------------------------------------------------------------------------
set {
	reference rhf
	basis 6-31G*
}

set_num_threads( 4 )
memory 2 gb

molecule MOL {
0 1

O	 -1.276010	 1.052711	 -0.768302
C	 -1.204840	 0.067374	 -0.106123
C	 -2.388195	 -0.672128	 0.458071
O	 -0.067104	 -0.527208	 0.221609
H	 -2.388023	 -1.694060	 0.097175
H	 -3.300579	 -0.174919	 0.164318
H	 -2.315377	 -0.706351	 1.539059
C	 1.170111	 0.034140	 -0.238951
C	 1.253628	 1.419982	 0.375911
C	 1.190366	 0.054927	 -1.759413
H	 1.973489	 -0.587102	 0.128676
H	 1.220061	 1.361483	 1.457899
H	 2.182093	 1.901610	 0.087259
H	 0.427724	 2.038421	 0.041144
H	 2.114585	 0.499846	 -2.114212
H	 1.124387	 -0.949423	 -2.158041
H	 0.360286	 0.640462	 -2.141676

	symmetry c1
}
set optking {
	frozen_dihedral = ("
		11 8 4 2
	")
}

ee = optimize('scf')
oeprop('DIPOLE', 'QUADRUPOLE', 'MULLIKEN_CHARGES')
f=open( 'psi4out.xyz', 'w' )
f.write( "17  " )
f.write( str(ee) + "\n" )
f.write( MOL.save_string_xyz() )
f.close()
--------------------------------------------------------------------------

    Molecular point group: c1
  Charge       = 0
  Multiplicity = 1
  Basis Set: 6-31G*
  Basis Set:
  @DF-RHF Final Energy:  -344.90165645927596
    Total Energy =                       -344.9016564592762961
    Molecular point group: c1
  Basis Set: 6-31G*
  Basis Set:
  Basis Set: 6-31G*
  Basis Set:
  @DF-RHF Final Energy:  -344.90914312258468
    Total Energy =                       -344.9091431225846236
  Basis Set: 6-31G*
  Basis Set:
  Basis Set: 6-31G*
  Basis Set:
  @DF-RHF Final Energy:  -344.90976161065237
    Total Energy =                       -344.9097616106521969
  Basis Set: 6-31G*
  Basis Set:
  Basis Set: 6-31G*
  Basis Set:
  @DF-RHF Final Energy:  -344.90997026256053
    Total Energy =                       -344.9099702625605914
  Basis Set: 6-31G*
  Basis Set:
  Basis Set: 6-31G*
  Basis Set:
  @DF-RHF Final Energy:  -344.91037999510650
    Total Energy =                       -344.9103799951060978
  Basis Set: 6-31G*
  Basis Set:
  Basis Set: 6-31G*
  Basis Set:
  @DF-RHF Final Energy:  -344.91041855964522
    Total Energy =                       -344.9104185596453931
  Basis Set: 6-31G*
  Basis Set:
  Charge       = 0
  Multiplicity = 1
  Basis Set: 6-31G*
  Basis Set:

    Orbital Energies (a.u.)
    -----------------------

    Doubly Occupied:

       1A    -20.597808     2A    -20.541963     3A    -11.374860
       4A    -11.293906     5A    -11.231118     6A    -11.213972
       7A    -11.213949     8A     -1.462740     9A     -1.361123
      10A     -1.075920    11A     -1.003201    12A     -0.945766
      13A     -0.866764    14A     -0.730931    15A     -0.695649
      16A     -0.669770    17A     -0.659243    18A     -0.614105
      19A     -0.586106    20A     -0.580335    21A     -0.569225
      22A     -0.552252    23A     -0.528899    24A     -0.519103
      25A     -0.496902    26A     -0.483641    27A     -0.445286
      28A     -0.428540

  @DF-RHF Final Energy:  -344.91041923440150

   => Energetics <=

    Nuclear Repulsion Energy =            327.0014012922143820
    One-Electron Energy =               -1118.3374851552314340
    Two-Electron Energy =                 446.4256646286156069
    DFT Exchange-Correlation Energy =       0.0000000000000000
    Empirical Dispersion Energy =           0.0000000000000000
    PCM Polarization Energy =               0.0000000000000000
    EFP Energy =                            0.0000000000000000
    Total Energy =                       -344.9104192344014450
    Molecular point group: c1
  Basis Set: 6-31G*
  Basis Set:

  -Total Gradient:
     Atom            X                  Y                   Z
    ------   -----------------  -----------------  -----------------
       1        0.000028887243     0.000007933775    -0.000004543221
       2        0.000009266225    -0.000036304197     0.000053345480
       3       -0.000024020849    -0.000010744589    -0.000034794005
       4       -0.000131945117     0.000006697018     0.000024622508
       5        0.000004131522     0.000002737606     0.000009834404
       6       -0.000008482027     0.000000456404     0.000004660791
       7       -0.000000901608     0.000009825645     0.000001637458
       8        0.000075197751     0.000048201607    -0.000044128881
       9       -0.000013273058    -0.000047079536    -0.000007337825
      10        0.000009185922    -0.000003468050     0.000014326637
      11        0.000050504658     0.000039793405    -0.000018002932
      12       -0.000000682002     0.000002463764     0.000011089648
      13       -0.000010839652    -0.000011637341    -0.000001227482
      14        0.000005775240    -0.000015980052    -0.000006937999
      15        0.000002089004     0.000004896808    -0.000013191040
      16       -0.000001028711     0.000001368462     0.000006326541
      17        0.000006135458     0.000000839270     0.000004319918

  **** Optimization is complete! (in 7 steps) ****
    Final optimized geometry and variables:
    Molecular point group: c1

    Geometry (in Angstrom), charge = 0, multiplicity = 1:

    O           -1.228574798168     0.819765554836    -0.473759808630
    C           -1.066843932454    -0.170005226329     0.165870025671
    C           -2.183545373574    -0.988267370085     0.759478526432
    O            0.110661882171    -0.701458403315     0.453422703735
    H           -2.136796527468    -2.002270350829     0.379645466341
    H           -3.133662995219    -0.541185003090     0.507665112982
    H           -2.069134673422    -1.036127300634     1.836278103831
    C            1.345358239302    -0.114915276936     0.006097059480
    C            1.575747672708     1.258124233196     0.622439857680
    C            1.466472051489    -0.138660375222    -1.511533221258
    H            2.072790024416    -0.801056073814     0.418021330567
    H            1.442739655008     1.214608013156     1.698333732202
    H            2.595747050103     1.572173618024     0.423454925299
    H            0.900625224836     1.997422619440     0.215596745032
    H            2.482160176629     0.121888495353    -1.792893538745
    H            1.259252078111    -1.134193988331    -1.889774794452
    H            0.788058687742     0.561485138356    -1.977843431473

  Mulliken Charges: (a.u.)
   Center  Symbol    Alpha    Beta     Spin     Total
       1     O     4.28718  4.28718  0.00000 -0.57436
       2     C     2.61474  2.61474  0.00000  0.77053
       3     C     3.28068  3.28068  0.00000 -0.56135
       4     O     4.32006  4.32006  0.00000 -0.64012
       5     H     0.40120  0.40120  0.00000  0.19760
       6     H     0.39787  0.39787  0.00000  0.20427
       7     H     0.40118  0.40118  0.00000  0.19765
       8     C     2.91420  2.91420  0.00000  0.17160
       9     C     3.25717  3.25717  0.00000 -0.51434
      10     C     3.25718  3.25718  0.00000 -0.51436
      11     H     0.40956  0.40956  0.00000  0.18088
      12     H     0.41465  0.41465  0.00000  0.17070
      13     H     0.41897  0.41897  0.00000  0.16206
      14     H     0.39589  0.39589  0.00000  0.20822
      15     H     0.41896  0.41896  0.00000  0.16208
      16     H     0.41465  0.41465  0.00000  0.17071
      17     H     0.39588  0.39588  0.00000  0.20823

   Total alpha = 28.00000, Total beta = 28.00000, Total charge =  0.00000
