  ==> Input File <==

--------------------------------------------------------------------------
set {
	reference rhf
	basis 6-31G*
}

set_num_threads( 4 )
memory 2 gb

molecule MOL {
0 1

O	 -0.682937	 1.318834	 -0.186099
C	 -0.860635	 0.152188	 -0.042321
C	 -2.173363	 -0.477127	 0.338347
O	 0.083258	 -0.765189	 -0.202595
H	 -2.477673	 -1.180929	 -0.427595
H	 -2.923125	 0.290956	 0.455536
H	 -2.058825	 -1.029004	 1.264191
C	 -0.263307	 -1.989660	 -0.845527
C	 -0.210155	 -1.859294	 -2.356429
H	 -1.241925	 -2.300615	 -0.512729
H	 0.471293	 -2.698757	 -0.491913
H	 -0.403792	 -2.824033	 -2.815247
H	 -0.956433	 -1.158879	 -2.709778
H	 0.769474	 -1.520590	 -2.675838

	symmetry c1
}
set optking {
	frozen_dihedral = ("
		8 4 2 1
	")
}

ee = optimize('scf')
oeprop('DIPOLE', 'QUADRUPOLE', 'MULLIKEN_CHARGES')
f=open( 'psi4out.xyz', 'w' )
f.write( "14  " )
f.write( str(ee) + "\n" )
f.write( MOL.save_string_xyz() )
f.close()
--------------------------------------------------------------------------

    Molecular point group: c1
  Charge       = 0
  Multiplicity = 1
  Basis Set: 6-31G*
  Basis Set:
  @DF-RHF Final Energy:  -305.84705817695476
    Total Energy =                       -305.8470581769547607
    Molecular point group: c1
  Basis Set: 6-31G*
  Basis Set:
  Basis Set: 6-31G*
  Basis Set:
  @DF-RHF Final Energy:  -305.85364471897441
    Total Energy =                       -305.8536447189743512
  Basis Set: 6-31G*
  Basis Set:
  Basis Set: 6-31G*
  Basis Set:
  @DF-RHF Final Energy:  -305.85697689781682
    Total Energy =                       -305.8569768978167644
  Basis Set: 6-31G*
  Basis Set:
  Basis Set: 6-31G*
  Basis Set:
  @DF-RHF Final Energy:  -305.85757978933680
    Total Energy =                       -305.8575797893370236
  Basis Set: 6-31G*
  Basis Set:
  @DF-RHF Final Energy:  -305.85762024571437
    Total Energy =                       -305.8576202457144291
  @DF-RHF Final Energy:  -305.85789111838875
    Total Energy =                       -305.8578911183883520
  @DF-RHF Final Energy:  -305.85792502606398
    Total Energy =                       -305.8579250260639810
  Basis Set: 6-31G*
  Basis Set:
  @DF-RHF Final Energy:  -305.85793216699233
    Total Energy =                       -305.8579321669922138
  Basis Set: 6-31G*
  Basis Set:
  Basis Set: 6-31G*
  Basis Set:
  @DF-RHF Final Energy:  -305.85793471890725
    Total Energy =                       -305.8579347189070745
  Basis Set: 6-31G*
  Basis Set:
  Basis Set: 6-31G*
  Basis Set:
  @DF-RHF Final Energy:  -305.85793587191415
    Total Energy =                       -305.8579358719140373
  Basis Set: 6-31G*
  Basis Set:
  Charge       = 0
  Multiplicity = 1
  Basis Set: 6-31G*
  Basis Set:

    Orbital Energies (a.u.)
    -----------------------

    Doubly Occupied:

       1A    -20.594230     2A    -20.545196     3A    -11.376845
       4A    -11.300052     5A    -11.241600     6A    -11.231176
       7A     -1.460426     8A     -1.366313     9A     -1.048163
      10A     -1.016271    11A     -0.896981    12A     -0.769206
      13A     -0.695060    14A     -0.686609    15A     -0.668052
      16A     -0.616229    17A     -0.596703    18A     -0.584665
      19A     -0.554224    20A     -0.544535    21A     -0.525120
      22A     -0.492899    23A     -0.449054    24A     -0.434578

  @DF-RHF Final Energy:  -305.85793609076109

   => Energetics <=

    Nuclear Repulsion Energy =            248.6302386949435004
    One-Electron Energy =                -909.5879782584081568
    Two-Electron Energy =                 355.0998034727037975
    DFT Exchange-Correlation Energy =       0.0000000000000000
    Empirical Dispersion Energy =           0.0000000000000000
    PCM Polarization Energy =               0.0000000000000000
    EFP Energy =                            0.0000000000000000
    Total Energy =                       -305.8579360907608589
    Molecular point group: c1
  Basis Set: 6-31G*
  Basis Set:

  -Total Gradient:
     Atom            X                  Y                   Z
    ------   -----------------  -----------------  -----------------
       1       -0.000641194673    -0.000238852801    -0.003127879075
       2        0.001309538995     0.000975100166     0.003160368008
       3        0.000013505801    -0.000001190048     0.000003669416
       4       -0.001430853810    -0.001866360732     0.002353483559
       5       -0.000000516313     0.000004713164     0.000006248760
       6       -0.000000444515     0.000002997216    -0.000000126559
       7       -0.000007585988     0.000002922015     0.000000837332
       8        0.000763116536     0.001131379333    -0.002420873991
       9       -0.000013364685    -0.000001316740     0.000040096859
      10        0.000005956646    -0.000003946576     0.000001578840
      11        0.000001375088    -0.000003911958    -0.000002025031
      12       -0.000002304204    -0.000001251599     0.000000236497
      13        0.000002728492    -0.000001840323    -0.000013952209
      14        0.000000042625     0.000001558880    -0.000001662407

  **** Optimization is complete! (in 11 steps) ****
    Final optimized geometry and variables:
    Molecular point group: c1

    Geometry (in Angstrom), charge = 0, multiplicity = 1:

    O            0.054433177556     1.888254474707     0.367011514815
    C           -0.200628945776     0.741542120439     0.503620265736
    C           -1.583907852235     0.248825101186     0.865725357507
    O            0.762675318150    -0.181037444122     0.375583307417
    H           -2.062768037860    -0.223698422288     0.014744013520
    H           -2.177428891321     1.098954906276     1.166452027329
    H           -1.539899838772    -0.474752999832     1.671331033700
    C            0.533526531434    -1.416985731407    -0.277369212896
    C            0.451860892713    -1.248015380218    -1.784722732504
    H           -0.354462609349    -1.898903981354     0.114188822804
    H            1.382107242885    -2.029218277397    -0.010316821807
    H            0.356576941191    -2.218145761871    -2.262375883351
    H           -0.403515354648    -0.645785654810    -2.074476062120
    H            1.346620447277    -0.763644144832    -2.156654067477

  Mulliken Charges: (a.u.)
   Center  Symbol    Alpha    Beta     Spin     Total
       1     O     4.25752  4.25752  0.00000 -0.51505
       2     C     2.61926  2.61926  0.00000  0.76147
       3     C     3.30554  3.30554  0.00000 -0.61109
       4     O     4.30618  4.30618  0.00000 -0.61236
       5     H     0.40352  0.40352  0.00000  0.19295
       6     H     0.38899  0.38899  0.00000  0.22203
       7     H     0.40213  0.40213  0.00000  0.19574
       8     C     3.00809  3.00809  0.00000 -0.01618
       9     C     3.25247  3.25247  0.00000 -0.50493
      10     H     0.41915  0.41915  0.00000  0.16170
      11     H     0.40304  0.40304  0.00000  0.19391
      12     H     0.41564  0.41564  0.00000  0.16873
      13     H     0.41613  0.41613  0.00000  0.16773
      14     H     0.40232  0.40232  0.00000  0.19535

   Total alpha = 24.00000, Total beta = 24.00000, Total charge = -0.00000
