  ==> Input File <==

--------------------------------------------------------------------------
set {
	reference rhf
	basis 6-31G*
}

set_num_threads( 1 )
memory 2 gb

molecule MOL {
0 1

O	 0.074228	 1.262779	 -0.000085
C	 0.028650	 0.075053	 -0.000277
C	 -1.233602	 -0.752807	 0.000328
O	 1.109162	 -0.694619	 -0.000298
C	 -2.501530	 0.091881	 0.000126
H	 -1.193807	 -1.406641	 -0.865785
H	 -1.193516	 -1.405779	 0.867015
H	 -2.545121	 0.729328	 -0.874513
H	 -3.377167	 -0.548497	 0.000561
H	 -2.544818	 0.730135	 0.874258
C	 0.944416	 -2.033487	 -0.431435
H	 0.240917	 -2.552924	 0.203141
H	 1.919856	 -2.488694	 -0.359565
H	 0.591387	 -2.063200	 -1.452199

	symmetry c1
}
set optking {
	frozen_dihedral = ("
		4 2 3 6
	")
}

ee = energy('scf')
oeprop('DIPOLE', 'QUADRUPOLE', 'MULLIKEN_CHARGES')
f=open( 'psi4out.xyz', 'w' )
f.write( "14  " )
f.write( str(ee) + "\n" )
f.write( MOL.save_string_xyz() )
f.close()
--------------------------------------------------------------------------

    Molecular point group: c1

    Geometry (in Angstrom), charge = 0, multiplicity = 1:

       Center              X                  Y                   Z               Mass
    ------------   -----------------  -----------------  -----------------  -----------------
           O          0.328420185625     1.619627707718     0.077151762217    15.994914619560
           C          0.282842185625     0.431901707718     0.076959762217    12.000000000000
           C         -0.979409814375    -0.395958292282     0.077564762217    12.000000000000
           O          1.363354185625    -0.337770292282     0.076938762217    15.994914619560
           C         -2.247337814375     0.448729707718     0.077362762217    12.000000000000
           H         -0.939614814375    -1.049792292282    -0.788548237783     1.007825032070
           H         -0.939323814375    -1.048930292282     0.944251762217     1.007825032070
           H         -2.290928814375     1.086176707718    -0.797276237783     1.007825032070
           H         -3.122974814375    -0.191648292282     0.077797762217     1.007825032070
           H         -2.290625814375     1.086983707718     0.951494762217     1.007825032070
           C          1.198608185625    -1.676638292282    -0.354198237783    12.000000000000
           H          0.495109185625    -2.196075292282     0.280377762217     1.007825032070
           H          2.174048185625    -2.131845292282    -0.282328237783     1.007825032070
           H          0.845579185625    -1.706351292282    -1.374962237783     1.007825032070

  Charge       = 0
  Multiplicity = 1
  Basis Set: 6-31G*
  Basis Set:

    Orbital Energies (a.u.)
    -----------------------

    Doubly Occupied:

       1A    -20.607029     2A    -20.545733     3A    -11.375505
       4A    -11.298439     5A    -11.245512     6A    -11.220613
       7A     -1.469122     8A     -1.370246     9A     -1.065994
      10A     -0.989732    11A     -0.907946    12A     -0.765722
      13A     -0.709358    14A     -0.697199    15A     -0.676889
      16A     -0.622639    17A     -0.608140    18A     -0.564472
      19A     -0.555295    20A     -0.524135    21A     -0.515849
      22A     -0.505255    23A     -0.452386    24A     -0.431893

  @DF-RHF Final Energy:  -305.84584881274839

   => Energetics <=

    Nuclear Repulsion Energy =            250.3412977546771572
    One-Electron Energy =                -912.9241196440891599
    Two-Electron Energy =                 356.7369730766630482
    DFT Exchange-Correlation Energy =       0.0000000000000000
    Empirical Dispersion Energy =           0.0000000000000000
    PCM Polarization Energy =               0.0000000000000000
    EFP Energy =                            0.0000000000000000
    Total Energy =                       -305.8458488127489545

  Mulliken Charges: (a.u.)
   Center  Symbol    Alpha    Beta     Spin     Total
       1     O     4.27104  4.27104  0.00000 -0.54209
       2     C     2.59404  2.59404  0.00000  0.81193
       3     C     3.24176  3.24176  0.00000 -0.48351
       4     O     4.29892  4.29892  0.00000 -0.59784
       5     C     3.23415  3.23415  0.00000 -0.46831
       6     H     0.40271  0.40271  0.00000  0.19458
       7     H     0.39874  0.39874  0.00000  0.20251
       8     H     0.40849  0.40849  0.00000  0.18301
       9     H     0.41923  0.41923  0.00000  0.16154
      10     H     0.40754  0.40754  0.00000  0.18492
      11     C     3.10378  3.10378  0.00000 -0.20756
      12     H     0.41316  0.41316  0.00000  0.17369
      13     H     0.39550  0.39550  0.00000  0.20901
      14     H     0.41094  0.41094  0.00000  0.17811

   Total alpha = 24.00000, Total beta = 24.00000, Total charge = -0.00000
