                              Psi4 1.0.54 Driver

  ==> Input File <==

--------------------------------------------------------------------------
set {
	reference rhf
	basis cc-pvtz
}

set_num_threads( 4 )
memory 2 gb

molecule MOL {
0 1

H	 -3.436473	 1.252944	 -1.023892
O	 -3.458596	 0.315260	 -0.960865
C	 -3.176635	 -0.080824	 0.355601
C	 -1.763371	 0.265266	 0.799691
H	 -3.321825	 -1.153438	 0.379502
H	 -3.895468	 0.357385	 1.043382
C	 -0.673390	 -0.426948	 -0.013392
H	 -1.631049	 1.344913	 0.747560
H	 -1.664587	 -0.001624	 1.849167
C	 0.737842	 -0.043159	 0.423759
H	 -0.806103	 -0.190518	 -1.063345
H	 -0.797221	 -1.503753	 0.074146
C	 1.457444	 -1.167881	 1.165528
H	 1.310172	 0.249500	 -0.451271
H	 0.691097	 0.834437	 1.065240
C	 2.845883	 -0.804730	 1.694877
H	 1.539163	 -2.033328	 0.511943
H	 0.840806	 -1.480216	 2.003874
C	 3.888677	 -0.528037	 0.614523
H	 3.199559	 -1.620726	 2.317645
H	 2.765545	 0.060557	 2.347751
H	 3.986515	 -1.374590	 -0.057677
H	 4.861284	 -0.344965	 1.056973
H	 3.634812	 0.339959	 0.018082

	symmetry c1
}
set optking {
	frozen_dihedral = ("
		13 10 7 11
	")
}

ee,wfn = optimize('scf', return_wfn=True)
oeprop( wfn, 'DIPOLE', 'QUADRUPOLE', 'MULLIKEN_CHARGES')
f=open( 'psi4out.xyz', 'w' )
f.write( "24  " )
f.write( str(ee) + "\n" )
f.write( MOL.save_string_xyz() )
f.close()
--------------------------------------------------------------------------

    Molecular point group: c1
  Charge       = 0
  Multiplicity = 1
  Basis Set: CC-PVTZ
  Basis Set:
  @DF-RHF Final Energy:  -349.37506359501936
    Total Energy =                       -349.3750635950189007
    Molecular point group: c1
  Basis Set: CC-PVTZ
  Basis Set:
  Basis Set: CC-PVTZ
  Basis Set:
  @DF-RHF Final Energy:  -349.37532613932012
    Total Energy =                       -349.3753261393201228
  Basis Set: CC-PVTZ
  Basis Set:
  Basis Set: CC-PVTZ
  Basis Set:
  @DF-RHF Final Energy:  -349.37539233159379
    Total Energy =                       -349.3753923315941847
  Basis Set: CC-PVTZ
  Basis Set:
  Basis Set: CC-PVTZ
  Basis Set:
  @DF-RHF Final Energy:  -349.37538412774546
    Total Energy =                       -349.3753841277457468
  Basis Set: CC-PVTZ
  Basis Set:
  Basis Set: CC-PVTZ
  Basis Set:
  @DF-RHF Final Energy:  -349.37539604270057
    Total Energy =                       -349.3753960427006859
  Basis Set: CC-PVTZ
  Basis Set:
  Charge       = 0
  Multiplicity = 1
  Basis Set: CC-PVTZ
  Basis Set:

    Orbital Energies (a.u.)
    -----------------------

    Doubly Occupied:

       1A    -20.546174     2A    -11.265338     3A    -11.215772
       4A    -11.212456     5A    -11.210911     6A    -11.209756
       7A    -11.208775     8A    -11.205366     9A     -1.364016
      10A     -1.088828    11A     -1.048783    12A     -0.985505
      13A     -0.916082    14A     -0.853059    15A     -0.803091
      16A     -0.776595    17A     -0.682313    18A     -0.648571
      19A     -0.626901    20A     -0.620651    21A     -0.595919
      22A     -0.583368    23A     -0.570763    24A     -0.533133
      25A     -0.523718    26A     -0.512008    27A     -0.491705
      28A     -0.483862    29A     -0.466533    30A     -0.460479
      31A     -0.457045    32A     -0.439425    33A     -0.423913

  @DF-RHF Final Energy:  -349.37539607934241

   => Energetics <=

    Nuclear Repulsion Energy =            385.4385471935213445
    One-Electron Energy =               -1237.5662595083344968
    Two-Electron Energy =                 502.7523162354707438
    DFT Exchange-Correlation Energy =       0.0000000000000000
    Empirical Dispersion Energy =           0.0000000000000000
    PCM Polarization Energy =               0.0000000000000000
    EFP Energy =                            0.0000000000000000
    Total Energy =                       -349.3753960793424085
    Molecular point group: c1
  Basis Set: CC-PVTZ
  Basis Set:

  -Total Gradient:
     Atom            X                  Y                   Z
    ------   -----------------  -----------------  -----------------
       1        0.000000258792    -0.000002094197     0.000003803070
       2        0.000015146638    -0.000015039558    -0.000018030908
       3       -0.000014082885     0.000038202080     0.000010894022
       4       -0.000000584762    -0.000031441259     0.000005176719
       5        0.000005482863     0.000004867313    -0.000001497946
       6       -0.000006781160    -0.000002155055     0.000006490395
       7       -0.000661361516     0.002456855597     0.000168629230
       8       -0.000002638285    -0.000010339600    -0.000004308803
       9        0.000004569389    -0.000004542617     0.000000687108
      10       -0.000663964674     0.000276476897     0.001887326080
      11        0.000718361323    -0.002142522679    -0.000599557277
      12       -0.000007122006     0.000004258046     0.000008689476
      13        0.000604398829    -0.000573000458    -0.001475010555
      14        0.000001888469    -0.000001692773     0.000002317859
      15        0.000002389022    -0.000004316356     0.000001317818
      16        0.000001046090     0.000003808284     0.000007203532
      17       -0.000000331834     0.000004563893    -0.000003418003
      18        0.000000150950     0.000001307310    -0.000002442148
      19       -0.000002077506    -0.000000380124    -0.000001395579
      20        0.000001221603     0.000000549680     0.000001806917
      21        0.000000671490     0.000000019019     0.000000065626
      22        0.000000909874    -0.000001328011    -0.000001445040
      23       -0.000000644922    -0.000000441805     0.000000621814
      24        0.000003094223    -0.000001613629     0.000002076593

  **** Optimization is complete! (in 6 steps) ****
    Final optimized geometry and variables:
    Molecular point group: c1

    Geometry (in Angstrom), charge = 0, multiplicity = 1:

    H           -3.412149585455     1.496684448372    -1.506549777187
    O           -3.420673892155     0.560483032841    -1.421991424515
    C           -3.105109168786     0.198139996897    -0.103492925701
    C           -1.689819185298     0.578375389808     0.303504888934
    H           -3.230429582241    -0.876096307665    -0.054083634877
    H           -3.817658190832     0.638350172315     0.589666901561
    C           -0.602593794755    -0.099853340911    -0.525954209205
    H           -1.579677920054     1.659504954573     0.236110702036
    H           -1.561241867076     0.326124764994     1.353699259199
    C            0.828557742440     0.258576575545    -0.079725110178
    H           -0.742863610878     0.139674757707    -1.572077994277
    H           -0.739008945890    -1.175993332894    -0.458197496788
    C            1.532721958137    -0.880349507148     0.658326429683
    H            1.415421791670     0.536820280228    -0.947067671135
    H            0.805663614693     1.137086319712     0.559762271845
    C            2.911529621524    -0.530636433792     1.219869789586
    H            1.623512499226    -1.732640291419    -0.010802924321
    H            0.900191064716    -1.208223345193     1.479653443208
    C            3.971782777325    -0.224939287092     0.164420957394
    H            3.255718885684    -1.362509880025     1.826891806473
    H            2.819485883089     0.317268712415     1.893729700949
    H            4.078515547451    -1.051548879780    -0.530828702069
    H            4.937603148600    -0.057528010584     0.627407382469
    H            3.729091421843     0.660708560395    -0.410158522945

  Mulliken Charges: (a.u.)
   Center  Symbol    Alpha    Beta     Spin     Total
       1     H     0.39521  0.39521  0.00000  0.20958
       2     O     4.20388  4.20388  0.00000 -0.40777
       3     C     2.97791  2.97791  0.00000  0.04419
       4     C     3.09940  3.09940  0.00000 -0.19880
       5     H     0.45860  0.45860  0.00000  0.08280
       6     H     0.46064  0.46064  0.00000  0.07872
       7     C     3.09671  3.09671  0.00000 -0.19342
       8     H     0.45794  0.45794  0.00000  0.08412
       9     H     0.45302  0.45302  0.00000  0.09396
      10     C     3.10319  3.10319  0.00000 -0.20639
      11     H     0.44004  0.44004  0.00000  0.11992
      12     H     0.45532  0.45532  0.00000  0.08937
      13     C     3.09270  3.09270  0.00000 -0.18540
      14     H     0.44461  0.44461  0.00000  0.11077
      15     H     0.45556  0.45556  0.00000  0.08887
      16     C     3.09055  3.09055  0.00000 -0.18110
      17     H     0.45274  0.45274  0.00000  0.09452
      18     H     0.45012  0.45012  0.00000  0.09975
      19     C     3.15267  3.15267  0.00000 -0.30535
      20     H     0.44896  0.44896  0.00000  0.10207
      21     H     0.45503  0.45503  0.00000  0.08995
      22     H     0.45472  0.45472  0.00000  0.09056
      23     H     0.44672  0.44672  0.00000  0.10656
      24     H     0.45374  0.45374  0.00000  0.09252

   Total alpha = 33.00000, Total beta = 33.00000, Total charge = -0.00000

*** Psi4 exiting successfully. Buy a developer a beer!
