                              Psi4 1.0.54 Driver

  ==> Input File <==

--------------------------------------------------------------------------
set {
	reference rhf
	basis cc-pvtz
}

set_num_threads( 4 )
memory 2 gb

molecule MOL {
0 1

O	 -2.081319	 -0.951530	 -0.502732
N	 -1.613558	 0.006676	 0.014756
C	 -0.329345	 -0.171618	 0.743966
O	 -2.068523	 1.100482	 -0.024385
C	 0.824797	 0.300916	 -0.131109
H	 -0.257239	 -1.222610	 0.968988
H	 -0.414154	 0.411983	 1.645325
C	 2.165403	 0.137230	 0.580333
H	 0.822792	 -0.267910	 -1.053601
H	 0.667103	 1.341607	 -0.389629
C	 3.337911	 0.610021	 -0.271825
H	 2.308513	 -0.906251	 0.845104
H	 2.149237	 0.693115	 1.513144
H	 3.399701	 0.048591	 -1.197393
H	 3.238023	 1.659307	 -0.526262
H	 4.275436	 0.484285	 0.255811

	symmetry c1
}
set optking {
	frozen_dihedral = ("
		5 3 2 1
	")
}

ee,wfn = optimize('scf', return_wfn=True)
oeprop( wfn, 'DIPOLE', 'QUADRUPOLE', 'MULLIKEN_CHARGES')
f=open( 'psi4out.xyz', 'w' )
f.write( "16  " )
f.write( str(ee) + "\n" )
f.write( MOL.save_string_xyz() )
f.close()
--------------------------------------------------------------------------

    Molecular point group: c1
  Charge       = 0
  Multiplicity = 1
  Basis Set: CC-PVTZ
  Basis Set:
  @DF-RHF Final Energy:  -360.90947148166975
    Total Energy =                       -360.9094714816700389
    Molecular point group: c1
  Basis Set: CC-PVTZ
  Basis Set:
  Basis Set: CC-PVTZ
  Basis Set:
  @DF-RHF Final Energy:  -360.90834789791813
    Total Energy =                       -360.9083478979181336
  Basis Set: CC-PVTZ
  Basis Set:
  Basis Set: CC-PVTZ
  Basis Set:
  @DF-RHF Final Energy:  -360.90943038739721
    Total Energy =                       -360.9094303873972649
  Basis Set: CC-PVTZ
  Basis Set:
  Basis Set: CC-PVTZ
  Basis Set:
  @DF-RHF Final Energy:  -360.90949146383554
    Total Energy =                       -360.9094914638357068
  Basis Set: CC-PVTZ
  Basis Set:
  Charge       = 0
  Multiplicity = 1
  Basis Set: CC-PVTZ
  Basis Set:

    Orbital Energies (a.u.)
    -----------------------

    Doubly Occupied:

       1A    -20.590750     2A    -20.588763     3A    -15.836303
       4A    -11.296317     5A    -11.250386     6A    -11.241800
       7A    -11.225847     8A     -1.635178     9A     -1.419542
      10A     -1.136507    11A     -1.060100    12A     -0.948771
      13A     -0.843418    14A     -0.828992    15A     -0.757862
      16A     -0.738301    17A     -0.728082    18A     -0.679169
      19A     -0.615627    20A     -0.607809    21A     -0.567733
      22A     -0.541911    23A     -0.517412    24A     -0.504133
      25A     -0.496642    26A     -0.486245    27A     -0.469887
      28A     -0.452306

  @DF-RHF Final Energy:  -360.90949187312731

   => Energetics <=

    Nuclear Repulsion Energy =            312.9636013659492164
    One-Electron Energy =               -1111.6145878889306005
    Two-Electron Energy =                 437.7414946498541894
    DFT Exchange-Correlation Energy =       0.0000000000000000
    Empirical Dispersion Energy =           0.0000000000000000
    PCM Polarization Energy =               0.0000000000000000
    EFP Energy =                            0.0000000000000000
    Total Energy =                       -360.9094918731271946
    Molecular point group: c1
  Basis Set: CC-PVTZ
  Basis Set:

  -Total Gradient:
     Atom            X                  Y                   Z
    ------   -----------------  -----------------  -----------------
       1       -0.000032878608    -0.000199058601     0.000210897476
       2        0.000155460398     0.000116766036    -0.000272725620
       3       -0.000064286610    -0.000284073904    -0.000003608260
       4       -0.000081838219     0.000289893669     0.000031397627
       5        0.000013715997     0.000109562020     0.000038058228
       6        0.000054471089    -0.000010192013     0.000005361776
       7       -0.000024677774    -0.000010439721     0.000004177176
       8       -0.000014537185    -0.000003731719     0.000004808121
       9        0.000000168347    -0.000020091740    -0.000019000991
      10       -0.000003527975    -0.000015083296    -0.000005154744
      11       -0.000003809672     0.000023038327     0.000003420882
      12       -0.000002046682     0.000000211046    -0.000016291312
      13       -0.000000189545    -0.000008210538     0.000018491039
      14       -0.000003094459    -0.000005540220     0.000004136739
      15        0.000005195794     0.000009755801    -0.000009143811
      16        0.000001875099     0.000007194853     0.000005175670

  **** Optimization is complete! (in 5 steps) ****
    Final optimized geometry and variables:
    Molecular point group: c1

    Geometry (in Angstrom), charge = 0, multiplicity = 1:

    O           -2.079509526716    -1.102216277289    -0.537030409839
    N           -1.607744784471    -0.144741436825    -0.022456675790
    C           -0.315884262977    -0.317660695269     0.695171873290
    O           -2.068060686377     0.947771693605    -0.049081679967
    C            0.831800685335     0.158310044239    -0.186003282260
    H           -0.240595833654    -1.366089832302     0.927754078301
    H           -0.396539218718     0.271481746372     1.594415184553
    C            2.177236766315    -0.009418684538     0.515378083074
    H            0.824491367173    -0.407801388592    -1.111084272247
    H            0.671756417544     1.198764430860    -0.440231798255
    C            3.344291801623     0.464334902852    -0.343772447876
    H            2.321419026021    -1.053518200864     0.776933886491
    H            2.168044564394     0.544433462696     1.449601094199
    H            3.398901880144    -0.094692362709    -1.271284582235
    H            3.243800490058     1.514386413612    -0.594729550230
    H            4.285416397223     0.336022998789     0.176808991044

  Mulliken Charges: (a.u.)
   Center  Symbol    Alpha    Beta     Spin     Total
       1     O     4.17217  4.17217  0.00000 -0.34434
       2     N     3.27581  3.27581  0.00000  0.44838
       3     C     3.04031  3.04031  0.00000 -0.08063
       4     O     4.17533  4.17533  0.00000 -0.35065
       5     C     3.10131  3.10131  0.00000 -0.20261
       6     H     0.43327  0.43327  0.00000  0.13345
       7     H     0.43470  0.43470  0.00000  0.13059
       8     C     3.09353  3.09353  0.00000 -0.18706
       9     H     0.43995  0.43995  0.00000  0.12009
      10     H     0.43585  0.43585  0.00000  0.12830
      11     C     3.14825  3.14825  0.00000 -0.29649
      12     H     0.45029  0.45029  0.00000  0.09942
      13     H     0.45055  0.45055  0.00000  0.09890
      14     H     0.45185  0.45185  0.00000  0.09630
      15     H     0.45162  0.45162  0.00000  0.09677
      16     H     0.44520  0.44520  0.00000  0.10959

   Total alpha = 28.00000, Total beta = 28.00000, Total charge =  0.00000

*** Psi4 exiting successfully. Buy a developer a beer!
