  ==> Input File <==

--------------------------------------------------------------------------
set {
	reference rhf
	basis 6-31G*
}

set_num_threads( 4 )
memory 2 gb

molecule MOL {
0 1

H	 3.028703	 0.613319	 1.509608
C	 2.326329	 0.025615	 0.925219
C	 0.994570	 0.759117	 0.800665
H	 2.181142	 -0.929153	 1.418273
H	 2.782965	 -0.164273	 -0.040161
N	 -0.000257	 -0.000071	 0.054619
H	 0.613076	 0.933487	 1.798881
H	 1.150013	 1.747434	 0.358223
C	 -1.363055	 0.315058	 0.462241
C	 0.187994	 0.099660	 -1.386655
C	 -2.412078	 -0.285320	 -0.468531
H	 -1.482241	 1.391144	 0.451970
H	 -1.549931	 -0.001174	 1.492681
C	 -0.316596	 -1.130108	 -2.135188
H	 1.247145	 0.202283	 -1.586206
H	 -0.284774	 1.002216	 -1.784990
H	 -2.262839	 0.075384	 -1.480151
H	 -2.369300	 -1.368867	 -0.491760
H	 -3.410332	 -0.003975	 -0.144961
H	 0.195527	 -2.017893	 -1.781348
H	 -1.381824	 -1.284702	 -2.001243
H	 -0.132387	 -1.026382	 -3.200849

	symmetry c1
}
set optking {
	frozen_dihedral = ("
		3 6 9 11
	")
}

ee = optimize('scf')
oeprop('DIPOLE', 'QUADRUPOLE', 'MULLIKEN_CHARGES')
f=open( 'psi4out.xyz', 'w' )
f.write( "22  " )
f.write( str(ee) + "\n" )
f.write( MOL.save_string_xyz() )
f.close()
--------------------------------------------------------------------------

    Molecular point group: c1
  Charge       = 0
  Multiplicity = 1
  Basis Set: 6-31G*
  Basis Set:
  @DF-RHF Final Energy:  -290.35021532356456
    Total Energy =                       -290.3502153235638730
    Molecular point group: c1
  Basis Set: 6-31G*
  Basis Set:
  Basis Set: 6-31G*
  Basis Set:
  @DF-RHF Final Energy:  -290.36343019613912
    Total Energy =                       -290.3634301961395749
  Basis Set: 6-31G*
  Basis Set:
  Basis Set: 6-31G*
  Basis Set:
  @DF-RHF Final Energy:  -290.36613119019842
    Total Energy =                       -290.3661311901985300
  Basis Set: 6-31G*
  Basis Set:
  Basis Set: 6-31G*
  Basis Set:
  @DF-RHF Final Energy:  -290.36672181441321
    Total Energy =                       -290.3667218144130402
  Basis Set: 6-31G*
  Basis Set:
  @DF-RHF Final Energy:  -290.36685719147687
    Total Energy =                       -290.3668571914768677
  @DF-RHF Final Energy:  -290.36705107234621
    Total Energy =                       -290.3670510723464986
  Basis Set: 6-31G*
  Basis Set:
  @DF-RHF Final Energy:  -290.36706351431855
    Total Energy =                       -290.3670635143184882
  Basis Set: 6-31G*
  Basis Set:
  Basis Set: 6-31G*
  Basis Set:
  @DF-RHF Final Energy:  -290.36709790479733
    Total Energy =                       -290.3670979047973901
  Basis Set: 6-31G*
  Basis Set:
  Basis Set: 6-31G*
  Basis Set:
  @DF-RHF Final Energy:  -290.36710448715314
    Total Energy =                       -290.3671044871533127
  Basis Set: 6-31G*
  Basis Set:
  Charge       = 0
  Multiplicity = 1
  Basis Set: 6-31G*
  Basis Set:

    Orbital Energies (a.u.)
    -----------------------

    Doubly Occupied:

       1A    -15.537912     2A    -11.241784     3A    -11.240094
       4A    -11.238826     5A    -11.209939     6A    -11.205358
       7A    -11.201844     8A     -1.221552     9A     -1.026910
      10A     -1.017981    11A     -0.959905    12A     -0.856687
      13A     -0.830539    14A     -0.773342    15A     -0.660592
      16A     -0.638610    17A     -0.616056    18A     -0.595273
      19A     -0.569699    20A     -0.555735    21A     -0.539827
      22A     -0.532086    23A     -0.512863    24A     -0.498956
      25A     -0.484750    26A     -0.480107    27A     -0.465354
      28A     -0.461570    29A     -0.341596

  @DF-RHF Final Energy:  -290.36710484549633

   => Energetics <=

    Nuclear Repulsion Energy =            338.7769671499935384
    One-Electron Energy =               -1063.2566551813897604
    Two-Electron Energy =                 434.1125831858996662
    DFT Exchange-Correlation Energy =       0.0000000000000000
    Empirical Dispersion Energy =           0.0000000000000000
    PCM Polarization Energy =               0.0000000000000000
    EFP Energy =                            0.0000000000000000
    Total Energy =                       -290.3671048454965558
    Molecular point group: c1
  Basis Set: 6-31G*
  Basis Set:

  -Total Gradient:
     Atom            X                  Y                   Z
    ------   -----------------  -----------------  -----------------
       1        0.000002985969    -0.000004375058     0.000002279424
       2        0.000011656460    -0.000011083154     0.000016784074
       3       -0.000023965366     0.003862650866    -0.003758287830
       4        0.000006910755    -0.000001954707    -0.000002633472
       5       -0.000002545246     0.000000451746     0.000010334909
       6        0.000197074391    -0.003113585051     0.003585226212
       7       -0.000028597908    -0.000016668328    -0.000009129337
       8       -0.000005178240     0.000014733864     0.000004886450
       9       -0.000529764067    -0.005177647082     0.003249180374
      10        0.000046634347     0.000015906769    -0.000054985597
      11        0.000329752026     0.004421358229    -0.003043399923
      12       -0.000007297619     0.000020762710     0.000005430724
      13        0.000008219108    -0.000003798099    -0.000015461841
      14       -0.000018098751     0.000010700333     0.000005142938
      15       -0.000007068920     0.000008232064    -0.000020354569
      16        0.000028299458    -0.000019878765     0.000000153451
      17       -0.000014353886    -0.000018768110     0.000026336870
      18        0.000003676059    -0.000007181909    -0.000007282556
      19       -0.000001616144     0.000005020269    -0.000010679188
      20       -0.000004074038     0.000005420739     0.000003821693
      21        0.000016179728     0.000005719449     0.000001936430
      22       -0.000008828114     0.000003983224     0.000010700766

  **** Optimization is complete! (in 10 steps) ****
    Final optimized geometry and variables:
    Molecular point group: c1

    Geometry (in Angstrom), charge = 0, multiplicity = 1:

    H            3.087052380631     0.578584326895     1.712746947270
    C            2.384754443210     0.017688534338     1.102649134564
    C            1.038868902396     0.734133280902     1.053754353716
    H            2.264896019096    -0.969321978761     1.535313493041
    H            2.828800142886    -0.100557779969     0.120180164129
    N            0.028228487813     0.001151521992     0.299152189305
    H            0.681318149230     0.837034372334     2.072800772408
    H            1.162990284198     1.750178864290     0.668519392268
    C           -1.302225876011     0.413642805789     0.743687537276
    C            0.255838802929     0.119196968991    -1.143122455280
    C           -2.477514321483    -0.074640449115    -0.096963453652
    H           -1.364491370722     1.506703011034     0.788131107258
    H           -1.429376019324     0.056608656624     1.760251989084
    C            0.076967568999    -1.197250116000    -1.893948951972
    H            1.273871985449     0.450973739354    -1.302664652544
    H           -0.371233979014     0.895443385942    -1.581276178382
    H           -2.456549716934     0.308739620759    -1.109242185663
    H           -2.513170192478    -1.157632259634    -0.140540125472
    H           -3.399928292915     0.269230193476     0.360941621605
    H            0.743484201831    -1.949285955143    -1.485851949002
    H           -0.933734402143    -1.578191889034    -1.822940954385
    H            0.311408204401    -1.066568363723    -2.947365574263

  Mulliken Charges: (a.u.)
   Center  Symbol    Alpha    Beta     Spin     Total
       1     H     0.42285  0.42285  0.00000  0.15431
       2     C     3.23696  3.23696  0.00000 -0.47391
       3     C     3.06013  3.06013  0.00000 -0.12026
       4     H     0.41450  0.41450  0.00000  0.17099
       5     H     0.42111  0.42111  0.00000  0.15778
       6     N     3.78318  3.78318  0.00000 -0.56636
       7     H     0.41956  0.41956  0.00000  0.16088
       8     H     0.43257  0.43257  0.00000  0.13486
       9     C     3.04933  3.04933  0.00000 -0.09867
      10     C     3.06596  3.06596  0.00000 -0.13192
      11     C     3.25041  3.25041  0.00000 -0.50081
      12     H     0.43619  0.43619  0.00000  0.12761
      13     H     0.41776  0.41776  0.00000  0.16448
      14     C     3.23192  3.23192  0.00000 -0.46383
      15     H     0.41842  0.41842  0.00000  0.16317
      16     H     0.42735  0.42735  0.00000  0.14530
      17     H     0.41760  0.41760  0.00000  0.16480
      18     H     0.41450  0.41450  0.00000  0.17100
      19     H     0.41792  0.41792  0.00000  0.16416
      20     H     0.41680  0.41680  0.00000  0.16640
      21     H     0.41841  0.41841  0.00000  0.16317
      22     H     0.42658  0.42658  0.00000  0.14685

   Total alpha = 29.00000, Total beta = 29.00000, Total charge = -0.00000
