  ==> Input File <==

--------------------------------------------------------------------------
set {
	reference rhf
	basis 6-31G*
}

set_num_threads( 4 )
memory 2 gb

molecule MOL {
0 1

H	 -1.645818	 -1.674181	 -1.231888
N	 -0.944646	 -0.961097	 -1.289754
C	 -0.563778	 -0.502042	 0.037919
H	 -1.339700	 -0.208913	 -1.821645
C	 0.575259	 0.508231	 -0.048326
H	 -0.232059	 -1.367177	 0.604223
H	 -1.394615	 -0.062685	 0.595969
C	 1.954651	 -0.143624	 0.035137
H	 0.475158	 1.060484	 -0.977307
H	 0.469181	 1.234488	 0.755973
H	 2.103292	 -0.853109	 -0.774172
H	 2.742821	 0.599562	 -0.030094
H	 2.083613	 -0.679371	 0.971560

	symmetry c1
}
set optking {
	frozen_dihedral = ("
		6 3 5 9
	")
}

ee = optimize('scf')
oeprop('DIPOLE', 'QUADRUPOLE', 'MULLIKEN_CHARGES')
f=open( 'psi4out.xyz', 'w' )
f.write( "13  " )
f.write( str(ee) + "\n" )
f.write( MOL.save_string_xyz() )
f.close()
--------------------------------------------------------------------------

    Molecular point group: c1
  Charge       = 0
  Multiplicity = 1
  Basis Set: 6-31G*
  Basis Set:
  @DF-RHF Final Energy:  -173.27891736269547
    Total Energy =                       -173.2789173626954664
    Molecular point group: c1
  Basis Set: 6-31G*
  Basis Set:
  Basis Set: 6-31G*
  Basis Set:
  @DF-RHF Final Energy:  -173.27948224035131
    Total Energy =                       -173.2794822403512853
  Basis Set: 6-31G*
  Basis Set:
  Basis Set: 6-31G*
  Basis Set:
  @DF-RHF Final Energy:  -173.27959445683123
    Total Energy =                       -173.2795944568311484
  Basis Set: 6-31G*
  Basis Set:
  Basis Set: 6-31G*
  Basis Set:
  @DF-RHF Final Energy:  -173.27959852661925
    Total Energy =                       -173.2795985266192247
  Basis Set: 6-31G*
  Basis Set:
  Charge       = 0
  Multiplicity = 1
  Basis Set: 6-31G*
  Basis Set:

    Orbital Energies (a.u.)
    -----------------------

    Doubly Occupied:

       1A    -15.533293     2A    -11.240467     3A    -11.211785
       4A    -11.201227     5A     -1.176565     6A     -1.029062
       7A     -0.897660     8A     -0.796130     9A     -0.659501
      10A     -0.634112    11A     -0.597432    12A     -0.558548
      13A     -0.528767    14A     -0.486527    15A     -0.475400
      16A     -0.468303    17A     -0.380615

  @DF-RHF Final Energy:  -173.27959878873307

   => Energetics <=

    Nuclear Repulsion Energy =            133.1152016959211153
    One-Electron Energy =                -497.0388143871819580
    Two-Electron Energy =                 190.6440139025277745
    DFT Exchange-Correlation Energy =       0.0000000000000000
    Empirical Dispersion Energy =           0.0000000000000000
    PCM Polarization Energy =               0.0000000000000000
    EFP Energy =                            0.0000000000000000
    Total Energy =                       -173.2795987887330398
    Molecular point group: c1
  Basis Set: 6-31G*
  Basis Set:

  -Total Gradient:
     Atom            X                  Y                   Z
    ------   -----------------  -----------------  -----------------
       1        0.000005917587     0.000007561626    -0.000002417224
       2       -0.000023268406     0.000022928572     0.000014804899
       3       -0.001311635698     0.001727503233     0.004406643167
       4        0.000000545024    -0.000007183629    -0.000003944861
       5       -0.002919425477     0.003438115432     0.001702201625
       6        0.001555102825    -0.001998038442    -0.003951130075
       7        0.000003085809    -0.000003135289    -0.000012835417
       8        0.000014437193    -0.000004632156    -0.000015177772
       9        0.002684150239    -0.003192576070    -0.002132782749
      10       -0.000013165660     0.000002893387    -0.000002202689
      11       -0.000000386760    -0.000004277393    -0.000001842371
      12        0.000013734463    -0.000000342233     0.000006555098
      13       -0.000009091140     0.000011182959    -0.000007871630

  **** Optimization is complete! (in 5 steps) ****
    Final optimized geometry and variables:
    Molecular point group: c1

    Geometry (in Angstrom), charge = 0, multiplicity = 1:

    H           -1.794317644509    -1.429969331920    -0.925253489396
    N           -1.132378405427    -0.678876442630    -0.961351513320
    C           -0.817869632222    -0.198299409504     0.380099236999
    H           -1.549700429328     0.050296605825    -1.507971536858
    C            0.335738394782     0.810481614984     0.320011539592
    H           -0.505939362251    -1.070355565776     0.945912920296
    H           -1.678456317308     0.237691110921     0.889064343820
    C            1.706925405143     0.133231921832     0.340395380286
    H            0.256927883506     1.370743877226    -0.608296503196
    H            0.259645417534     1.518908607545     1.139951346307
    H            1.781171649272    -0.593869061978    -0.461011070498
    H            2.506156409965     0.857572740652     0.214601285343
    H            1.874760266796    -0.383990211979     1.281228806983

  Mulliken Charges: (a.u.)
   Center  Symbol    Alpha    Beta     Spin     Total
       1     H     0.33259  0.33259  0.00000  0.33481
       2     N     3.92199  3.92199  0.00000 -0.84397
       3     C     3.06672  3.06672  0.00000 -0.13343
       4     H     0.33518  0.33518  0.00000  0.32964
       5     C     3.14951  3.14951  0.00000 -0.29902
       6     H     0.41959  0.41959  0.00000  0.16083
       7     H     0.43081  0.43081  0.00000  0.13839
       8     C     3.24221  3.24221  0.00000 -0.48442
       9     H     0.42213  0.42213  0.00000  0.15574
      10     H     0.42307  0.42307  0.00000  0.15386
      11     H     0.40936  0.40936  0.00000  0.18128
      12     H     0.42203  0.42203  0.00000  0.15593
      13     H     0.42482  0.42482  0.00000  0.15036

   Total alpha = 17.00000, Total beta = 17.00000, Total charge =  0.00000
