  ==> Input File <==

--------------------------------------------------------------------------
set {
	reference rhf
	basis 6-31G*
}

set_num_threads( 4 )
memory 2 gb

molecule MOL {
0 1

H	 2.652209	 0.763231	 0.000000
O	 2.263154	 -0.100023	 0.000000
C	 0.912879	 -0.015685	 0.000000
C	 0.274580	 0.024183	 1.232707
C	 0.171095	 0.030647	 -1.169057
H	 0.868328	 -0.012902	 2.127076
C	 -1.103083	 0.110232	 1.284191
H	 0.666965	 -0.000325	 -2.124920
C	 -1.211887	 0.117028	 -1.102610
H	 -1.592687	 0.140813	 2.241290
C	 -1.857763	 0.157369	 0.119223
H	 -1.780360	 0.152535	 -2.014898
H	 -2.929203	 0.224291	 0.167206

	symmetry c1
}
set optking {
	frozen_dihedral = ("
		4 3 2 1
	")
}

ee = optimize('scf')
oeprop('DIPOLE', 'QUADRUPOLE', 'MULLIKEN_CHARGES')
f=open( 'psi4out.xyz', 'w' )
f.write( "13  " )
f.write( str(ee) + "\n" )
f.write( MOL.save_string_xyz() )
f.close()
--------------------------------------------------------------------------

    Molecular point group: c1
  Charge       = 0
  Multiplicity = 1
  Basis Set: 6-31G*
  Basis Set:
  @DF-RHF Final Energy:  -305.55250763711842
    Total Energy =                       -305.5525076371185946
    Molecular point group: c1
  Basis Set: 6-31G*
  Basis Set:
  Basis Set: 6-31G*
  Basis Set:
  @DF-RHF Final Energy:  -305.55335715156554
    Total Energy =                       -305.5533571515651374
  Basis Set: 6-31G*
  Basis Set:
  Basis Set: 6-31G*
  Basis Set:
  @DF-RHF Final Energy:  -305.55341946353491
    Total Energy =                       -305.5534194635351355
  Basis Set: 6-31G*
  Basis Set:
  Basis Set: 6-31G*
  Basis Set:
  @DF-RHF Final Energy:  -305.55342589495007
    Total Energy =                       -305.5534258949503510
  Basis Set: 6-31G*
  Basis Set:
  Charge       = 0
  Multiplicity = 1
  Basis Set: 6-31G*
  Basis Set:

    Orbital Energies (a.u.)
    -----------------------

    Doubly Occupied:

       1A    -20.576095     2A    -11.288300     3A    -11.234528
       4A    -11.234419     5A    -11.227972     6A    -11.226810
       7A    -11.226702     8A     -1.390750     9A     -1.147543
      10A     -1.017903    11A     -1.003432    12A     -0.834844
      13A     -0.823275    14A     -0.731629    15A     -0.679559
      16A     -0.644944    17A     -0.628506    18A     -0.590918
      19A     -0.588564    20A     -0.520440    21A     -0.513779
      22A     -0.492036    23A     -0.465487    24A     -0.336472
      25A     -0.324595

  @DF-RHF Final Energy:  -305.55342688071948

   => Energetics <=

    Nuclear Repulsion Energy =            272.6120801207517843
    One-Electron Energy =                -954.8320066391145247
    Two-Electron Energy =                 376.6664996376430850
    DFT Exchange-Correlation Energy =       0.0000000000000000
    Empirical Dispersion Energy =           0.0000000000000000
    PCM Polarization Energy =               0.0000000000000000
    EFP Energy =                            0.0000000000000000
    Total Energy =                       -305.5534268807196554
    Molecular point group: c1
  Basis Set: 6-31G*
  Basis Set:

  -Total Gradient:
     Atom            X                  Y                   Z
    ------   -----------------  -----------------  -----------------
       1        0.000017357921     0.000015603863    -0.000075152444
       2        0.000162490303    -0.000019186181     0.000114666060
       3       -0.000241063177     0.000029663149    -0.000232741658
       4        0.000007419808    -0.000052600924     0.000108751440
       5        0.000147699936     0.000003318057     0.000035332634
       6       -0.000029398350    -0.000008670378    -0.000026658255
       7        0.000047303929     0.000058824980     0.000023532341
       8        0.000029899525    -0.000010892214     0.000006403860
       9       -0.000108520238     0.000047146246     0.000079220069
      10       -0.000042970273    -0.000005936410    -0.000004609424
      11       -0.000001487095    -0.000054872746    -0.000086014736
      12        0.000013747007    -0.000002710183     0.000012760125
      13       -0.000002479298     0.000000312743     0.000044509988

  **** Optimization is complete! (in 5 steps) ****
    Final optimized geometry and variables:
    Molecular point group: c1

    Geometry (in Angstrom), charge = 0, multiplicity = 1:

    H            2.668877400010     0.697348433958    -0.086139910073
    O            2.270863954718    -0.162975424263    -0.089792999287
    C            0.904962773920    -0.051307643036    -0.035617287229
    C            0.264298275634    -0.021346950055     1.191922266927
    C            0.171108287431    -0.012365970370    -1.209019228385
    H            0.851643979760    -0.068276374183     2.090797939653
    C           -1.117961305342     0.057298211858     1.242476338371
    H            0.687275940192    -0.051813769203    -2.150927103765
    C           -1.211222069037     0.065648375602    -1.151284019468
    H           -1.614742057029     0.079723144979     2.196054499217
    C           -1.860008737121     0.102580381043     0.072689007793
    H           -1.780230591814     0.094875256270    -2.063362357094
    H           -2.932638831501     0.161695865796     0.115009638807

  Mulliken Charges: (a.u.)
   Center  Symbol    Alpha    Beta     Spin     Total
       1     H     0.27124  0.27124  0.00000  0.45753
       2     O     4.38839  4.38839  0.00000 -0.77678
       3     C     2.82064  2.82064  0.00000  0.35871
       4     C     3.11812  3.11812  0.00000 -0.23624
       5     C     3.11787  3.11787  0.00000 -0.23574
       6     H     0.39447  0.39447  0.00000  0.21106
       7     C     3.09715  3.09715  0.00000 -0.19431
       8     H     0.39427  0.39427  0.00000  0.21146
       9     C     3.09717  3.09717  0.00000 -0.19433
      10     H     0.39806  0.39806  0.00000  0.20387
      11     C     3.10508  3.10508  0.00000 -0.21016
      12     H     0.39806  0.39806  0.00000  0.20388
      13     H     0.39948  0.39948  0.00000  0.20104

   Total alpha = 25.00000, Total beta = 25.00000, Total charge = -0.00000
