                              Psi4 1.0.54 Driver

  ==> Input File <==

--------------------------------------------------------------------------
set {
	reference rhf
	basis cc-pvtz
}

set_num_threads( 4 )
memory 2 gb

molecule MOL {
0 1

H	 2.614283	 2.028610	 0.296620
O	 3.358864	 1.662087	 -0.142800
C	 3.565468	 0.338079	 0.273842
C	 2.533667	 -0.637565	 -0.272227
H	 4.548038	 0.064914	 -0.086598
H	 3.593945	 0.282242	 1.360360
C	 1.114816	 -0.402372	 0.240993
H	 2.544552	 -0.580764	 -1.356576
H	 2.850574	 -1.642962	 -0.005497
C	 0.113298	 -1.420414	 -0.302504
H	 0.796373	 0.598427	 -0.031033
H	 1.113377	 -0.446476	 1.328807
C	 -1.079219	 -0.819050	 -1.048506
H	 0.631835	 -2.116798	 -0.957023
H	 -0.263739	 -2.010709	 0.528077
C	 -0.735795	 -0.130114	 -2.368040
H	 -1.791805	 -1.614278	 -1.249407
H	 -1.590901	 -0.113920	 -0.397255
C	 -1.967586	 0.365133	 -3.121586
H	 -0.184563	 -0.822699	 -3.000447
H	 -0.073395	 0.711398	 -2.188915
C	 -1.628051	 1.056819	 -4.437708
H	 -2.630142	 -0.473682	 -3.316488
H	 -2.523988	 1.050692	 -2.487954
H	 -1.098769	 0.386546	 -5.106911
H	 -2.523654	 1.393124	 -4.947513
H	 -0.996457	 1.923643	 -4.273217

	symmetry c1
}
set optking {
	frozen_dihedral = ("
		14 10 7 4
	")
}

ee,wfn = optimize('scf', return_wfn=True)
oeprop( wfn, 'DIPOLE', 'QUADRUPOLE', 'MULLIKEN_CHARGES')
f=open( 'psi4out.xyz', 'w' )
f.write( "27  " )
f.write( str(ee) + "\n" )
f.write( MOL.save_string_xyz() )
f.close()
--------------------------------------------------------------------------

    Molecular point group: c1
  Charge       = 0
  Multiplicity = 1
  Basis Set: CC-PVTZ
  Basis Set:
  @DF-RHF Final Energy:  -388.42232157758036
    Total Energy =                       -388.4223215775807603
    Molecular point group: c1
  Basis Set: CC-PVTZ
  Basis Set:
  Basis Set: CC-PVTZ
  Basis Set:
  @DF-RHF Final Energy:  -388.42228911525916
    Total Energy =                       -388.4222891152593320
  Basis Set: CC-PVTZ
  Basis Set:
  Basis Set: CC-PVTZ
  Basis Set:
  @DF-RHF Final Energy:  -388.42274152556979
    Total Energy =                       -388.4227415255693359
  Basis Set: CC-PVTZ
  Basis Set:
  Basis Set: CC-PVTZ
  Basis Set:
  @DF-RHF Final Energy:  -388.42274301287006
    Total Energy =                       -388.4227430128706828
  Basis Set: CC-PVTZ
  Basis Set:
  Charge       = 0
  Multiplicity = 1
  Basis Set: CC-PVTZ
  Basis Set:

    Orbital Energies (a.u.)
    -----------------------

    Doubly Occupied:

       1A    -20.545570     2A    -11.264834     3A    -11.216736
       4A    -11.214008     5A    -11.213481     6A    -11.212481
       7A    -11.212313     8A    -11.210084     9A    -11.205282
      10A     -1.363332    11A     -1.094551    12A     -1.060376
      13A     -1.011611    14A     -0.948009    15A     -0.888126
      16A     -0.822274    17A     -0.797265    18A     -0.780070
      19A     -0.697420    20A     -0.647484    21A     -0.634718
      22A     -0.617084    23A     -0.609775    24A     -0.583706
      25A     -0.573511    26A     -0.553249    27A     -0.543788
      28A     -0.524132    29A     -0.504510    30A     -0.502716
      31A     -0.481400    32A     -0.472387    33A     -0.468824
      34A     -0.459431    35A     -0.452852    36A     -0.439111
      37A     -0.425052

  @DF-RHF Final Energy:  -388.42274353044496

   => Energetics <=

    Nuclear Repulsion Energy =            467.2954238384597261
    One-Electron Energy =               -1452.9332255278411594
    Two-Electron Energy =                 597.2150581589360172
    DFT Exchange-Correlation Energy =       0.0000000000000000
    Empirical Dispersion Energy =           0.0000000000000000
    PCM Polarization Energy =               0.0000000000000000
    EFP Energy =                            0.0000000000000000
    Total Energy =                       -388.4227435304453593
    Molecular point group: c1
  Basis Set: CC-PVTZ
  Basis Set:

  -Total Gradient:
     Atom            X                  Y                   Z
    ------   -----------------  -----------------  -----------------
       1        0.000013646735     0.000014979317    -0.000016482687
       2       -0.000000755357     0.000048344624     0.000035111629
       3       -0.000147146966     0.000032528862     0.000003699474
       4       -0.000005696333     0.000050425931    -0.000324773453
       5       -0.000040233453    -0.000053676134    -0.000006545824
       6        0.000001347473    -0.000002329672    -0.000008637875
       7        0.000074493127    -0.000231431454     0.000540666267
       8        0.000014922184    -0.000041023724    -0.000001305109
       9        0.000016220978    -0.000009395857    -0.000017339855
      10       -0.000108893326     0.000211789921    -0.000691290170
      11       -0.000101247623    -0.000044095012     0.000057954069
      12       -0.000085967431    -0.000088818890    -0.000010926709
      13        0.000004701309     0.000444888527     0.000073779664
      14        0.000220278796    -0.000260346820     0.000295652727
      15        0.000087013993     0.000060166131    -0.000000481920
      16        0.000195697800     0.000087346222    -0.000166952116
      17        0.000067409882     0.000030198762     0.000089971739
      18        0.000002458008     0.000025691148     0.000044029734
      19       -0.000238730897    -0.000091808796     0.000015291898
      20        0.000050946395     0.000094813539     0.000101009663
      21       -0.000158868961    -0.000175098279    -0.000016601160
      22        0.000147490419    -0.000060245908    -0.000015638709
      23        0.000002511403     0.000099084974     0.000011404175
      24        0.000078085125    -0.000092468418    -0.000113124359
      25       -0.000068319165     0.000096964741     0.000050443888
      26        0.000067771288    -0.000060118515     0.000087934450
      27       -0.000089135401    -0.000086365218    -0.000016849433

  **** Optimization is complete! (in 5 steps) ****
    Final optimized geometry and variables:
    Molecular point group: c1

    Geometry (in Angstrom), charge = 0, multiplicity = 1:

    H            1.966716426786     1.979369411424     1.595825391740
    O            2.708103149887     1.632254567879     1.136061934662
    C            2.935512782590     0.300267931219     1.515841605747
    C            1.915019264135    -0.673999365489     0.948110099170
    H            3.920004906412     0.050554820781     1.143786592743
    H            2.970065742789     0.215684535091     2.600265233332
    C            0.493820104168    -0.467845202523     1.469233799080
    H            1.922275631160    -0.593269029721    -0.134582614684
    H            2.242888453473    -1.682084295941     1.190661370621
    C           -0.526106242348    -1.483772675059     0.911009247707
    H            0.166888970013     0.537607443200     1.225777736002
    H            0.505096064354    -0.526002552108     2.553896015764
    C           -1.719331561502    -0.858838683595     0.185281102847
    H           -0.024105246740    -2.170286355216     0.235379854905
    H           -0.900417843842    -2.094394019951     1.725133985908
    C           -1.371534848115    -0.216212883595    -1.155807059176
    H           -2.467001777854    -1.629022215271     0.017463933639
    H           -2.186512585371    -0.120466295558     0.833112186621
    C           -2.579263997639     0.394654785775    -1.861406001740
    H           -0.922788977347    -0.967542787895    -1.801378899852
    H           -0.616692627294     0.552354322283    -1.017497940604
    C           -2.235136369724     1.011102251583    -3.213037054683
    H           -3.340319881021    -0.368782570090    -1.997318545025
    H           -3.021721566333     1.153773528418    -1.222332386438
    H           -1.825480440888     0.268247078573    -3.889121188653
    H           -3.112700207685     1.438193759419    -3.684489722410
    H           -1.499128627895     1.800883240279    -3.107294912467

  Mulliken Charges: (a.u.)
   Center  Symbol    Alpha    Beta     Spin     Total
       1     H     0.39238  0.39238  0.00000  0.21523
       2     O     4.20592  4.20592  0.00000 -0.41184
       3     C     2.98044  2.98044  0.00000  0.03913
       4     C     3.08755  3.08755  0.00000 -0.17510
       5     H     0.44843  0.44843  0.00000  0.10313
       6     H     0.46946  0.46946  0.00000  0.06108
       7     C     3.11737  3.11737  0.00000 -0.23475
       8     H     0.44976  0.44976  0.00000  0.10049
       9     H     0.45426  0.45426  0.00000  0.09148
      10     C     3.10403  3.10403  0.00000 -0.20806
      11     H     0.45527  0.45527  0.00000  0.08947
      12     H     0.44383  0.44383  0.00000  0.11234
      13     C     3.09588  3.09588  0.00000 -0.19177
      14     H     0.45315  0.45315  0.00000  0.09371
      15     H     0.44309  0.44309  0.00000  0.11382
      16     C     3.09081  3.09081  0.00000 -0.18162
      17     H     0.44828  0.44828  0.00000  0.10344
      18     H     0.45444  0.45444  0.00000  0.09111
      19     C     3.08362  3.08362  0.00000 -0.16724
      20     H     0.45421  0.45421  0.00000  0.09158
      21     H     0.45046  0.45046  0.00000  0.09907
      22     C     3.14991  3.14991  0.00000 -0.29982
      23     H     0.45430  0.45430  0.00000  0.09141
      24     H     0.45499  0.45499  0.00000  0.09002
      25     H     0.45517  0.45517  0.00000  0.08966
      26     H     0.44871  0.44871  0.00000  0.10258
      27     H     0.45427  0.45427  0.00000  0.09145

   Total alpha = 37.00000, Total beta = 37.00000, Total charge = -0.00000

*** Psi4 exiting successfully. Buy a developer a beer!
