                              Psi4 1.0.54 Driver

  ==> Input File <==

--------------------------------------------------------------------------
set {
	reference rhf
	basis cc-pvtz
}

set_num_threads( 4 )
memory 2 gb

molecule MOL {
0 1

O	 0.395956	 1.296780	 -0.000076
C	 0.503080	 0.114405	 -0.000074
C	 -0.701393	 -0.805532	 -0.000109
C	 1.858147	 -0.556019	 0.000212
C	 -2.036823	 -0.078409	 0.000015
H	 -0.615265	 -1.458122	 -0.865062
H	 -0.615198	 -1.458326	 0.864686
H	 -2.134417	 0.553662	 -0.872447
H	 -2.853021	 -0.790923	 -0.000045
H	 -2.134367	 0.553458	 0.872632
H	 1.961135	 -1.190997	 -0.872843
H	 2.636717	 0.191189	 -0.000109
H	 1.961099	 -1.190180	 0.873873

	symmetry c1
}
ee,wfn = energy('scf', return_wfn=True)
oeprop( wfn, 'DIPOLE', 'QUADRUPOLE', 'MULLIKEN_CHARGES')
oeprop( wfn, 'GRID_ESP')
f=open( 'psi4out.xyz', 'w' )
f.write( "13  " )
f.write( str(ee) + "\n" )
f.write( MOL.save_string_xyz() )
f.close()
--------------------------------------------------------------------------

    Molecular point group: c1

    Geometry (in Angstrom), charge = 0, multiplicity = 1:

       Center              X                  Y                   Z               Mass
    ------------   -----------------  -----------------  -----------------  -----------------
           O          0.395927347193     1.296675880304    -0.000076038117    15.994914619560
           C          0.503051347193     0.114300880304    -0.000074038117    12.000000000000
           C         -0.701421652807    -0.805636119696    -0.000109038117    12.000000000000
           C          1.858118347193    -0.556123119696     0.000211961883    12.000000000000
           C         -2.036851652807    -0.078513119696     0.000014961883    12.000000000000
           H         -0.615293652807    -1.458226119696    -0.865062038117     1.007825032070
           H         -0.615226652807    -1.458430119696     0.864685961883     1.007825032070
           H         -2.134445652807     0.553557880304    -0.872447038117     1.007825032070
           H         -2.853049652807    -0.791027119696    -0.000045038117     1.007825032070
           H         -2.134395652807     0.553353880304     0.872631961883     1.007825032070
           H          1.961106347193    -1.191101119696    -0.872843038117     1.007825032070
           H          2.636688347193     0.191084880304    -0.000109038117     1.007825032070
           H          1.961070347193    -1.190284119696     0.873872961883     1.007825032070

  Charge       = 0
  Multiplicity = 1
  Basis Set: CC-PVTZ
  Basis Set:

    Orbital Energies (a.u.)
    -----------------------

    Doubly Occupied:

       1A    -20.539982     2A    -11.321293     3A    -11.233656
       4A    -11.227507     5A    -11.212567     6A     -1.400099
       7A     -1.062798     8A     -1.001280     9A     -0.879078
      10A     -0.731169    11A     -0.661178    12A     -0.642137
      13A     -0.624649    14A     -0.583552    15A     -0.571581
      16A     -0.522162    17A     -0.513060    18A     -0.509891
      19A     -0.489297    20A     -0.405328

  @DF-RHF Final Energy:  -231.08360169180762

   => Energetics <=

    Nuclear Repulsion Energy =            177.3015229822421190
    One-Electron Energy =                -664.5056520970701968
    Two-Electron Energy =                 256.1205274230203486
    DFT Exchange-Correlation Energy =       0.0000000000000000
    Empirical Dispersion Energy =           0.0000000000000000
    PCM Polarization Energy =               0.0000000000000000
    EFP Energy =                            0.0000000000000000
    Total Energy =                       -231.0836016918077576

  Mulliken Charges: (a.u.)
   Center  Symbol    Alpha    Beta     Spin     Total
       1     O     4.16934  4.16934  0.00000 -0.33867
       2     C     2.86326  2.86326  0.00000  0.27349
       3     C     3.10023  3.10023  0.00000 -0.20046
       4     C     3.14932  3.14932  0.00000 -0.29863
       5     C     3.14143  3.14143  0.00000 -0.28285
       6     H     0.44677  0.44677  0.00000  0.10646
       7     H     0.44677  0.44677  0.00000  0.10645
       8     H     0.44772  0.44772  0.00000  0.10455
       9     H     0.45076  0.45076  0.00000  0.09849
      10     H     0.44773  0.44773  0.00000  0.10454
      11     H     0.45058  0.45058  0.00000  0.09884
      12     H     0.43553  0.43553  0.00000  0.12894
      13     H     0.45057  0.45057  0.00000  0.09886

   Total alpha = 20.00000, Total beta = 20.00000, Total charge = -0.00000

*** Psi4 exiting successfully. Buy a developer a beer!
