                              Psi4 1.0.54 Driver

  ==> Input File <==

--------------------------------------------------------------------------
set {
	reference rhf
	basis cc-pvtz
}

set_num_threads( 4 )
memory 2 gb

molecule MOL {
0 1

H	 2.386229	 -1.115044	 0.573206
N	 2.433987	 -0.362316	 -0.080024
C	 1.263552	 0.494993	 0.021953
H	 2.501432	 -0.766471	 -0.990764
C	 -0.016533	 -0.325589	 -0.026925
H	 1.280915	 1.180773	 -0.818522
H	 1.263064	 1.106893	 0.925038
C	 -1.280353	 0.525521	 0.047747
H	 -0.016686	 -0.912532	 -0.939714
H	 -0.014099	 -1.037598	 0.796369
C	 -2.560681	 -0.301323	 -0.007747
H	 -1.279957	 1.241025	 -0.770189
H	 -1.270445	 1.110526	 0.963468
H	 -2.617064	 -0.872870	 -0.928010
H	 -3.439525	 0.331102	 0.043462
H	 -2.609427	 -1.002736	 0.818585

	symmetry c1
}
set optking {
	frozen_dihedral = ("
		1 2 3 6
	")
}

ee,wfn = optimize('scf', return_wfn=True)
oeprop( wfn, 'DIPOLE', 'QUADRUPOLE', 'MULLIKEN_CHARGES')
f=open( 'psi4out.xyz', 'w' )
f.write( "16  " )
f.write( str(ee) + "\n" )
f.write( MOL.save_string_xyz() )
f.close()
--------------------------------------------------------------------------

    Molecular point group: c1
  Charge       = 0
  Multiplicity = 1
  Basis Set: CC-PVTZ
  Basis Set:
  @DF-RHF Final Energy:  -212.39818135974173
    Total Energy =                       -212.3981813597416135
    Molecular point group: c1
  Basis Set: CC-PVTZ
  Basis Set:
  Basis Set: CC-PVTZ
  Basis Set:
  @DF-RHF Final Energy:  -212.39972447659443
    Total Energy =                       -212.3997244765945425
  Basis Set: CC-PVTZ
  Basis Set:
  Basis Set: CC-PVTZ
  Basis Set:
  @DF-RHF Final Energy:  -212.39993199630692
    Total Energy =                       -212.3999319963068615
  Basis Set: CC-PVTZ
  Basis Set:
  Basis Set: CC-PVTZ
  Basis Set:
  @DF-RHF Final Energy:  -212.39993464434559
    Total Energy =                       -212.3999346443455920
  Basis Set: CC-PVTZ
  Basis Set:
  Charge       = 0
  Multiplicity = 1
  Basis Set: CC-PVTZ
  Basis Set:

    Orbital Energies (a.u.)
    -----------------------

    Doubly Occupied:

       1A    -15.526860     2A    -11.238313     3A    -11.215707
       4A    -11.211493     5A    -11.208661     6A     -1.178961
       7A     -1.063054     8A     -0.960358     9A     -0.848428
      10A     -0.797038    11A     -0.678748    12A     -0.626627
      13A     -0.598637    14A     -0.588196    15A     -0.554242
      16A     -0.526572    17A     -0.501205    18A     -0.489449
      19A     -0.471659    20A     -0.466402    21A     -0.379822

  @DF-RHF Final Energy:  -212.39993478876323

   => Energetics <=

    Nuclear Repulsion Energy =            186.3914503235195639
    One-Electron Energy =                -655.3219001496290730
    Two-Electron Energy =                 256.5305150373461629
    DFT Exchange-Correlation Energy =       0.0000000000000000
    Empirical Dispersion Energy =           0.0000000000000000
    PCM Polarization Energy =               0.0000000000000000
    EFP Energy =                            0.0000000000000000
    Total Energy =                       -212.3999347887633462
    Molecular point group: c1
  Basis Set: CC-PVTZ
  Basis Set:

  -Total Gradient:
     Atom            X                  Y                   Z
    ------   -----------------  -----------------  -----------------
       1       -0.000694128765    -0.000994553724    -0.001207479668
       2        0.000705609196     0.000995116614     0.001318969095
       3        0.000685275156     0.001053202378     0.000784112956
       4       -0.000006109536    -0.000000781790    -0.000006392656
       5        0.000014830490    -0.000000995515     0.000008822329
       6       -0.000708893072    -0.001039190144    -0.000894332159
       7        0.000007712979    -0.000005853532     0.000001075381
       8        0.000015643508    -0.000002069099    -0.000012011252
       9       -0.000003685663     0.000005291928     0.000005718922
      10       -0.000002719884    -0.000006530376    -0.000001461186
      11       -0.000014298524    -0.000003006746     0.000006406614
      12        0.000001105933     0.000002583922    -0.000000087554
      13       -0.000001077546    -0.000001986956    -0.000002761229
      14        0.000001874538     0.000002939960    -0.000002391168
      15       -0.000001249192    -0.000003292962     0.000001081344
      16        0.000000110381    -0.000000873957     0.000000730229

  **** Optimization is complete! (in 5 steps) ****
    Final optimized geometry and variables:
    Molecular point group: c1

    Geometry (in Angstrom), charge = 0, multiplicity = 1:

    H            2.465400175273    -1.074199638707     0.592168248828
    N            2.495148471353    -0.306436785905    -0.046417302881
    C            1.270582539466     0.474559162383     0.023577706353
    H            2.609760246893    -0.699239744237    -0.957384284079
    C           -0.025259885756    -0.331840280514    -0.022848183015
    H            1.280261836712     1.176760645851    -0.803264559639
    H            1.295051743831     1.065668240624     0.933173934917
    C           -1.278428448007     0.535247354771     0.054070829073
    H           -0.045577400079    -0.919812164465    -0.938042413823
    H           -0.029081174987    -1.045096202465     0.799207317563
    C           -2.571341264020    -0.272665769694     0.013337035145
    H           -1.273599784443     1.246904894356    -0.767173938135
    H           -1.251719860322     1.124710010557     0.966494243599
    H           -2.644918719156    -0.847010198140    -0.904145742414
    H           -3.440171397165     0.372960610728     0.069548141398
    H           -2.623167559918    -0.969749640986     0.843057115942

  Mulliken Charges: (a.u.)
   Center  Symbol    Alpha    Beta     Spin     Total
       1     H     0.43256  0.43256  0.00000  0.13487
       2     N     3.68782  3.68782  0.00000 -0.37563
       3     C     3.02863  3.02863  0.00000 -0.05726
       4     H     0.43263  0.43263  0.00000  0.13475
       5     C     3.08585  3.08585  0.00000 -0.17171
       6     H     0.45444  0.45444  0.00000  0.09112
       7     H     0.45330  0.45330  0.00000  0.09340
       8     C     3.08966  3.08966  0.00000 -0.17931
       9     H     0.45982  0.45982  0.00000  0.08035
      10     H     0.45992  0.45992  0.00000  0.08017
      11     C     3.14852  3.14852  0.00000 -0.29704
      12     H     0.45441  0.45441  0.00000  0.09118
      13     H     0.45427  0.45427  0.00000  0.09146
      14     H     0.45500  0.45500  0.00000  0.09000
      15     H     0.44827  0.44827  0.00000  0.10345
      16     H     0.45490  0.45490  0.00000  0.09020

   Total alpha = 21.00000, Total beta = 21.00000, Total charge = -0.00000

*** Psi4 exiting successfully. Buy a developer a beer!
