  ==> Input File <==

--------------------------------------------------------------------------
set {
	reference rhf
	basis 6-31G*
}

set_num_threads( 4 )
memory 2 gb

molecule MOL {
0 1

O	 -0.682937	 1.318834	 -0.186099
C	 -0.860635	 0.152188	 -0.042321
C	 -2.173363	 -0.477127	 0.338347
O	 0.083258	 -0.765189	 -0.202595
H	 -2.477673	 -1.180929	 -0.427595
H	 -2.923125	 0.290956	 0.455536
H	 -2.058825	 -1.029004	 1.264191
C	 0.714299	 -0.873560	 -1.476503
C	 1.845117	 0.127470	 -1.624275
H	 -0.026296	 -0.746094	 -2.251366
H	 1.087567	 -1.887037	 -1.508651
H	 2.353429	 -0.029854	 -2.570636
H	 1.467232	 1.141981	 -1.605890
H	 2.568246	 0.006805	 -0.824938

	symmetry c1
}
set optking {
	frozen_dihedral = ("
		8 4 2 1
	")
}

ee = optimize('scf')
oeprop('DIPOLE', 'QUADRUPOLE', 'MULLIKEN_CHARGES')
f=open( 'psi4out.xyz', 'w' )
f.write( "14  " )
f.write( str(ee) + "\n" )
f.write( MOL.save_string_xyz() )
f.close()
--------------------------------------------------------------------------

    Molecular point group: c1
  Charge       = 0
  Multiplicity = 1
  Basis Set: 6-31G*
  Basis Set:
  @DF-RHF Final Energy:  -305.85991474393052
    Total Energy =                       -305.8599147439305739
    Molecular point group: c1
  Basis Set: 6-31G*
  Basis Set:
  Basis Set: 6-31G*
  Basis Set:
  @DF-RHF Final Energy:  -305.85800150320108
    Total Energy =                       -305.8580015032011374
  Basis Set: 6-31G*
  Basis Set:
  Basis Set: 6-31G*
  Basis Set:
  @DF-RHF Final Energy:  -305.86102078433709
    Total Energy =                       -305.8610207843373701
  Basis Set: 6-31G*
  Basis Set:
  Basis Set: 6-31G*
  Basis Set:
  @DF-RHF Final Energy:  -305.86116838980968
    Total Energy =                       -305.8611683898095635
  Basis Set: 6-31G*
  Basis Set:
  Basis Set: 6-31G*
  Basis Set:
  @DF-RHF Final Energy:  -305.86121265877387
    Total Energy =                       -305.8612126587735247
  Basis Set: 6-31G*
  Basis Set:
  Basis Set: 6-31G*
  Basis Set:
  @DF-RHF Final Energy:  -305.86123066431503
    Total Energy =                       -305.8612306643149168
  Basis Set: 6-31G*
  Basis Set:
  Charge       = 0
  Multiplicity = 1
  Basis Set: 6-31G*
  Basis Set:

    Orbital Energies (a.u.)
    -----------------------

    Doubly Occupied:

       1A    -20.587713     2A    -20.553668     3A    -11.377783
       4A    -11.293527     5A    -11.235238     6A    -11.215533
       7A     -1.460060     8A     -1.364938     9A     -1.050357
      10A     -1.001359    11A     -0.878786    12A     -0.771442
      13A     -0.695175    14A     -0.681224    15A     -0.655674
      16A     -0.611200    17A     -0.584454    18A     -0.575649
      19A     -0.562224    20A     -0.534835    21A     -0.506937
      22A     -0.494814    23A     -0.448624    24A     -0.437685

  @DF-RHF Final Energy:  -305.86123412284962

   => Energetics <=

    Nuclear Repulsion Energy =            247.1148474442506142
    One-Electron Energy =                -906.7943620983470510
    Two-Electron Energy =                 353.8182805312467849
    DFT Exchange-Correlation Energy =       0.0000000000000000
    Empirical Dispersion Energy =           0.0000000000000000
    PCM Polarization Energy =               0.0000000000000000
    EFP Energy =                            0.0000000000000000
    Total Energy =                       -305.8612341228496803
    Molecular point group: c1
  Basis Set: 6-31G*
  Basis Set:

  -Total Gradient:
     Atom            X                  Y                   Z
    ------   -----------------  -----------------  -----------------
       1        0.002163956549     0.001533110908     0.009035000119
       2       -0.005685743889    -0.004908085431    -0.014290265024
       3        0.000027172129     0.000010497618     0.000052427439
       4        0.008079936368     0.008882312143     0.006986386460
       5        0.000002939214     0.000001780245    -0.000019613615
       6       -0.000031150270    -0.000018454235     0.000012635407
       7        0.000015189292     0.000016900746    -0.000006335260
       8       -0.004586777385    -0.005535038143    -0.001692800386
       9       -0.000002740051    -0.000002885452    -0.000014869328
      10        0.000027280462     0.000005950657    -0.000007614285
      11        0.000006254361     0.000000479293    -0.000026810142
      12        0.000023182612     0.000024154135    -0.000011985155
      13       -0.000016578170    -0.000004063700    -0.000005055891
      14       -0.000022921224    -0.000006658785    -0.000011100338

  **** Optimization is complete! (in 7 steps) ****
    Final optimized geometry and variables:
    Molecular point group: c1

    Geometry (in Angstrom), charge = 0, multiplicity = 1:

    O           -0.673474999568     1.392629772853     0.203243956983
    C           -0.754706668383     0.234689315859     0.438730420639
    C           -1.984834201930    -0.443453088104     0.976320196204
    O            0.289488340085    -0.605445336739     0.349892501048
    H           -2.307589003708    -1.214308713876     0.284367045425
    H           -2.775327142819     0.277805671274     1.122003318021
    H           -1.744797400748    -0.931055647980     1.914259358159
    C            0.933971735373    -0.741134432423    -0.915788128005
    C            2.151628465842     0.156741183411    -1.024517760067
    H            0.223584879571    -0.525116505446    -1.705211351259
    H            1.210313015814    -1.783936605306    -0.983244546663
    H            2.654725839920    -0.011752678717    -1.972368905091
    H            1.863451289426     1.197908748414    -0.961319298165
    H            2.849316293337    -0.058747743780    -0.223038080883

  Mulliken Charges: (a.u.)
   Center  Symbol    Alpha    Beta     Spin     Total
       1     O     4.26228  4.26228  0.00000 -0.52456
       2     C     2.62498  2.62498  0.00000  0.75003
       3     C     3.28331  3.28331  0.00000 -0.56662
       4     O     4.31526  4.31526  0.00000 -0.63052
       5     H     0.40527  0.40527  0.00000  0.18945
       6     H     0.39793  0.39793  0.00000  0.20413
       7     H     0.39777  0.39777  0.00000  0.20446
       8     C     3.00514  3.00514  0.00000 -0.01028
       9     C     3.24789  3.24789  0.00000 -0.49578
      10     H     0.41775  0.41775  0.00000  0.16449
      11     H     0.40915  0.40915  0.00000  0.18170
      12     H     0.42207  0.42207  0.00000  0.15586
      13     H     0.39877  0.39877  0.00000  0.20247
      14     H     0.41242  0.41242  0.00000  0.17516

   Total alpha = 24.00000, Total beta = 24.00000, Total charge =  0.00000
