                              Psi4 1.0.54 Driver

  ==> Input File <==

--------------------------------------------------------------------------
set {
	reference rhf
	basis cc-pvtz
}

set_num_threads( 4 )
memory 2 gb

molecule MOL {
0 1

H	 1.180134	 -2.006491	 -3.611619
O	 2.074486	 -1.725413	 -3.666031
C	 2.135705	 -0.355247	 -3.962965
C	 1.735520	 0.536452	 -2.797027
H	 3.164105	 -0.157307	 -4.233504
H	 1.524060	 -0.128046	 -4.834010
C	 0.271773	 0.406695	 -2.381748
H	 2.377302	 0.308063	 -1.951384
H	 1.939408	 1.566655	 -3.079003
C	 -0.101152	 1.340211	 -1.230961
H	 0.070268	 -0.619786	 -2.094113
H	 -0.365843	 0.622960	 -3.237296
C	 -1.574951	 1.305615	 -0.822335
H	 0.516272	 1.106152	 -0.367115
H	 0.152113	 2.357570	 -1.516102
C	 -2.041121	 -0.006551	 -0.194127
H	 -1.750979	 2.109694	 -0.113111
H	 -2.192690	 1.528560	 -1.689427
C	 -3.489218	 0.042606	 0.286507
H	 -1.394063	 -0.251037	 0.645523
H	 -1.936124	 -0.819718	 -0.905982
C	 -4.219984	 1.311773	 -0.139038
H	 -4.022855	 -0.824300	 -0.093339
H	 -3.510372	 -0.038577	 1.370031
H	 -4.244251	 1.405725	 -1.219696
H	 -5.244345	 1.313233	 0.215630
H	 -3.732090	 2.196311	 0.257073

	symmetry c1
}
set optking {
	frozen_dihedral = ("
		20 16 19 22
	")
}

ee,wfn = optimize('scf', return_wfn=True)
oeprop( wfn, 'DIPOLE', 'QUADRUPOLE', 'MULLIKEN_CHARGES')
f=open( 'psi4out.xyz', 'w' )
f.write( "27  " )
f.write( str(ee) + "\n" )
f.write( MOL.save_string_xyz() )
f.close()
--------------------------------------------------------------------------

    Molecular point group: c1
  Charge       = 0
  Multiplicity = 1
  Basis Set: CC-PVTZ
  Basis Set:
  @DF-RHF Final Energy:  -388.41315040170088
    Total Energy =                       -388.4131504017010457
    Molecular point group: c1
  Basis Set: CC-PVTZ
  Basis Set:
  Basis Set: CC-PVTZ
  Basis Set:
  @DF-RHF Final Energy:  -388.36527766860593
    Total Energy =                       -388.3652776686055859
  Basis Set: CC-PVTZ
  Basis Set:
  Basis Set: CC-PVTZ
  Basis Set:
  @DF-RHF Final Energy:  -388.41354439927409
    Total Energy =                       -388.4135443992742012
  Basis Set: CC-PVTZ
  Basis Set:
  Basis Set: CC-PVTZ
  Basis Set:
  @DF-RHF Final Energy:  -388.41728406356810
    Total Energy =                       -388.4172840635685588
  Basis Set: CC-PVTZ
  Basis Set:
  @DF-RHF Final Energy:  -388.41766572458960
    Total Energy =                       -388.4176657245895967
  Basis Set: CC-PVTZ
  Basis Set:
  @DF-RHF Final Energy:  -388.41767216019548
    Total Energy =                       -388.4176721601954796
  Basis Set: CC-PVTZ
  Basis Set:
  Basis Set: CC-PVTZ
  Basis Set:
  @DF-RHF Final Energy:  -388.41767054915448
    Total Energy =                       -388.4176705491545363
  Basis Set: CC-PVTZ
  Basis Set:
  Basis Set: CC-PVTZ
  Basis Set:
  @DF-RHF Final Energy:  -388.41768106810343
    Total Energy =                       -388.4176810681036613
  Basis Set: CC-PVTZ
  Basis Set:
  Charge       = 0
  Multiplicity = 1
  Basis Set: CC-PVTZ
  Basis Set:

    Orbital Energies (a.u.)
    -----------------------

    Doubly Occupied:

       1A    -20.545261     2A    -11.264878     3A    -11.216528
       4A    -11.214568     5A    -11.214357     6A    -11.213103
       7A    -11.212718     8A    -11.212112     9A    -11.206851
      10A     -1.363162    11A     -1.094441    12A     -1.058870
      13A     -1.009708    14A     -0.946998    15A     -0.895528
      16A     -0.831297    17A     -0.798654    18A     -0.763091
      19A     -0.695980    20A     -0.651014    21A     -0.638470
      22A     -0.615150    23A     -0.604134    24A     -0.589173
      25A     -0.579919    26A     -0.555388    27A     -0.537261
      28A     -0.526197    29A     -0.513846    30A     -0.500083
      31A     -0.484097    32A     -0.476170    33A     -0.468900
      34A     -0.451400    35A     -0.446349    36A     -0.440691
      37A     -0.425530

  @DF-RHF Final Energy:  -388.41768104108104

   => Energetics <=

    Nuclear Repulsion Energy =            462.9073738704658467
    One-Electron Energy =               -1444.1263513257813429
    Two-Electron Energy =                 592.8012964142345709
    DFT Exchange-Correlation Energy =       0.0000000000000000
    Empirical Dispersion Energy =           0.0000000000000000
    PCM Polarization Energy =               0.0000000000000000
    EFP Energy =                            0.0000000000000000
    Total Energy =                       -388.4176810410809821
    Molecular point group: c1
  Basis Set: CC-PVTZ
  Basis Set:

  -Total Gradient:
     Atom            X                  Y                   Z
    ------   -----------------  -----------------  -----------------
       1        0.000001435917     0.000003391157     0.000001030661
       2       -0.000012203541     0.000005237458    -0.000000406274
       3        0.000017321259     0.000006582515     0.000011817408
       4       -0.000004111601    -0.000008446436    -0.000004225395
       5       -0.000005057724    -0.000004213403    -0.000001868301
       6       -0.000000167114    -0.000003275812     0.000010586028
       7       -0.000002773676     0.000017130906    -0.000004377611
       8        0.000004465189     0.000001885176    -0.000008177234
       9       -0.000002142655    -0.000004562884    -0.000005211537
      10        0.000000506732    -0.000019968988     0.000015651880
      11        0.000002330847     0.000000440503    -0.000004629217
      12        0.000001146334     0.000001264865     0.000003569189
      13       -0.000012525741    -0.000020731201    -0.000018144111
      14        0.000004945792     0.000004500207     0.000000558384
      15       -0.000009367249    -0.000008132441    -0.000005426081
      16        0.000193068858    -0.002943360371    -0.000039678537
      17       -0.000014220768    -0.000000085658     0.000001345052
      18        0.000007348020     0.000000970111     0.000006429686
      19       -0.000112752724    -0.000693962345    -0.002716574651
      20       -0.000134580854     0.002765522447     0.000767434824
      21        0.000003529535     0.000004288754     0.000003445347
      22        0.000056551601     0.000889414844     0.001980745351
      23        0.000002144885     0.000003610492    -0.000000617172
      24       -0.000001445015    -0.000001451780    -0.000009402060
      25       -0.000012005494    -0.000004121290     0.000012626762
      26        0.000017305290     0.000003666729     0.000002793878
      27        0.000011253902     0.000004406446     0.000000703732

  **** Optimization is complete! (in 9 steps) ****
    Final optimized geometry and variables:
    Molecular point group: c1

    Geometry (in Angstrom), charge = 0, multiplicity = 1:

    H            2.258969991865    -2.086290115023    -1.574816334184
    O            3.128628474210    -1.805006570501    -1.360020572087
    C            3.240285872372    -0.414250904151    -1.509883685014
    C            2.520304775402     0.372498921990    -0.424955624554
    H            4.299238408644    -0.197161281931    -1.472080445263
    H            2.883707204461    -0.108745170330    -2.491653422757
    C            1.002112702916     0.208344086202    -0.433603758221
    H            2.915335290147     0.070379949510     0.540287680024
    H            2.769361517102     1.423137424989    -0.553235111956
    C            0.311954350393     1.043874806124     0.643886422721
    H            0.754446957441    -0.838630135539    -0.295629274377
    H            0.614903961275     0.495716202880    -1.409616774829
    C           -1.218004008262     0.991729650059     0.628037707699
    H            0.672996310865     0.734354400618     1.621670179064
    H            0.618651788134     2.079159230861     0.523189011833
    C           -1.798406091283    -0.369578220997     1.021508384075
    H           -1.584257576544     1.747329553277     1.315079227116
    H           -1.569921256254     1.281354608702    -0.357402794505
    C           -3.345320594624    -0.470061499356     1.108256140053
    H           -1.383164097309    -0.620601493782     1.992467605079
    H           -1.437509486812    -1.121049719305     0.330191760569
    C           -4.159330658483     0.714958855683     0.588919680845
    H           -3.667083776277    -1.362226980794     0.582651119089
    H           -3.623464487668    -0.627913673313     2.144977020295
    H           -3.979952380899     0.903991440962    -0.463296022828
    H           -5.217612381557     0.510686586222     0.705743088960
    H           -3.942512407975     1.626649832197     1.131142972280

  Mulliken Charges: (a.u.)
   Center  Symbol    Alpha    Beta     Spin     Total
       1     H     0.39231  0.39231  0.00000  0.21538
       2     O     4.20550  4.20550  0.00000 -0.41100
       3     C     2.97995  2.97995  0.00000  0.04011
       4     C     3.08947  3.08947  0.00000 -0.17894
       5     H     0.44856  0.44856  0.00000  0.10289
       6     H     0.46974  0.46974  0.00000  0.06053
       7     C     3.10205  3.10205  0.00000 -0.20410
       8     H     0.45076  0.45076  0.00000  0.09848
       9     H     0.45524  0.45524  0.00000  0.08952
      10     C     3.09988  3.09988  0.00000 -0.19976
      11     H     0.45602  0.45602  0.00000  0.08796
      12     H     0.45408  0.45408  0.00000  0.09183
      13     C     3.09892  3.09892  0.00000 -0.19783
      14     H     0.45208  0.45208  0.00000  0.09584
      15     H     0.44792  0.44792  0.00000  0.10416
      16     C     3.10041  3.10041  0.00000 -0.20083
      17     H     0.44573  0.44573  0.00000  0.10853
      18     H     0.45132  0.45132  0.00000  0.09736
      19     C     3.08730  3.08730  0.00000 -0.17459
      20     H     0.45089  0.45089  0.00000  0.09822
      21     H     0.45146  0.45146  0.00000  0.09709
      22     C     3.15678  3.15678  0.00000 -0.31356
      23     H     0.45071  0.45071  0.00000  0.09858
      24     H     0.45173  0.45173  0.00000  0.09655
      25     H     0.45390  0.45390  0.00000  0.09220
      26     H     0.44443  0.44443  0.00000  0.11114
      27     H     0.45288  0.45288  0.00000  0.09424

   Total alpha = 37.00000, Total beta = 37.00000, Total charge = -0.00000

*** Psi4 exiting successfully. Buy a developer a beer!
