  ==> Input File <==

--------------------------------------------------------------------------
set {
	reference rhf
	basis 6-31G*
}

set_num_threads( 1 )
memory 2 gb

molecule MOL {
0 1

H	 -1.515081	 -0.248720	 -0.153545
N	 -0.626943	 -0.667432	 -0.000092
C	 -0.571943	 -2.096309	 0.209676
C	 0.469286	 0.129090	 0.000148
H	 -1.146986	 -2.382992	 1.083830
H	 0.458073	 -2.375155	 0.361467
H	 -0.958217	 -2.630985	 -0.651686
C	 1.788933	 -0.616240	 -0.000037
O	 0.411098	 1.327768	 -0.000049
H	 1.872803	 -1.245775	 -0.880381
H	 2.595421	 0.101576	 0.003713
H	 1.870096	 -1.252171	 0.875943

	symmetry c1
}
set optking {
	frozen_dihedral = ("
		4 2 3 5
	")
}

ee = energy('scf')
oeprop('DIPOLE', 'QUADRUPOLE', 'MULLIKEN_CHARGES')
f=open( 'psi4out.xyz', 'w' )
f.write( "12  " )
f.write( str(ee) + "\n" )
f.write( MOL.save_string_xyz() )
f.close()
--------------------------------------------------------------------------

    Molecular point group: c1

    Geometry (in Angstrom), charge = 0, multiplicity = 1:

       Center              X                  Y                   Z               Mass
    ------------   -----------------  -----------------  -----------------  -----------------
           H         -1.805728762256     0.151303359335    -0.196797515904     1.007825032070
           N         -0.917590762256    -0.267408640665    -0.043344515904    14.003074004780
           C         -0.862590762256    -1.696285640665     0.166423484096    12.000000000000
           C          0.178638237744     0.529113359335    -0.043104515904    12.000000000000
           H         -1.437633762256    -1.982968640665     1.040577484096     1.007825032070
           H          0.167425237744    -1.975131640665     0.318214484096     1.007825032070
           H         -1.248864762256    -2.230961640665    -0.694938515904     1.007825032070
           C          1.498285237744    -0.216216640665    -0.043289515904    12.000000000000
           O          0.120450237744     1.727791359335    -0.043301515904    15.994914619560
           H          1.582155237744    -0.845751640665    -0.923633515904     1.007825032070
           H          2.304773237744     0.501599359335    -0.039539515904     1.007825032070
           H          1.579448237744    -0.852147640665     0.832690484096     1.007825032070

  Charge       = 0
  Multiplicity = 1
  Basis Set: 6-31G*
  Basis Set:

    Orbital Energies (a.u.)
    -----------------------

    Doubly Occupied:

       1A    -20.515008     2A    -15.580645     3A    -11.343921
       4A    -11.268134     5A    -11.229737     6A     -1.382388
       7A     -1.233789     8A     -1.005747     9A     -0.957202
      10A     -0.789513    11A     -0.675133    12A     -0.667497
      13A     -0.641116    14A     -0.590043    15A     -0.578595
      16A     -0.568717    17A     -0.547278    18A     -0.511792
      19A     -0.410868    20A     -0.382842

  @DF-RHF Final Energy:  -246.99473969011746

   => Energetics <=

    Nuclear Repulsion Energy =            182.4467391264304297
    One-Electron Energy =                -697.1229210678543495
    Two-Electron Energy =                 267.6814422513059526
    DFT Exchange-Correlation Energy =       0.0000000000000000
    Empirical Dispersion Energy =           0.0000000000000000
    PCM Polarization Energy =               0.0000000000000000
    EFP Energy =                            0.0000000000000000
    Total Energy =                       -246.9947396901179673

  Mulliken Charges: (a.u.)
   Center  Symbol    Alpha    Beta     Spin     Total
       1     H     0.30515  0.30515  0.00000  0.38969
       2     N     3.88808  3.88808  0.00000 -0.77616
       3     C     3.14001  3.14001  0.00000 -0.28003
       4     C     2.62577  2.62577  0.00000  0.74846
       5     H     0.41086  0.41086  0.00000  0.17827
       6     H     0.40613  0.40613  0.00000  0.18774
       7     H     0.41319  0.41319  0.00000  0.17362
       8     C     3.30977  3.30977  0.00000 -0.61954
       9     O     4.29999  4.29999  0.00000 -0.59998
      10     H     0.40461  0.40461  0.00000  0.19078
      11     H     0.38998  0.38998  0.00000  0.22004
      12     H     0.40645  0.40645  0.00000  0.18710

   Total alpha = 20.00000, Total beta = 20.00000, Total charge = -0.00000
