  ==> Input File <==

--------------------------------------------------------------------------
set {
	reference rhf
	basis 6-31G*
}

set_num_threads( 1 )
memory 2 gb

molecule MOL {
0 1

H	 -3.273446	 0.118016	 0.353723
C	 -2.747413	 -0.063784	 -0.581360
O	 -1.392607	 -0.295399	 -0.366433
H	 -3.159262	 -0.947679	 -1.048534
H	 -2.908694	 0.789107	 -1.239382
C	 -0.719715	 0.768384	 0.229244
C	 0.719720	 0.768376	 -0.229267
H	 -1.185038	 1.714362	 -0.050570
H	 -0.750528	 0.687237	 1.313896
O	 1.392611	 -0.295398	 0.366430
H	 0.750534	 0.687200	 -1.313918
H	 1.185043	 1.714359	 0.050526
C	 2.706965	 -0.449871	 -0.062409
H	 2.756559	 -0.644779	 -1.131878
H	 3.305899	 0.433456	 0.155466
H	 3.125548	 -1.294566	 0.467107

	symmetry c1
}
set optking {
	frozen_dihedral = ("
		3 6 7 11,
		7 10 13 14
	")
}

ee = energy('scf')
oeprop('DIPOLE', 'QUADRUPOLE', 'MULLIKEN_CHARGES')
f=open( 'psi4out.xyz', 'w' )
f.write( "16  " )
f.write( str(ee) + "\n" )
f.write( MOL.save_string_xyz() )
f.close()
--------------------------------------------------------------------------

    Molecular point group: c1

    Geometry (in Angstrom), charge = 0, multiplicity = 1:

       Center              X                  Y                   Z               Mass
    ------------   -----------------  -----------------  -----------------  -----------------
           H         -3.266342070772     0.050181653570     0.466840066570     1.007825032070
           C         -2.740309070772    -0.131618346430    -0.468242933430    12.000000000000
           O         -1.385503070772    -0.363233346430    -0.253315933430    15.994914619560
           H         -3.152158070772    -1.015513346430    -0.935416933430     1.007825032070
           H         -2.901590070772     0.721272653570    -1.126264933430     1.007825032070
           C         -0.712611070772     0.700549653570     0.342361066570    12.000000000000
           C          0.726823929228     0.700541653570    -0.116149933430    12.000000000000
           H         -1.177934070772     1.646527653570     0.062547066570     1.007825032070
           H         -0.743424070772     0.619402653570     1.427013066570     1.007825032070
           O          1.399714929228    -0.363232346430     0.479547066570    15.994914619560
           H          0.757637929228     0.619365653570    -1.200800933430     1.007825032070
           H          1.192146929228     1.646524653570     0.163643066570     1.007825032070
           C          2.714068929228    -0.517705346430     0.050708066570    12.000000000000
           H          2.763662929228    -0.712613346430    -1.018760933430     1.007825032070
           H          3.313002929228     0.365621653570     0.268583066570     1.007825032070
           H          3.132651929228    -1.362400346430     0.580224066570     1.007825032070

  Charge       = 0
  Multiplicity = 1
  Basis Set: 6-31G*
  Basis Set:

    Orbital Energies (a.u.)
    -----------------------

    Doubly Occupied:

       1A    -20.553316     2A    -20.552775     3A    -11.268612
       4A    -11.267769     5A    -11.265060     6A    -11.263173
       7A     -1.388215     8A     -1.370730     9A     -1.030315
      10A     -0.936231    11A     -0.893842    12A     -0.823384
      13A     -0.685954    14A     -0.678306    15A     -0.657243
      16A     -0.637744    17A     -0.626775    18A     -0.598567
      19A     -0.555861    20A     -0.530438    21A     -0.507680
      22A     -0.475563    23A     -0.469724    24A     -0.418508
      25A     -0.408008

  @DF-RHF Final Energy:  -306.97521586891793

   => Energetics <=

    Nuclear Repulsion Energy =            258.6638162010092969
    One-Electron Energy =                -931.5504055437381794
    Two-Electron Energy =                 365.9113734738110111
    DFT Exchange-Correlation Energy =       0.0000000000000000
    Empirical Dispersion Energy =           0.0000000000000000
    PCM Polarization Energy =               0.0000000000000000
    EFP Energy =                            0.0000000000000000
    Total Energy =                       -306.9752158689179282

  Mulliken Charges: (a.u.)
   Center  Symbol    Alpha    Beta     Spin     Total
       1     H     0.42942  0.42942  0.00000  0.14117
       2     C     3.08077  3.08077  0.00000 -0.16153
       3     O     4.29983  4.29983  0.00000 -0.59965
       4     H     0.41139  0.41139  0.00000  0.17721
       5     H     0.43115  0.43115  0.00000  0.13770
       6     C     2.99476  2.99476  0.00000  0.01047
       7     C     2.99094  2.99094  0.00000  0.01812
       8     H     0.43265  0.43265  0.00000  0.13471
       9     H     0.41881  0.41881  0.00000  0.16237
      10     O     4.30075  4.30075  0.00000 -0.60151
      11     H     0.42503  0.42503  0.00000  0.14994
      12     H     0.43369  0.43369  0.00000  0.13263
      13     C     3.07935  3.07935  0.00000 -0.15871
      14     H     0.42840  0.42840  0.00000  0.14320
      15     H     0.43199  0.43199  0.00000  0.13602
      16     H     0.41107  0.41107  0.00000  0.17786

   Total alpha = 25.00000, Total beta = 25.00000, Total charge =  0.00000
