  ==> Input File <==

--------------------------------------------------------------------------
set {
	reference rhf
	basis 6-31G*
}

set_num_threads( 4 )
memory 2 gb

molecule MOL {
0 1

O	 -0.682937	 1.318834	 -0.186099
C	 -0.860635	 0.152188	 -0.042321
C	 -2.173363	 -0.477127	 0.338347
O	 0.083258	 -0.765189	 -0.202595
H	 -2.477673	 -1.180929	 -0.427595
H	 -2.923125	 0.290956	 0.455536
H	 -2.058825	 -1.029004	 1.264191
C	 1.391937	 -0.334737	 -0.569838
C	 1.342590	 0.840873	 -1.528041
H	 1.932320	 -1.166131	 -0.996349
H	 1.856851	 -0.053802	 0.364201
H	 2.349631	 1.193369	 -1.728902
H	 0.889128	 0.553491	 -2.468334
H	 0.774447	 1.659113	 -1.098959

	symmetry c1
}
set optking {
	frozen_dihedral = ("
		10 8 4 2
	")
}

ee = optimize('scf')
oeprop('DIPOLE', 'QUADRUPOLE', 'MULLIKEN_CHARGES')
f=open( 'psi4out.xyz', 'w' )
f.write( "14  " )
f.write( str(ee) + "\n" )
f.write( MOL.save_string_xyz() )
f.close()
--------------------------------------------------------------------------

    Molecular point group: c1
  Charge       = 0
  Multiplicity = 1
  Basis Set: 6-31G*
  Basis Set:
  @DF-RHF Final Energy:  -305.84900299676019
    Total Energy =                       -305.8490029967603050
    Molecular point group: c1
  Basis Set: 6-31G*
  Basis Set:
  Basis Set: 6-31G*
  Basis Set:
  @DF-RHF Final Energy:  -305.86536157816181
    Total Energy =                       -305.8653615781618100
  Basis Set: 6-31G*
  Basis Set:
  Basis Set: 6-31G*
  Basis Set:
  @DF-RHF Final Energy:  -305.86834840260190
    Total Energy =                       -305.8683484026019528
  Basis Set: 6-31G*
  Basis Set:
  Basis Set: 6-31G*
  Basis Set:
  @DF-RHF Final Energy:  -305.86522647958691
    Total Energy =                       -305.8652264795869087
  Basis Set: 6-31G*
  Basis Set:
  @DF-RHF Final Energy:  -305.86905468575173
    Total Energy =                       -305.8690546857516210
  Basis Set: 6-31G*
  Basis Set:
  @DF-RHF Final Energy:  -305.86916279973946
    Total Energy =                       -305.8691627997393425
  Basis Set: 6-31G*
  Basis Set:
  Basis Set: 6-31G*
  Basis Set:
  @DF-RHF Final Energy:  -305.86917372478223
    Total Energy =                       -305.8691737247822857
  Basis Set: 6-31G*
  Basis Set:
  Basis Set: 6-31G*
  Basis Set:
  @DF-RHF Final Energy:  -305.86917500625646
    Total Energy =                       -305.8691750062565688
  Basis Set: 6-31G*
  Basis Set:
  Charge       = 0
  Multiplicity = 1
  Basis Set: 6-31G*
  Basis Set:

    Orbital Energies (a.u.)
    -----------------------

    Doubly Occupied:

       1A    -20.600160     2A    -20.542934     3A    -11.375632
       4A    -11.290081     5A    -11.231864     6A    -11.215992
       7A     -1.464038     8A     -1.362569     9A     -1.054725
      10A     -0.997415    11A     -0.889772    12A     -0.752405
      13A     -0.696265    14A     -0.680301    15A     -0.664092
      16A     -0.615017    17A     -0.586633    18A     -0.569871
      19A     -0.549818    20A     -0.531694    21A     -0.511912
      22A     -0.496187    23A     -0.450050    24A     -0.432191

  @DF-RHF Final Energy:  -305.86917557144272

   => Energetics <=

    Nuclear Repulsion Energy =            249.5359802540730527
    One-Electron Energy =                -911.6870753748714833
    Two-Electron Energy =                 356.2819195493557345
    DFT Exchange-Correlation Energy =       0.0000000000000000
    Empirical Dispersion Energy =           0.0000000000000000
    PCM Polarization Energy =               0.0000000000000000
    EFP Energy =                            0.0000000000000000
    Total Energy =                       -305.8691755714427245
    Molecular point group: c1
  Basis Set: 6-31G*
  Basis Set:

  -Total Gradient:
     Atom            X                  Y                   Z
    ------   -----------------  -----------------  -----------------
       1       -0.000008012777     0.000011257720     0.000017022551
       2       -0.001640048527    -0.000663930032    -0.005842187213
       3       -0.000025327832    -0.000009571890    -0.000087666349
       4        0.002110367615     0.001232163416     0.007816605876
       5        0.000004505392    -0.000016232065     0.000018732729
       6        0.000004831402     0.000005569145     0.000004305300
       7        0.000008060224     0.000014395640     0.000029525680
       8        0.001908179272    -0.002042054881     0.003940131719
       9       -0.000008107740     0.000007704008     0.000002011264
      10       -0.002370834956     0.001427640037    -0.005890796940
      11       -0.000011840440     0.000003427128    -0.000007892881
      12        0.000012264676     0.000006594921    -0.000012372442
      13        0.000018338757     0.000005951477     0.000024869134
      14       -0.000002375067     0.000017085373    -0.000012288429

  **** Optimization is complete! (in 9 steps) ****
    Final optimized geometry and variables:
    Molecular point group: c1

    Geometry (in Angstrom), charge = 0, multiplicity = 1:

    O           -0.639557076813     1.211132698156     0.411348049169
    C           -0.747515035484     0.028177116169     0.382527599921
    C           -2.040685489843    -0.714974497013     0.590806670406
    O            0.254703172900    -0.817016917465     0.193199663965
    H           -2.267648223961    -1.308671971289    -0.287215077155
    H           -2.837113583925    -0.010165628065     0.777577415656
    H           -1.941119358620    -1.394571311432     1.429173903804
    C            1.553651165046    -0.388533874020    -0.218673986815
    C            1.588587201033     0.662911385783    -1.320098032570
    H            1.990643689997    -1.291724499086    -0.618909355424
    H            2.105633478272    -0.067517996755     0.654449792148
    H            2.607835785175     0.723650821852    -1.690996028274
    H            0.952424105849     0.366921986639    -2.148126964780
    H            1.281786926524     1.637787882710    -0.977994193551

  Mulliken Charges: (a.u.)
   Center  Symbol    Alpha    Beta     Spin     Total
       1     O     4.28344  4.28344  0.00000 -0.56687
       2     C     2.61745  2.61745  0.00000  0.76510
       3     C     3.28116  3.28116  0.00000 -0.56231
       4     O     4.31321  4.31321  0.00000 -0.62641
       5     H     0.40191  0.40191  0.00000  0.19618
       6     H     0.39765  0.39765  0.00000  0.20470
       7     H     0.40015  0.40015  0.00000  0.19969
       8     C     2.99408  2.99408  0.00000  0.01184
       9     C     3.26350  3.26350  0.00000 -0.52700
      10     H     0.41013  0.41013  0.00000  0.17974
      11     H     0.41182  0.41182  0.00000  0.17637
      12     H     0.41896  0.41896  0.00000  0.16208
      13     H     0.41654  0.41654  0.00000  0.16691
      14     H     0.39001  0.39001  0.00000  0.21998

   Total alpha = 24.00000, Total beta = 24.00000, Total charge =  0.00000
