  ==> Input File <==

--------------------------------------------------------------------------
set {
	reference rhf
	basis 6-31G*
}

set_num_threads( 4 )
memory 2 gb

molecule MOL {
0 1

H	 -3.420663	 1.227371	 -1.044276
O	 -3.452007	 0.283848	 -0.965577
C	 -3.181085	 -0.079926	 0.364119
C	 -1.765924	 0.277073	 0.805136
H	 -3.327791	 -1.152017	 0.410903
H	 -3.905698	 0.375695	 1.036898
C	 -0.677594	 -0.417312	 -0.014550
H	 -1.637766	 1.358238	 0.744969
H	 -1.659588	 0.017670	 1.857098
C	 0.738335	 -0.034840	 0.421385
H	 -0.814977	 -0.178223	 -1.064632
H	 -0.802730	 -1.495410	 0.071702
C	 1.543395	 -1.230394	 0.937731
H	 1.254268	 0.426018	 -0.417568
H	 0.684665	 0.724091	 1.200967
C	 2.938643	 -0.882868	 1.469393
H	 1.636253	 -1.970835	 0.144749
H	 0.980243	 -1.710549	 1.735307
C	 3.912302	 -0.364833	 0.409189
H	 3.363931	 -1.772646	 1.927339
H	 2.846979	 -0.147005	 2.265827
H	 4.014356	 -1.075246	 -0.406922
H	 4.898705	 -0.208624	 0.835153
H	 3.587926	 0.580298	 -0.013507

	symmetry c1
}
set optking {
	frozen_dihedral = ("
		13 10 7 11
	")
}

ee = optimize('scf')
oeprop('DIPOLE', 'QUADRUPOLE', 'MULLIKEN_CHARGES')
f=open( 'psi4out.xyz', 'w' )
f.write( "24  " )
f.write( str(ee) + "\n" )
f.write( MOL.save_string_xyz() )
f.close()
--------------------------------------------------------------------------

    Molecular point group: c1
  Charge       = 0
  Multiplicity = 1
  Basis Set: 6-31G*
  Basis Set:
  @DF-RHF Final Energy:  -349.24188617531865
    Total Energy =                       -349.2418861753188821
    Molecular point group: c1
  Basis Set: 6-31G*
  Basis Set:
  Basis Set: 6-31G*
  Basis Set:
  @DF-RHF Final Energy:  -349.24210638269483
    Total Energy =                       -349.2421063826948284
  Basis Set: 6-31G*
  Basis Set:
  Basis Set: 6-31G*
  Basis Set:
  @DF-RHF Final Energy:  -349.24218254685746
    Total Energy =                       -349.2421825468576912
  Basis Set: 6-31G*
  Basis Set:
  Basis Set: 6-31G*
  Basis Set:
  @DF-RHF Final Energy:  -349.24216947660307
    Total Energy =                       -349.2421694766030669
  Basis Set: 6-31G*
  Basis Set:
  Basis Set: 6-31G*
  Basis Set:
  @DF-RHF Final Energy:  -349.24218325557217
    Total Energy =                       -349.2421832555721153
  Basis Set: 6-31G*
  Basis Set:
  Basis Set: 6-31G*
  Basis Set:
  @DF-RHF Final Energy:  -349.24218439797363
    Total Energy =                       -349.2421843979736877
  Basis Set: 6-31G*
  Basis Set:
  Charge       = 0
  Multiplicity = 1
  Basis Set: 6-31G*
  Basis Set:

    Orbital Energies (a.u.)
    -----------------------

    Doubly Occupied:

       1A    -20.553555     2A    -11.267460     3A    -11.217881
       4A    -11.214252     5A    -11.212811     6A    -11.211883
       7A    -11.210759     8A    -11.207369     9A     -1.360089
      10A     -1.087071    11A     -1.047734    12A     -0.984317
      13A     -0.914831    14A     -0.851715    15A     -0.801812
      16A     -0.776662    17A     -0.679342    18A     -0.648805
      19A     -0.624585    20A     -0.620140    21A     -0.594827
      22A     -0.578883    23A     -0.571285    24A     -0.529961
      25A     -0.524568    26A     -0.511145    27A     -0.490745
      28A     -0.481836    29A     -0.466001    30A     -0.459254
      31A     -0.456045    32A     -0.440453    33A     -0.420749

  @DF-RHF Final Energy:  -349.24218448176254

   => Energetics <=

    Nuclear Repulsion Energy =            384.4422815039694683
    One-Electron Energy =               -1235.3312758620741079
    Two-Electron Energy =                 501.6468098763420471
    DFT Exchange-Correlation Energy =       0.0000000000000000
    Empirical Dispersion Energy =           0.0000000000000000
    PCM Polarization Energy =               0.0000000000000000
    EFP Energy =                            0.0000000000000000
    Total Energy =                       -349.2421844817625356
    Molecular point group: c1
  Basis Set: 6-31G*
  Basis Set:

  -Total Gradient:
     Atom            X                  Y                   Z
    ------   -----------------  -----------------  -----------------
       1       -0.000000070375    -0.000000445560    -0.000004103027
       2        0.000011494612     0.000010924768    -0.000007498654
       3        0.000002368782    -0.000003888644    -0.000001220471
       4       -0.000022817678     0.000000140093     0.000008336209
       5        0.000003816564    -0.000004545532     0.000012335076
       6        0.000013306179     0.000002666040     0.000003427633
       7       -0.000115181272     0.000342265280     0.000014093183
       8       -0.000007521749     0.000002676065     0.000002161224
       9       -0.000006494217    -0.000001274664     0.000005708134
      10       -0.000057463763    -0.000001617412     0.000263121752
      11        0.000098144514    -0.000304427322    -0.000085529866
      12       -0.000003778794     0.000001138560    -0.000005545945
      13        0.000090737640    -0.000053021959    -0.000208969637
      14        0.000005176077     0.000010142488     0.000006794350
      15        0.000009670633     0.000001452914    -0.000005676127
      16       -0.000012215166     0.000008015985     0.000010037494
      17        0.000007237465    -0.000002290638     0.000000269366
      18        0.000000096250    -0.000007819273     0.000003437483
      19       -0.000004782368    -0.000000737786    -0.000010148630
      20       -0.000013732535    -0.000001138268    -0.000007637226
      21        0.000000340089    -0.000000628205     0.000010070981
      22        0.000003603092     0.000001230432    -0.000000580205
      23       -0.000001587557     0.000001002741     0.000000943972
      24       -0.000000346423     0.000000179893    -0.000003827066

  **** Optimization is complete! (in 7 steps) ****
    Final optimized geometry and variables:
    Molecular point group: c1

    Geometry (in Angstrom), charge = 0, multiplicity = 1:

    H           -3.392946315764     1.500488656922    -1.450465480442
    O           -3.420497344332     0.557391091614    -1.365827927969
    C           -3.143186303478     0.202970670760    -0.034752939239
    C           -1.729222595254     0.571206947648     0.399229929281
    H           -3.283124984676    -0.869688774811     0.018665629613
    H           -3.868458082192     0.657932618941     0.637766779011
    C           -0.637630338067    -0.117271015424    -0.422936739807
    H           -1.607873300303     1.652930426620     0.335940942322
    H           -1.615115424060     0.315065832617     1.451507584541
    C            0.794825529554     0.257032167685     0.021656363819
    H           -0.784060867122     0.122183178880    -1.469833256496
    H           -0.774823799486    -1.193671951728    -0.344728640974
    C            1.598713095431    -0.941461149019     0.536394069637
    H            1.322385003480     0.720472321856    -0.805861920312
    H            0.752311139850     1.010104668963     0.806375856220
    C            2.993892920735    -0.598406154663     1.069575171175
    H            1.689269473209    -1.680353953388    -0.258273742467
    H            1.032513499731    -1.421914485255     1.332392743590
    C            3.970636960920    -0.083391361580     0.010544003372
    H            3.415805953102    -1.489626683690     1.527879748229
    H            2.903569502222     0.137650485632     1.866143104191
    H            4.070590767161    -0.793581239955    -0.805937747693
    H            4.957216290803     0.068313954056     0.437705093735
    H            3.650690906510     0.863244298539    -0.411930971259

  Mulliken Charges: (a.u.)
   Center  Symbol    Alpha    Beta     Spin     Total
       1     H     0.28335  0.28335  0.00000  0.43330
       2     O     4.36831  4.36831  0.00000 -0.73662
       3     C     2.99679  2.99679  0.00000  0.00642
       4     C     3.17059  3.17059  0.00000 -0.34118
       5     H     0.41627  0.41627  0.00000  0.16747
       6     H     0.42819  0.42819  0.00000  0.14361
       7     C     3.15587  3.15587  0.00000 -0.31175
       8     H     0.42766  0.42766  0.00000  0.14467
       9     H     0.42244  0.42244  0.00000  0.15513
      10     C     3.15719  3.15719  0.00000 -0.31438
      11     H     0.40952  0.40952  0.00000  0.18096
      12     H     0.42077  0.42077  0.00000  0.15847
      13     C     3.15401  3.15401  0.00000 -0.30802
      14     H     0.41857  0.41857  0.00000  0.16286
      15     H     0.42323  0.42323  0.00000  0.15355
      16     C     3.15295  3.15295  0.00000 -0.30590
      17     H     0.42294  0.42294  0.00000  0.15412
      18     H     0.42338  0.42338  0.00000  0.15324
      19     C     3.24102  3.24102  0.00000 -0.48204
      20     H     0.42120  0.42120  0.00000  0.15761
      21     H     0.42394  0.42394  0.00000  0.15213
      22     H     0.42195  0.42195  0.00000  0.15609
      23     H     0.41955  0.41955  0.00000  0.16090
      24     H     0.42032  0.42032  0.00000  0.15936

   Total alpha = 33.00000, Total beta = 33.00000, Total charge =  0.00000
