                              Psi4 1.0.54 Driver

  ==> Input File <==

--------------------------------------------------------------------------
set {
	reference rhf
	basis cc-pvtz
}

set_num_threads( 4 )
memory 2 gb

molecule MOL {
0 1

H	 -3.443572	 -0.176601	 -0.001656
O	 -2.659113	 -0.704181	 -0.000460
C	 -1.605662	 0.107714	 0.001145
C	 -0.310881	 -0.658819	 0.000791
O	 -1.718616	 1.284663	 -0.000627
C	 0.926316	 0.227267	 0.000178
H	 -0.327893	 -1.313647	 -0.864448
H	 -0.327306	 -1.313300	 0.866298
C	 2.219891	 -0.582037	 -0.000088
H	 0.899680	 0.878255	 -0.866390
H	 0.900277	 0.878615	 0.866486
C	 3.466424	 0.296046	 -0.000457
H	 2.238808	 -1.234061	 -0.869382
H	 2.239240	 -1.233951	 0.869270
H	 3.493284	 0.935891	 -0.875887
H	 4.368556	 -0.304492	 -0.001199
H	 3.494294	 0.935200	 0.875458

	symmetry c1
}
ee,wfn = energy('scf', return_wfn=True)
oeprop( wfn, 'DIPOLE', 'QUADRUPOLE', 'MULLIKEN_CHARGES')
oeprop( wfn, 'GRID_ESP')
f=open( 'psi4out.xyz', 'w' )
f.write( "17  " )
f.write( str(ee) + "\n" )
f.write( MOL.save_string_xyz() )
f.close()
--------------------------------------------------------------------------

    Molecular point group: c1

    Geometry (in Angstrom), charge = 0, multiplicity = 1:

       Center              X                  Y                   Z               Mass
    ------------   -----------------  -----------------  -----------------  -----------------
           H         -3.443306854481    -0.176635067004    -0.001655805831     1.007825032070
           O         -2.658847854481    -0.704215067004    -0.000459805831    15.994914619560
           C         -1.605396854481     0.107679932996     0.001145194169    12.000000000000
           C         -0.310615854481    -0.658853067004     0.000791194169    12.000000000000
           O         -1.718350854481     1.284628932996    -0.000626805831    15.994914619560
           C          0.926581145519     0.227232932996     0.000178194169    12.000000000000
           H         -0.327627854481    -1.313681067004    -0.864447805831     1.007825032070
           H         -0.327040854481    -1.313334067004     0.866298194169     1.007825032070
           C          2.220156145519    -0.582071067004    -0.000087805831    12.000000000000
           H          0.899945145519     0.878220932996    -0.866389805831     1.007825032070
           H          0.900542145519     0.878580932996     0.866486194169     1.007825032070
           C          3.466689145519     0.296011932996    -0.000456805831    12.000000000000
           H          2.239073145519    -1.234095067004    -0.869381805831     1.007825032070
           H          2.239505145519    -1.233985067004     0.869270194169     1.007825032070
           H          3.493549145519     0.935856932996    -0.875886805831     1.007825032070
           H          4.368821145519    -0.304526067004    -0.001198805831     1.007825032070
           H          3.494559145519     0.935165932996     0.875458194169     1.007825032070

  Charge       = 0
  Multiplicity = 1
  Basis Set: CC-PVTZ
  Basis Set:

    Orbital Energies (a.u.)
    -----------------------

    Doubly Occupied:

       1A    -20.604150     2A    -20.540699     3A    -11.373693
       4A    -11.239398     5A    -11.221356     6A    -11.220720
       7A    -11.210706     8A     -1.477723     9A     -1.369239
      10A     -1.092925    11A     -1.019865    12A     -0.914947
      13A     -0.825018    14A     -0.791085    15A     -0.703943
      16A     -0.688129    17A     -0.672246    18A     -0.631397
      19A     -0.593371    20A     -0.585359    21A     -0.574706
      22A     -0.538681    23A     -0.509233    24A     -0.484750
      25A     -0.483032    26A     -0.478488    27A     -0.472644
      28A     -0.446331

  @DF-RHF Final Energy:  -345.04893055711375

   => Energetics <=

    Nuclear Repulsion Energy =            304.7923254012461030
    One-Electron Energy =               -1074.1545402092890527
    Two-Electron Energy =                 424.3132842509295415
    DFT Exchange-Correlation Energy =       0.0000000000000000
    Empirical Dispersion Energy =           0.0000000000000000
    PCM Polarization Energy =               0.0000000000000000
    EFP Energy =                            0.0000000000000000
    Total Energy =                       -345.0489305571134082

  Mulliken Charges: (a.u.)
   Center  Symbol    Alpha    Beta     Spin     Total
       1     H     0.38244  0.38244  0.00000  0.23512
       2     O     4.15973  4.15973  0.00000 -0.31947
       3     C     2.80468  2.80468  0.00000  0.39063
       4     C     3.11091  3.11091  0.00000 -0.22181
       5     O     4.19114  4.19114  0.00000 -0.38228
       6     C     3.08200  3.08200  0.00000 -0.16399
       7     H     0.43813  0.43813  0.00000  0.12374
       8     H     0.43821  0.43821  0.00000  0.12359
       9     C     3.08605  3.08605  0.00000 -0.17210
      10     H     0.44622  0.44622  0.00000  0.10755
      11     H     0.44626  0.44626  0.00000  0.10749
      12     C     3.14924  3.14924  0.00000 -0.29849
      13     H     0.45484  0.45484  0.00000  0.09032
      14     H     0.45484  0.45484  0.00000  0.09032
      15     H     0.45366  0.45366  0.00000  0.09269
      16     H     0.44800  0.44800  0.00000  0.10399
      17     H     0.45366  0.45366  0.00000  0.09269

   Total alpha = 28.00000, Total beta = 28.00000, Total charge = -0.00000

*** Psi4 exiting successfully. Buy a developer a beer!
