  ==> Input File <==

--------------------------------------------------------------------------
set {
	reference rhf
	basis 6-31G*
}

set_num_threads( 4 )
memory 2 gb

molecule MOL {
0 1

H	 2.223544	 -0.275561	 -0.581995
O	 1.586534	 -0.678666	 -0.000226
C	 0.489431	 0.077273	 0.000046
C	 -0.764129	 -0.759190	 0.000191
O	 0.537743	 1.263962	 0.000257
C	 -2.038368	 0.075731	 -0.000248
H	 -0.717284	 -1.412404	 -0.866059
H	 -0.717458	 -1.411724	 0.866967
H	 -2.086483	 0.712501	 -0.875098
H	 -2.908485	 -0.571682	 -0.000042
H	 -2.086576	 0.713280	 0.874068

	symmetry c1
}
set optking {
	frozen_dihedral = ("
		1 2 3 5
	")
}

ee = optimize('scf')
oeprop('DIPOLE', 'QUADRUPOLE', 'MULLIKEN_CHARGES')
f=open( 'psi4out.xyz', 'w' )
f.write( "11  " )
f.write( str(ee) + "\n" )
f.write( MOL.save_string_xyz() )
f.close()
--------------------------------------------------------------------------

    Molecular point group: c1
  Charge       = 0
  Multiplicity = 1
  Basis Set: 6-31G*
  Basis Set:
  @DF-RHF Final Energy:  -266.83717962578010
    Total Energy =                       -266.8371796257798678
    Molecular point group: c1
  Basis Set: 6-31G*
  Basis Set:
  Basis Set: 6-31G*
  Basis Set:
  @DF-RHF Final Energy:  -266.83470075834703
    Total Energy =                       -266.8347007583470258
  Basis Set: 6-31G*
  Basis Set:
  Basis Set: 6-31G*
  Basis Set:
  @DF-RHF Final Energy:  -266.83794600993463
    Total Energy =                       -266.8379460099345124
  Basis Set: 6-31G*
  Basis Set:
  Basis Set: 6-31G*
  Basis Set:
  @DF-RHF Final Energy:  -266.83800552101184
    Total Energy =                       -266.8380055210116097
  Basis Set: 6-31G*
  Basis Set:
  Basis Set: 6-31G*
  Basis Set:
  @DF-RHF Final Energy:  -266.83801224419091
    Total Energy =                       -266.8380122441907361
  Basis Set: 6-31G*
  Basis Set:
  Basis Set: 6-31G*
  Basis Set:
  @DF-RHF Final Energy:  -266.83801339815648
    Total Energy =                       -266.8380133981565905
  Basis Set: 6-31G*
  Basis Set:
  Charge       = 0
  Multiplicity = 1
  Basis Set: 6-31G*
  Basis Set:

    Orbital Energies (a.u.)
    -----------------------

    Doubly Occupied:

       1A    -20.606855     2A    -20.556471     3A    -11.382201
       4A    -11.243627     5A    -11.220074     6A     -1.469092
       7A     -1.367926     8A     -1.064146     9A     -0.914777
      10A     -0.802108    11A     -0.704639    12A     -0.685748
      13A     -0.659133    14A     -0.606839    15A     -0.577561
      16A     -0.527987    17A     -0.525703    18A     -0.504747
      19A     -0.482387    20A     -0.445619

  @DF-RHF Final Energy:  -266.83801359392282

   => Energetics <=

    Nuclear Repulsion Energy =            179.4683701253461265
    One-Electron Energy =                -719.9174888504799128
    Two-Electron Energy =                 273.6111051312108771
    DFT Exchange-Correlation Energy =       0.0000000000000000
    Empirical Dispersion Energy =           0.0000000000000000
    PCM Polarization Energy =               0.0000000000000000
    EFP Energy =                            0.0000000000000000
    Total Energy =                       -266.8380135939228808
    Molecular point group: c1
  Basis Set: 6-31G*
  Basis Set:

  -Total Gradient:
     Atom            X                  Y                   Z
    ------   -----------------  -----------------  -----------------
       1       -0.003473378158    -0.006386622218    -0.009080118057
       2        0.003983879721     0.007912992349     0.016168437289
       3        0.000415089959    -0.001840884112    -0.017534274295
       4       -0.000008507231    -0.000040244097    -0.000007404891
       5       -0.000926862906     0.000320562655     0.010429478789
       6        0.000011806322     0.000015354757    -0.000002018582
       7        0.000011167071    -0.000022474553     0.000009249446
       8       -0.000018085217     0.000039464269     0.000012495465
       9       -0.000001199679     0.000001566283    -0.000001046213
      10        0.000011750103    -0.000005282335     0.000001160626
      11       -0.000005659985     0.000005567000     0.000004040424

  **** Optimization is complete! (in 7 steps) ****
    Final optimized geometry and variables:
    Molecular point group: c1

    Geometry (in Angstrom), charge = 0, multiplicity = 1:

    H            2.294552252860    -0.302273838601    -0.452459731448
    O            1.595891503499    -0.674069374646     0.074433819828
    C            0.490308327964     0.082534721626    -0.035750041780
    C           -0.762148768485    -0.754819771102    -0.002953926707
    O            0.529673427250     1.266431138825    -0.059400279160
    C           -2.039271427928     0.073821673593     0.044208343483
    H           -0.740242559127    -1.401583956518    -0.875821312136
    H           -0.683661031221    -1.416313942868     0.854685694476
    H           -2.115948371789     0.721684893417    -0.820441889710
    H           -2.906737221305    -0.576984039098     0.062102789875
    H           -2.064207918391     0.700060709914     0.927801598893

  Mulliken Charges: (a.u.)
   Center  Symbol    Alpha    Beta     Spin     Total
       1     H     0.26657  0.26657  0.00000  0.46685
       2     O     4.35716  4.35716  0.00000 -0.71431
       3     C     2.62927  2.62927  0.00000  0.74146
       4     C     3.20781  3.20781  0.00000 -0.41562
       5     O     4.26583  4.26583  0.00000 -0.53165
       6     C     3.23967  3.23967  0.00000 -0.47935
       7     H     0.40156  0.40156  0.00000  0.19689
       8     H     0.39684  0.39684  0.00000  0.20631
       9     H     0.40952  0.40952  0.00000  0.18096
      10     H     0.41683  0.41683  0.00000  0.16633
      11     H     0.40894  0.40894  0.00000  0.18213

   Total alpha = 20.00000, Total beta = 20.00000, Total charge = -0.00000
