                              Psi4 1.0.54 Driver

  ==> Input File <==

--------------------------------------------------------------------------
set {
	reference rhf
	basis cc-pvtz
}

set_num_threads( 4 )
memory 2 gb

molecule MOL {
0 1

H	 2.734230	 -1.701315	 -0.634282
O	 2.824271	 -1.154299	 0.131461
C	 2.076458	 -0.067370	 -0.038225
C	 0.626018	 -0.337582	 0.258241
O	 2.538288	 0.965419	 -0.381593
C	 -0.267326	 0.883135	 0.076490
H	 0.325620	 -1.161483	 -0.378003
H	 0.574537	 -0.713685	 1.275261
C	 -1.726822	 0.642622	 0.463839
H	 -0.210803	 1.217591	 -0.953497
H	 0.129920	 1.693110	 0.675679
C	 -2.480891	 -0.340606	 -0.429852
H	 -2.243098	 1.597649	 0.438609
H	 -1.776542	 0.301208	 1.495542
C	 -3.955933	 -0.460128	 -0.060472
H	 -2.393755	 -0.020485	 -1.464726
H	 -2.024244	 -1.323637	 -0.374360
H	 -4.467673	 -1.160944	 -0.709827
H	 -4.458917	 0.497287	 -0.144505
H	 -4.076458	 -0.806900	 0.960497

	symmetry c1
}
set optking {
	frozen_dihedral = ("
		1 2 3 5
	")
}

ee,wfn = optimize('scf', return_wfn=True)
oeprop( wfn, 'DIPOLE', 'QUADRUPOLE', 'MULLIKEN_CHARGES')
f=open( 'psi4out.xyz', 'w' )
f.write( "20  " )
f.write( str(ee) + "\n" )
f.write( MOL.save_string_xyz() )
f.close()
--------------------------------------------------------------------------

    Molecular point group: c1
  Charge       = 0
  Multiplicity = 1
  Basis Set: CC-PVTZ
  Basis Set:
  @DF-RHF Final Energy:  -384.07344802609737
    Total Energy =                       -384.0734480260972532
    Molecular point group: c1
  Basis Set: CC-PVTZ
  Basis Set:
  Basis Set: CC-PVTZ
  Basis Set:
  @DF-RHF Final Energy:  -384.07450878748847
    Total Energy =                       -384.0745087874881847
  Basis Set: CC-PVTZ
  Basis Set:
  Basis Set: CC-PVTZ
  Basis Set:
  @DF-RHF Final Energy:  -384.07501502881274
    Total Energy =                       -384.0750150288127429
  Basis Set: CC-PVTZ
  Basis Set:
  Basis Set: CC-PVTZ
  Basis Set:
  @DF-RHF Final Energy:  -384.07511557438323
    Total Energy =                       -384.0751155743836307
  Basis Set: CC-PVTZ
  Basis Set:
  Basis Set: CC-PVTZ
  Basis Set:
  @DF-RHF Final Energy:  -384.07511664721159
    Total Energy =                       -384.0751166472115301
  Basis Set: CC-PVTZ
  Basis Set:
  Charge       = 0
  Multiplicity = 1
  Basis Set: CC-PVTZ
  Basis Set:

    Orbital Energies (a.u.)
    -----------------------

    Doubly Occupied:

       1A    -20.586035     2A    -20.550129     3A    -11.373879
       4A    -11.242030     5A    -11.223249     6A    -11.221550
       7A    -11.220633     8A    -11.212857     9A     -1.463012
      10A     -1.370584    11A     -1.099245    12A     -1.042716
      13A     -0.960508    14A     -0.866795    15A     -0.820213
      16A     -0.785242    17A     -0.715594    18A     -0.676370
      19A     -0.667289    20A     -0.635473    21A     -0.618420
      22A     -0.589029    23A     -0.562461    24A     -0.560320
      25A     -0.528539    26A     -0.514921    27A     -0.504402
      28A     -0.495086    29A     -0.472999    30A     -0.468384
      31A     -0.460644    32A     -0.446067

  @DF-RHF Final Energy:  -384.07511668181706

   => Energetics <=

    Nuclear Repulsion Energy =            375.7617552976284401
    One-Electron Energy =               -1267.7643926948048829
    Two-Electron Energy =                 507.9275207153595488
    DFT Exchange-Correlation Energy =       0.0000000000000000
    Empirical Dispersion Energy =           0.0000000000000000
    PCM Polarization Energy =               0.0000000000000000
    EFP Energy =                            0.0000000000000000
    Total Energy =                       -384.0751166818168372
    Molecular point group: c1
  Basis Set: CC-PVTZ
  Basis Set:

  -Total Gradient:
     Atom            X                  Y                   Z
    ------   -----------------  -----------------  -----------------
       1        0.000660562963     0.000405420427    -0.000379039184
       2       -0.000893597780    -0.000585272683     0.000157802751
       3        0.000353570766     0.000335049040     0.000948197666
       4        0.000050259585     0.000023882115     0.000057823266
       5       -0.000116307967    -0.000194337905    -0.000714108135
       6       -0.000065084788    -0.000035567596    -0.000062131940
       7        0.000030758673     0.000030813864    -0.000002774589
       8        0.000015430442     0.000004276239    -0.000019788731
       9        0.000000383906     0.000007057865     0.000009700418
      10       -0.000005258825     0.000007782075    -0.000016735586
      11        0.000001663450    -0.000009224377     0.000007545360
      12        0.000000256532    -0.000004178962     0.000007097413
      13       -0.000011340537     0.000009907899     0.000014235544
      14        0.000010514200    -0.000016229312     0.000005775804
      15       -0.000003463480     0.000014498889    -0.000005914404
      16        0.000005242338    -0.000003988534    -0.000009646172
      17       -0.000028649338     0.000008253415     0.000005296448
      18       -0.000003258689     0.000001191737    -0.000004339184
      19       -0.000005342597     0.000002323272     0.000003419910
      20        0.000003661147    -0.000001657468    -0.000002416655

  **** Optimization is complete! (in 6 steps) ****
    Final optimized geometry and variables:
    Molecular point group: c1

    Geometry (in Angstrom), charge = 0, multiplicity = 1:

    H            2.873010484884    -1.734227778395    -0.553259375803
    O            2.870610728994    -1.162636947282     0.196414540519
    C            2.084334350774    -0.070370890537    -0.000707277179
    C            0.623112868479    -0.330012884114     0.260564650416
    O            2.547124137149     0.965356010306    -0.300462337789
    C           -0.266580936559     0.891015945738     0.065222872455
    H            0.325855090882    -1.153726025545    -0.380842250179
    H            0.552415446553    -0.711153045046     1.274818211843
    C           -1.732694762892     0.655189012921     0.430297511205
    H           -0.193607421272     1.226919523937    -0.963627272480
    H            0.124439569029     1.698862794778     0.671121552973
    C           -2.478025158585    -0.322229255202    -0.477148612365
    H           -2.244677325425     1.612328589304     0.400387214168
    H           -1.798704068229     0.311181192506     1.460151959093
    C           -3.958446199329    -0.438195488016    -0.128372660826
    H           -2.375802693064     0.001024164513    -1.509790628150
    H           -2.025785769184    -1.307346465424    -0.418577219939
    H           -4.463151831506    -1.137009800948    -0.785354193698
    H           -4.457474220417     0.520658402953    -0.218557756013
    H           -4.094016320027    -0.785369315363     0.890528327853

  Mulliken Charges: (a.u.)
   Center  Symbol    Alpha    Beta     Spin     Total
       1     H     0.38965  0.38965  0.00000  0.22070
       2     O     4.17315  4.17315  0.00000 -0.34630
       3     C     2.79745  2.79745  0.00000  0.40510
       4     C     3.11901  3.11901  0.00000 -0.23801
       5     O     4.16026  4.16026  0.00000 -0.32052
       6     C     3.09484  3.09484  0.00000 -0.18968
       7     H     0.44921  0.44921  0.00000  0.10159
       8     H     0.43565  0.43565  0.00000  0.12870
       9     C     3.09930  3.09930  0.00000 -0.19859
      10     H     0.44622  0.44622  0.00000  0.10757
      11     H     0.43737  0.43737  0.00000  0.12526
      12     C     3.08685  3.08685  0.00000 -0.17371
      13     H     0.44508  0.44508  0.00000  0.10983
      14     H     0.45318  0.45318  0.00000  0.09364
      15     C     3.14932  3.14932  0.00000 -0.29864
      16     H     0.45278  0.45278  0.00000  0.09444
      17     H     0.45525  0.45525  0.00000  0.08950
      18     H     0.44781  0.44781  0.00000  0.10438
      19     H     0.45316  0.45316  0.00000  0.09369
      20     H     0.45446  0.45446  0.00000  0.09108

   Total alpha = 32.00000, Total beta = 32.00000, Total charge =  0.00000

*** Psi4 exiting successfully. Buy a developer a beer!
