  ==> Input File <==

--------------------------------------------------------------------------
set {
	reference rhf
	basis cc-pvtz
}

set_num_threads( 4 )
memory 2 gb

molecule MOL {
0 1

H	 1.242809	 -4.218405	 -3.715074
C	 1.366664	 -3.468864	 -2.958131
C	 0.491072	 -3.401186	 -1.883612
C	 2.395299	 -2.559064	 -3.035904
H	 -0.317744	 -4.102850	 -1.806043
C	 0.646073	 -2.442479	 -0.911564
H	 3.082783	 -2.595640	 -3.859747
C	 2.566360	 -1.584265	 -2.062809
H	 -0.024843	 -2.381582	 -0.077398
C	 1.688395	 -1.525389	 -0.996137
H	 3.376802	 -0.890979	 -2.152256
O	 1.760432	 -0.625184	 0.000000
C	 2.773565	 0.334879	 0.000000
H	 2.728295	 0.960928	 -0.884150
H	 3.706387	 -0.206610	 0.000000
H	 2.728295	 0.960928	 0.884150

	symmetry c1
}
set optking {
	frozen_dihedral = ("
		10 12 13 14
	")
}

ee = optimize('scf')
oeprop('DIPOLE', 'QUADRUPOLE', 'MULLIKEN_CHARGES')
f=open( 'psi4out.xyz', 'w' )
f.write( "16  " )
f.write( str(ee) + "\n" )
f.write( MOL.save_string_xyz() )
f.close()
--------------------------------------------------------------------------

    Molecular point group: c1
  Charge       = 0
  Multiplicity = 1
  Basis Set: CC-PVTZ
  Basis Set:
  @DF-RHF Final Energy:  -344.70175879773018
    Total Energy =                       -344.7017587977299513
    Molecular point group: c1
  Basis Set: CC-PVTZ
  Basis Set:
  Basis Set: CC-PVTZ
  Basis Set:
  @DF-RHF Final Energy:  -344.70331626134498
    Total Energy =                       -344.7033162613448667
  Basis Set: CC-PVTZ
  Basis Set:
  Basis Set: CC-PVTZ
  Basis Set:
  @DF-RHF Final Energy:  -344.70375069376041
    Total Energy =                       -344.7037506937598437
  Basis Set: CC-PVTZ
  Basis Set:
  Basis Set: CC-PVTZ
  Basis Set:
  @DF-RHF Final Energy:  -344.70375353169976
    Total Energy =                       -344.7037535316993626
  Basis Set: CC-PVTZ
  Basis Set:
  Charge       = 0
  Multiplicity = 1
  Basis Set: CC-PVTZ
  Basis Set:

    Orbital Energies (a.u.)
    -----------------------

    Doubly Occupied:

       1A    -20.580681     2A    -11.293794     3A    -11.278586
       4A    -11.231226     5A    -11.229987     6A    -11.221803
       7A    -11.217965     8A    -11.216841     9A     -1.420200
      10A     -1.150943    11A     -1.025828    12A     -1.016629
      13A     -0.944430    14A     -0.834514    15A     -0.808290
      16A     -0.726432    17A     -0.667852    18A     -0.666350
      19A     -0.661228    20A     -0.619491    21A     -0.590121
      22A     -0.579386    23A     -0.528272    24A     -0.523824
      25A     -0.512485    26A     -0.478736    27A     -0.467915
      28A     -0.339781    29A     -0.309949

  @DF-RHF Final Energy:  -344.70375422884217

   => Energetics <=

    Nuclear Repulsion Energy =            348.9182189696027763
    One-Electron Energy =               -1158.9568687384069108
    Two-Electron Energy =                 465.3348955399619626
    DFT Exchange-Correlation Energy =       0.0000000000000000
    Empirical Dispersion Energy =           0.0000000000000000
    PCM Polarization Energy =               0.0000000000000000
    EFP Energy =                            0.0000000000000000
    Total Energy =                       -344.7037542288421719
    Molecular point group: c1
  Basis Set: CC-PVTZ
  Basis Set:

  -Total Gradient:
     Atom            X                  Y                   Z
    ------   -----------------  -----------------  -----------------
       1       -0.000000924868     0.000005754236    -0.000004015491
       2        0.000036957279    -0.000009682574     0.000003030712
       3       -0.000017025104     0.000030115816     0.000006790924
       4       -0.000014417450    -0.000009244091    -0.000019837673
       5        0.000004863628    -0.000000260867     0.000006689314
       6       -0.000028692374     0.000026377600    -0.000021305455
       7        0.000000214093     0.000001035124    -0.000003400138
       8       -0.000023666563     0.000021887324    -0.000009476043
       9        0.000001094373    -0.000002797030     0.000008157679
      10       -0.000000409485     0.000015032050    -0.000026692162
      11       -0.000005078252    -0.000006343191    -0.000007118906
      12        0.000176179157    -0.000089449563     0.000060344592
      13       -0.000183211440     0.000198765354     0.000123178628
      14        0.000079114321    -0.000139877616    -0.000100330431
      15       -0.000002545537    -0.000025035887    -0.000009840947
      16       -0.000022451773    -0.000016276683    -0.000006174601

  **** Optimization is complete! (in 5 steps) ****
    Final optimized geometry and variables:
    Molecular point group: c1

    Geometry (in Angstrom), charge = 0, multiplicity = 1:

    H           -0.520060218705    -2.373790974125    -2.296571724462
    C           -0.387775395719    -1.627782494843    -1.537552323986
    C           -1.258942911432    -1.557307834579    -0.459527776610
    C            0.647089583489    -0.725342347695    -1.616088982578
    H           -2.072585728039    -2.253305797775    -0.381352764932
    C           -1.093445442531    -0.603060855602     0.515019887721
    H            1.331367848303    -0.764187432076    -2.442500706850
    C            0.828927114540     0.244870396238    -0.640252907736
    H           -1.760827064350    -0.539957377433     1.351870077259
    C           -0.044667030051     0.306671611021     0.429737015851
    H            1.644599373106     0.931909663333    -0.730137830225
    O            0.037395206042     1.202520625928     1.429129300844
    C            1.046152239689     2.167154558257     1.419956414230
    H            0.985777262731     2.797188713113     0.539622428832
    H            2.030033872005     1.713673593598     1.467426037297
    H            0.895675152654     2.773934640673     2.298855989207

  Mulliken Charges: (a.u.)
   Center  Symbol    Alpha    Beta     Spin     Total
       1     H     0.42442  0.42442  0.00000  0.15116
       2     C     3.10100  3.10100  0.00000 -0.20199
       3     C     3.05794  3.05794  0.00000 -0.11588
       4     C     3.06155  3.06155  0.00000 -0.12309
       5     H     0.42300  0.42300  0.00000  0.15399
       6     C     3.11172  3.11172  0.00000 -0.22345
       7     H     0.42366  0.42366  0.00000  0.15269
       8     C     3.14418  3.14418  0.00000 -0.28836
       9     H     0.42100  0.42100  0.00000  0.15799
      10     C     2.84992  2.84992  0.00000  0.30015
      11     H     0.42254  0.42254  0.00000  0.15492
      12     O     4.15066  4.15066  0.00000 -0.30131
      13     C     3.04488  3.04488  0.00000 -0.08977
      14     H     0.46251  0.46251  0.00000  0.07497
      15     H     0.46230  0.46230  0.00000  0.07539
      16     H     0.43871  0.43871  0.00000  0.12257

   Total alpha = 29.00000, Total beta = 29.00000, Total charge = -0.00000
