                              Psi4 1.0.54 Driver

  ==> Input File <==

--------------------------------------------------------------------------
set {
	reference rhf
	basis cc-pvtz
}

set_num_threads( 4 )
memory 2 gb

molecule MOL {
0 1

H	 -0.000342	 -0.223902	 -3.352295
C	 -0.027146	 0.371068	 -2.446756
C	 0.024493	 -0.518541	 -1.216015
H	 -0.932586	 0.964979	 -2.449855
H	 0.819708	 1.049865	 -2.473332
N	 -0.042516	 0.263377	 0.000000
H	 -0.822211	 -1.197105	 -1.225584
H	 0.921114	 -1.142847	 -1.255206
C	 0.024493	 -0.518541	 1.216015
H	 0.682568	 0.950412	 0.000000
C	 1.422430	 -0.493504	 1.810942
H	 -0.677593	 -0.094630	 1.926525
H	 -0.285063	 -1.554892	 1.056721
H	 1.729615	 0.523717	 2.019414
H	 1.457713	 -1.061658	 2.733257
H	 2.145049	 -0.929109	 1.127785

	symmetry c1
}
set optking {
	frozen_dihedral = ("
		12 9 6 3
	")
}

ee,wfn = optimize('scf', return_wfn=True)
oeprop( wfn, 'DIPOLE', 'QUADRUPOLE', 'MULLIKEN_CHARGES')
f=open( 'psi4out.xyz', 'w' )
f.write( "16  " )
f.write( str(ee) + "\n" )
f.write( MOL.save_string_xyz() )
f.close()
--------------------------------------------------------------------------

    Molecular point group: c1
  Charge       = 0
  Multiplicity = 1
  Basis Set: CC-PVTZ
  Basis Set:
  @DF-RHF Final Energy:  -212.38873908249411
    Total Energy =                       -212.3887390824941122
    Molecular point group: c1
  Basis Set: CC-PVTZ
  Basis Set:
  Basis Set: CC-PVTZ
  Basis Set:
  @DF-RHF Final Energy:  -212.38997772236459
    Total Energy =                       -212.3899777223643923
  Basis Set: CC-PVTZ
  Basis Set:
  Basis Set: CC-PVTZ
  Basis Set:
  @DF-RHF Final Energy:  -212.39019873369480
    Total Energy =                       -212.3901987336947741
  Basis Set: CC-PVTZ
  Basis Set:
  Basis Set: CC-PVTZ
  Basis Set:
  @DF-RHF Final Energy:  -212.39021357897190
    Total Energy =                       -212.3902135789719523
  Basis Set: CC-PVTZ
  Basis Set:
  Charge       = 0
  Multiplicity = 1
  Basis Set: CC-PVTZ
  Basis Set:

    Orbital Energies (a.u.)
    -----------------------

    Doubly Occupied:

       1A    -15.525105     2A    -11.239199     3A    -11.238565
       4A    -11.209074     5A    -11.206201     6A     -1.202992
       7A     -1.027384     8A     -0.964885     9A     -0.841248
      10A     -0.820126    11A     -0.645343    12A     -0.629063
      13A     -0.621336    14A     -0.571540    15A     -0.557802
      16A     -0.526704    17A     -0.508585    18A     -0.493996
      19A     -0.488874    20A     -0.473552    21A     -0.353536

  @DF-RHF Final Energy:  -212.39021552079799

   => Energetics <=

    Nuclear Repulsion Energy =            190.4666783816015823
    One-Electron Energy =                -663.4235725799377406
    Two-Electron Energy =                 260.5666786775379364
    DFT Exchange-Correlation Energy =       0.0000000000000000
    Empirical Dispersion Energy =           0.0000000000000000
    PCM Polarization Energy =               0.0000000000000000
    EFP Energy =                            0.0000000000000000
    Total Energy =                       -212.3902155207982219
    Molecular point group: c1
  Basis Set: CC-PVTZ
  Basis Set:

  -Total Gradient:
     Atom            X                  Y                   Z
    ------   -----------------  -----------------  -----------------
       1        0.000001016015    -0.000000451015     0.000007198829
       2       -0.000002837561     0.000010756473     0.000023405112
       3       -0.001999720425    -0.000280910360    -0.000054998980
       4       -0.000010585165     0.000000017414    -0.000000460292
       5        0.000012220590     0.000000055048    -0.000001655897
       6        0.002387007446    -0.000061233145    -0.000253946899
       7       -0.000006296197     0.000012294461     0.000003237734
       8       -0.000009377691     0.000026826522     0.000013594618
       9        0.001550291486     0.001884506667     0.001172657097
      10        0.000008679127    -0.000014602022     0.000032032566
      11       -0.000067166751     0.000010803267    -0.000088753963
      12       -0.001841702302    -0.001563612722    -0.000874921925
      13       -0.000016881358    -0.000018638216    -0.000034504643
      14        0.000007653432    -0.000015140589    -0.000001196580
      15       -0.000000121367    -0.000015256200     0.000032915976
      16       -0.000012179277     0.000024584414     0.000025397249

  **** Optimization is complete! (in 5 steps) ****
    Final optimized geometry and variables:
    Molecular point group: c1

    Geometry (in Angstrom), charge = 0, multiplicity = 1:

    H           -0.282380757542    -0.007863412087    -3.237421555723
    C           -0.303573505409     0.576498608755    -2.324895496443
    C           -0.272174935828    -0.328968836872    -1.105193288617
    H           -1.199528612628     1.184885140146    -2.324155006965
    H            0.554489844553     1.241518093041    -2.339587437063
    N           -0.344658575331     0.444646399875     0.116427654050
    H           -1.127652774776    -0.994990618961    -1.132065847192
    H            0.617091095426    -0.962843043988    -1.152164491171
    C           -0.276710250089    -0.312582921509     1.354580331813
    H            0.331695640102     1.177198226112     0.110459041354
    C            1.113187295553    -0.387820930165     1.976494745299
    H           -0.977397187886     0.106468524669     2.069881228274
    H           -0.632779147657    -1.317054997577     1.153135281821
    H            1.479362440776     0.603847850400     2.223278595139
    H            1.097774534310    -0.969512075587     2.891806753128
    H            1.823681070479    -0.847432428225     1.298086089981

  Mulliken Charges: (a.u.)
   Center  Symbol    Alpha    Beta     Spin     Total
       1     H     0.45378  0.45378  0.00000  0.09244
       2     C     3.14349  3.14349  0.00000 -0.28697
       3     C     3.01990  3.01990  0.00000 -0.03979
       4     H     0.44941  0.44941  0.00000  0.10119
       5     H     0.45950  0.45950  0.00000  0.08100
       6     N     3.64147  3.64147  0.00000 -0.28295
       7     H     0.45804  0.45804  0.00000  0.08392
       8     H     0.47582  0.47582  0.00000  0.04835
       9     C     3.03137  3.03137  0.00000 -0.06274
      10     H     0.44418  0.44418  0.00000  0.11165
      11     C     3.14729  3.14729  0.00000 -0.29457
      12     H     0.45219  0.45219  0.00000  0.09563
      13     H     0.46042  0.46042  0.00000  0.07915
      14     H     0.45758  0.45758  0.00000  0.08483
      15     H     0.45226  0.45226  0.00000  0.09547
      16     H     0.45330  0.45330  0.00000  0.09340

   Total alpha = 21.00000, Total beta = 21.00000, Total charge =  0.00000

*** Psi4 exiting successfully. Buy a developer a beer!
