  ==> Input File <==

--------------------------------------------------------------------------
set {
	reference rhf
	basis 6-31G*
}

set_num_threads( 4 )
memory 2 gb

molecule MOL {
0 1

O	 2.407940	 2.061822	 -0.250885
C	 1.404939	 2.395017	 -0.803810
C	 0.147757	 1.544148	 -0.782517
C	 1.321925	 3.699933	 -1.568964
C	 0.291004	 0.242674	 0.000989
H	 -0.659058	 2.151962	 -0.375087
H	 -0.135973	 1.342903	 -1.814699
C	 -0.994322	 -0.586602	 0.000262
H	 0.581980	 0.471856	 1.021253
H	 1.105479	 -0.338261	 -0.420072
C	 -2.259874	 0.272531	 0.000494
H	 -1.004862	 -1.240012	 -0.870939
H	 -1.005220	 -1.241071	 0.870675
C	 -3.549786	 -0.549746	 -0.000374
H	 -2.250389	 0.926680	 -0.869574
H	 -2.250838	 0.925513	 0.871430
C	 -4.809590	 0.315458	 -0.000369
H	 -3.560515	 -1.202009	 -0.871156
H	 -3.561123	 -1.202955	 0.869711
H	 -4.844746	 0.956611	 -0.876632
H	 -5.706986	 -0.295590	 -0.001609
H	 -4.845960	 0.954827	 0.877144
H	 0.539645	 4.331277	 -1.157793
H	 2.269822	 4.216802	 -1.512641
H	 1.071963	 3.513595	 -2.609363

	symmetry c1
}
set optking {
	frozen_dihedral = ("
		9 5 8 12
	")
}

ee = optimize('scf')
oeprop('DIPOLE', 'QUADRUPOLE', 'MULLIKEN_CHARGES')
f=open( 'psi4out.xyz', 'w' )
f.write( "25  " )
f.write( str(ee) + "\n" )
f.write( MOL.save_string_xyz() )
f.close()
--------------------------------------------------------------------------

    Molecular point group: c1
  Charge       = 0
  Multiplicity = 1
  Basis Set: 6-31G*
  Basis Set:
  @DF-RHF Final Energy:  -387.12847919305216
    Total Energy =                       -387.1284791930520441
    Molecular point group: c1
  Basis Set: 6-31G*
  Basis Set:
  Basis Set: 6-31G*
  Basis Set:
  @DF-RHF Final Energy:  -387.12975193167767
    Total Energy =                       -387.1297519316781290
  Basis Set: 6-31G*
  Basis Set:
  Basis Set: 6-31G*
  Basis Set:
  @DF-RHF Final Energy:  -387.13175001858281
    Total Energy =                       -387.1317500185825793
  Basis Set: 6-31G*
  Basis Set:
  Basis Set: 6-31G*
  Basis Set:
  @DF-RHF Final Energy:  -387.13195273749301
    Total Energy =                       -387.1319527374929521
  Basis Set: 6-31G*
  Basis Set:
  Basis Set: 6-31G*
  Basis Set:
  @DF-RHF Final Energy:  -387.13155673867027
    Total Energy =                       -387.1315567386704970
  Basis Set: 6-31G*
  Basis Set:
  Basis Set: 6-31G*
  Basis Set:
  @DF-RHF Final Energy:  -387.13186524938897
    Total Energy =                       -387.1318652493887384
  Basis Set: 6-31G*
  Basis Set:
  Basis Set: 6-31G*
  Basis Set:
  @DF-RHF Final Energy:  -387.13198736452421
    Total Energy =                       -387.1319873645245480
  Basis Set: 6-31G*
  Basis Set:
  Charge       = 0
  Multiplicity = 1
  Basis Set: 6-31G*
  Basis Set:

    Orbital Energies (a.u.)
    -----------------------

    Doubly Occupied:

       1A    -20.550374     2A    -11.326220     3A    -11.231527
       4A    -11.228220     5A    -11.217778     6A    -11.217257
       7A    -11.216871     8A    -11.216390     9A    -11.210977
      10A     -1.395724    11A     -1.093928    12A     -1.055677
      13A     -1.014197    14A     -0.968024    15A     -0.900012
      16A     -0.817018    17A     -0.786677    18A     -0.729007
      19A     -0.658046    20A     -0.653598    21A     -0.634036
      22A     -0.621828    23A     -0.596352    24A     -0.582874
      25A     -0.567690    26A     -0.562832    27A     -0.543909
      28A     -0.528860    29A     -0.518699    30A     -0.493870
      31A     -0.488927    32A     -0.476335    33A     -0.460216
      34A     -0.456817    35A     -0.447026    36A     -0.400995

  @DF-RHF Final Energy:  -387.13198773585378

   => Energetics <=

    Nuclear Repulsion Energy =            445.3690660584994134
    One-Electron Energy =               -1407.2645281481850361
    Two-Electron Energy =                 574.7634743538324074
    DFT Exchange-Correlation Energy =       0.0000000000000000
    Empirical Dispersion Energy =           0.0000000000000000
    PCM Polarization Energy =               0.0000000000000000
    EFP Energy =                            0.0000000000000000
    Total Energy =                       -387.1319877358532722
    Molecular point group: c1
  Basis Set: 6-31G*
  Basis Set:

  -Total Gradient:
     Atom            X                  Y                   Z
    ------   -----------------  -----------------  -----------------
       1        0.000002526172    -0.000000855717     0.000006257526
       2        0.000001134788    -0.000027658838    -0.000014360025
       3       -0.000021089188     0.000033852130     0.000019565991
       4       -0.000023751906    -0.000000375429     0.000021397623
       5       -0.003211766059     0.004802873730     0.000480758463
       6       -0.000002095250     0.000018168351     0.000005341861
       7       -0.000003084716    -0.000001515688    -0.000005610364
       8       -0.002261571447     0.003818149866    -0.003592463175
       9        0.003035282525    -0.004626798570     0.000183545535
      10       -0.000013739452    -0.000031718918    -0.000017166077
      11        0.000001141235     0.000025153764    -0.000033484196
      12        0.002458226412    -0.004005657348     0.002876311350
      13       -0.000000186580     0.000028130234     0.000014173268
      14        0.000020669313    -0.000016866175     0.000065424627
      15       -0.000027634797     0.000003863321     0.000007952904
      16        0.000024785561    -0.000001495062     0.000014797792
      17        0.000020596660     0.000015111615    -0.000053391101
      18        0.000003593075    -0.000011649816     0.000017420153
      19       -0.000016607304     0.000003391768     0.000022434971
      20       -0.000003644634     0.000021189696     0.000004191346
      21        0.000010905942    -0.000006356714    -0.000021095476
      22        0.000003410432    -0.000020244244     0.000002534363
      23       -0.000001541497    -0.000000045408    -0.000006523839
      24        0.000000559706    -0.000010252836     0.000003229089
      25        0.000003881008    -0.000008393715    -0.000001242610

  **** Optimization is complete! (in 8 steps) ****
    Final optimized geometry and variables:
    Molecular point group: c1

    Geometry (in Angstrom), charge = 0, multiplicity = 1:

    O            3.156794672902     0.936449433303     0.160573739450
    C            2.202971644251     1.345916855437    -0.426956220661
    C            0.873978041784     0.610784389633    -0.432993016563
    C            2.256630322327     2.641189285961    -1.211174331465
    C            0.890770774050    -0.685837625861     0.370488136275
    H            0.118384929334     1.299847133135    -0.063070753346
    H            0.606767232386     0.417491508901    -1.471384455083
    C           -0.393075714346    -1.530413894925     0.289915017509
    H            1.138427241193    -0.483561408447     1.407465131322
    H            1.716336448711    -1.292967612473     0.013384997609
    C           -1.716882073127    -0.767141103738     0.358995745862
    H           -0.361690796463    -2.157531473565    -0.599148086904
    H           -0.364059359277    -2.235282561393     1.118693479117
    C           -2.931762683041    -1.694734433175     0.428514125059
    H           -1.821623774911    -0.116838796671    -0.506491382243
    H           -1.714261775795    -0.116264610917     1.232622219753
    C           -4.259198909593    -0.938843935514     0.473013290491
    H           -2.924533110813    -2.360718776610    -0.431806329160
    H           -2.849121409925    -2.330894563790     1.306894202654
    H           -4.387826976129    -0.318669232181    -0.409756554935
    H           -5.100312686436    -1.623487042085     0.520713877653
    H           -4.311843571023    -0.289636497753     1.342524680731
    H            1.523698449934     3.345989444231    -0.829508978531
    H            3.245152895122     3.072379267912    -1.135680800207
    H            2.018059202066     2.462029628689    -2.255500052883

  Mulliken Charges: (a.u.)
   Center  Symbol    Alpha    Beta     Spin     Total
       1     O     4.26099  4.26099  0.00000 -0.52199
       2     C     2.73579  2.73579  0.00000  0.52842
       3     C     3.21312  3.21312  0.00000 -0.42625
       4     C     3.28642  3.28642  0.00000 -0.57283
       5     C     3.15086  3.15086  0.00000 -0.30172
       6     H     0.40744  0.40744  0.00000  0.18511
       7     H     0.41014  0.41014  0.00000  0.17972
       8     C     3.15640  3.15640  0.00000 -0.31280
       9     H     0.41231  0.41231  0.00000  0.17539
      10     H     0.40966  0.40966  0.00000  0.18068
      11     C     3.15466  3.15466  0.00000 -0.30932
      12     H     0.42248  0.42248  0.00000  0.15503
      13     H     0.41955  0.41955  0.00000  0.16090
      14     C     3.15118  3.15118  0.00000 -0.30237
      15     H     0.42445  0.42445  0.00000  0.15111
      16     H     0.42379  0.42379  0.00000  0.15241
      17     C     3.23931  3.23931  0.00000 -0.47861
      18     H     0.42264  0.42264  0.00000  0.15471
      19     H     0.42185  0.42185  0.00000  0.15630
      20     H     0.42250  0.42250  0.00000  0.15501
      21     H     0.41867  0.41867  0.00000  0.16266
      22     H     0.42172  0.42172  0.00000  0.15656
      23     H     0.40870  0.40870  0.00000  0.18261
      24     H     0.39650  0.39650  0.00000  0.20699
      25     H     0.40887  0.40887  0.00000  0.18227

   Total alpha = 36.00000, Total beta = 36.00000, Total charge =  0.00000
