  ==> Input File <==

--------------------------------------------------------------------------
set {
	reference rhf
	basis 6-31G*
}

set_num_threads( 1 )
memory 2 gb

molecule MOL {
0 1

O	 3.356557	 0.544600	 1.007330
C	 2.843464	 0.164689	 -0.000222
C	 1.546494	 -0.624492	 -0.000609
C	 3.459435	 0.448364	 -1.354941
C	 0.291004	 0.242674	 0.000989
H	 1.557904	 -1.283758	 -0.867573
H	 1.558622	 -1.285963	 0.864672
C	 -0.994322	 -0.586602	 0.000262
H	 0.309117	 0.896430	 -0.865270
H	 0.309661	 0.894078	 0.869017
C	 -2.259874	 0.272531	 0.000494
H	 -1.004862	 -1.240012	 -0.870939
H	 -1.005220	 -1.241071	 0.870675
C	 -3.549786	 -0.549746	 -0.000374
H	 -2.250389	 0.926680	 -0.869574
H	 -2.250838	 0.925513	 0.871430
C	 -4.809590	 0.315458	 -0.000369
H	 -3.560515	 -1.202009	 -0.871156
H	 -3.561123	 -1.202955	 0.869711
H	 -4.844746	 0.956611	 -0.876632
H	 -5.706986	 -0.295590	 -0.001609
H	 -4.845960	 0.954827	 0.877144
H	 2.767315	 1.009537	 -1.975968
H	 4.372071	 1.014212	 -1.229462
H	 3.677364	 -0.480563	 -1.873820

	symmetry c1
}
set optking {
	frozen_dihedral = ("
		9 5 8 12,
		15 11 8 12,
		15 11 14 18,
		9 5 3 6
	")
}

ee = energy('scf')
oeprop('DIPOLE', 'QUADRUPOLE', 'MULLIKEN_CHARGES')
f=open( 'psi4out.xyz', 'w' )
f.write( "25  " )
f.write( str(ee) + "\n" )
f.write( MOL.save_string_xyz() )
f.close()
--------------------------------------------------------------------------

    Molecular point group: c1

    Geometry (in Angstrom), charge = 0, multiplicity = 1:

       Center              X                  Y                   Z               Mass
    ------------   -----------------  -----------------  -----------------  -----------------
           O          3.376711038721     0.511457728248     1.048417871009    15.994914619560
           C          2.863618038721     0.131546728248     0.040865871009    12.000000000000
           C          1.566648038721    -0.657634271752     0.040478871009    12.000000000000
           C          3.479589038721     0.415221728248    -1.313853128991    12.000000000000
           C          0.311158038721     0.209531728248     0.042076871009    12.000000000000
           H          1.578058038721    -1.316900271752    -0.826485128991     1.007825032070
           H          1.578776038721    -1.319105271752     0.905759871009     1.007825032070
           C         -0.974167961279    -0.619744271752     0.041349871009    12.000000000000
           H          0.329271038721     0.863287728248    -0.824182128991     1.007825032070
           H          0.329815038721     0.860935728248     0.910104871009     1.007825032070
           C         -2.239719961279     0.239388728248     0.041581871009    12.000000000000
           H         -0.984707961279    -1.273154271752    -0.829851128991     1.007825032070
           H         -0.985065961279    -1.274213271752     0.911762871009     1.007825032070
           C         -3.529631961279    -0.582888271752     0.040713871009    12.000000000000
           H         -2.230234961279     0.893537728248    -0.828486128991     1.007825032070
           H         -2.230683961279     0.892370728248     0.912517871009     1.007825032070
           C         -4.789435961279     0.282315728248     0.040718871009    12.000000000000
           H         -3.540360961279    -1.235151271752    -0.830068128991     1.007825032070
           H         -3.540968961279    -1.236097271752     0.910798871009     1.007825032070
           H         -4.824591961279     0.923468728248    -0.835544128991     1.007825032070
           H         -5.686831961279    -0.328732271752     0.039478871009     1.007825032070
           H         -4.825805961279     0.921684728248     0.918231871009     1.007825032070
           H          2.787469038721     0.976394728248    -1.934880128991     1.007825032070
           H          4.392225038721     0.981069728248    -1.188374128991     1.007825032070
           H          3.697518038721    -0.513705271752    -1.832732128991     1.007825032070

  Charge       = 0
  Multiplicity = 1
  Basis Set: 6-31G*
  Basis Set:

    Orbital Energies (a.u.)
    -----------------------

    Doubly Occupied:

       1A    -20.548435     2A    -11.324491     3A    -11.230938
       4A    -11.229231     5A    -11.227145     6A    -11.223466
       7A    -11.219384     8A    -11.218742     9A    -11.211541
      10A     -1.393479    11A     -1.100453    12A     -1.060496
      13A     -1.013101    14A     -0.970628    15A     -0.895047
      16A     -0.820463    17A     -0.796432    18A     -0.732341
      19A     -0.667036    20A     -0.647028    21A     -0.637966
      22A     -0.610481    23A     -0.605517    24A     -0.587380
      25A     -0.568351    26A     -0.557390    27A     -0.543503
      28A     -0.540206    29A     -0.506980    30A     -0.501594
      31A     -0.489459    32A     -0.476523    33A     -0.469108
      34A     -0.467464    35A     -0.455355    36A     -0.395600

  @DF-RHF Final Energy:  -387.13360423224572

   => Energetics <=

    Nuclear Repulsion Energy =            438.3569392090003021
    One-Electron Energy =               -1393.0958632541148745
    Two-Electron Energy =                 567.6053198128679469
    DFT Exchange-Correlation Energy =       0.0000000000000000
    Empirical Dispersion Energy =           0.0000000000000000
    PCM Polarization Energy =               0.0000000000000000
    EFP Energy =                            0.0000000000000000
    Total Energy =                       -387.1336042322466255

  Mulliken Charges: (a.u.)
   Center  Symbol    Alpha    Beta     Spin     Total
       1     O     4.25982  4.25982  0.00000 -0.51965
       2     C     2.73750  2.73750  0.00000  0.52500
       3     C     3.20104  3.20104  0.00000 -0.40207
       4     C     3.29001  3.29001  0.00000 -0.58002
       5     C     3.15955  3.15955  0.00000 -0.31910
       6     H     0.41827  0.41827  0.00000  0.16347
       7     H     0.40182  0.40182  0.00000  0.19636
       8     C     3.15283  3.15283  0.00000 -0.30567
       9     H     0.42022  0.42022  0.00000  0.15956
      10     H     0.40771  0.40771  0.00000  0.18458
      11     C     3.15171  3.15171  0.00000 -0.30342
      12     H     0.42261  0.42261  0.00000  0.15477
      13     H     0.41954  0.41954  0.00000  0.16092
      14     C     3.15200  3.15200  0.00000 -0.30400
      15     H     0.42363  0.42363  0.00000  0.15274
      16     H     0.42155  0.42155  0.00000  0.15691
      17     C     3.23955  3.23955  0.00000 -0.47911
      18     H     0.42304  0.42304  0.00000  0.15392
      19     H     0.42209  0.42209  0.00000  0.15581
      20     H     0.42164  0.42164  0.00000  0.15673
      21     H     0.41862  0.41862  0.00000  0.16276
      22     H     0.42091  0.42091  0.00000  0.15818
      23     H     0.40867  0.40867  0.00000  0.18266
      24     H     0.39726  0.39726  0.00000  0.20549
      25     H     0.40841  0.40841  0.00000  0.18317

   Total alpha = 36.00000, Total beta = 36.00000, Total charge =  0.00000
