  ==> Input File <==

--------------------------------------------------------------------------
set {
	reference rhf
	basis 6-31G*
}

set_num_threads( 4 )
memory 2 gb

molecule MOL {
0 1

H	 -3.135461	 -1.215070	 0.001379
O	 -2.310168	 -0.871793	 -0.309793
C	 -2.026376	 0.340750	 0.341611
C	 -0.673256	 0.843270	 -0.132153
H	 -2.792215	 1.080697	 0.115987
H	 -2.013526	 0.200402	 1.421792
C	 0.486613	 -0.083066	 0.235839
H	 -0.715586	 0.970948	 -1.210718
H	 -0.508072	 1.829858	 0.297090
C	 1.539528	 -0.187378	 -0.868835
H	 0.095756	 -1.069873	 0.461574
H	 0.959059	 0.279247	 1.148179
C	 2.701530	 -1.108499	 -0.498758
H	 1.069157	 -0.549923	 -1.780443
H	 1.924854	 0.804231	 -1.098357
H	 2.352071	 -2.117040	 -0.297226
H	 3.430948	 -1.164955	 -1.301071
H	 3.215044	 -0.753934	 0.390679

	symmetry c1
}
set optking {
	frozen_dihedral = ("
		10 7 4 8
	")
}

ee = optimize('scf')
oeprop('DIPOLE', 'QUADRUPOLE', 'MULLIKEN_CHARGES')
f=open( 'psi4out.xyz', 'w' )
f.write( "18  " )
f.write( str(ee) + "\n" )
f.write( MOL.save_string_xyz() )
f.close()
--------------------------------------------------------------------------

    Molecular point group: c1
  Charge       = 0
  Multiplicity = 1
  Basis Set: 6-31G*
  Basis Set:
  @DF-RHF Final Energy:  -271.17631498385470
    Total Energy =                       -271.1763149838546951
    Molecular point group: c1
  Basis Set: 6-31G*
  Basis Set:
  Basis Set: 6-31G*
  Basis Set:
  @DF-RHF Final Energy:  -271.17653344722169
    Total Energy =                       -271.1765334472215727
  Basis Set: 6-31G*
  Basis Set:
  Basis Set: 6-31G*
  Basis Set:
  @DF-RHF Final Energy:  -271.17659571954789
    Total Energy =                       -271.1765957195480610
  Basis Set: 6-31G*
  Basis Set:
  Charge       = 0
  Multiplicity = 1
  Basis Set: 6-31G*
  Basis Set:

    Orbital Energies (a.u.)
    -----------------------

    Doubly Occupied:

       1A    -20.553442     2A    -11.268352     3A    -11.211580
       4A    -11.209071     5A    -11.206262     6A    -11.203233
       7A     -1.360124     8A     -1.072613     9A     -1.007827
      10A     -0.912394    11A     -0.817808    12A     -0.783670
      13A     -0.705541    14A     -0.637614    15A     -0.625651
      16A     -0.580996    17A     -0.568703    18A     -0.558575
      19A     -0.520914    20A     -0.496267    21A     -0.490899
      22A     -0.467054    23A     -0.455193    24A     -0.446807
      25A     -0.428748

  @DF-RHF Final Energy:  -271.17659548201829

   => Energetics <=

    Nuclear Repulsion Energy =            250.0474814212005299
    One-Electron Energy =                -863.2694745990716001
    Two-Electron Energy =                 342.0453976958526709
    DFT Exchange-Correlation Energy =       0.0000000000000000
    Empirical Dispersion Energy =           0.0000000000000000
    PCM Polarization Energy =               0.0000000000000000
    EFP Energy =                            0.0000000000000000
    Total Energy =                       -271.1765954820184561
    Molecular point group: c1
  Basis Set: 6-31G*
  Basis Set:

  -Total Gradient:
     Atom            X                  Y                   Z
    ------   -----------------  -----------------  -----------------
       1       -0.000018434353    -0.000025484500    -0.000007132885
       2       -0.000001626184    -0.000011698766     0.000023125585
       3        0.000085705385    -0.000103328006     0.000006849014
       4       -0.003213931691    -0.004156994662    -0.000597078599
       5        0.000056060599     0.000017338573    -0.000015580654
       6       -0.000001444277    -0.000001258480    -0.000007533368
       7        0.002296450900     0.003406061814     0.001555620463
       8        0.002235477920     0.002745741582     0.000333723520
       9        0.000082296939     0.000068190999    -0.000036894824
      10       -0.001245516768    -0.001969917083    -0.001212158006
      11       -0.000160327699    -0.000069881517    -0.000036315734
      12       -0.000140877537     0.000018981208    -0.000035680157
      13       -0.000004797650     0.000117697813     0.000081101948
      14        0.000005201649    -0.000054827219     0.000062144272
      15        0.000046266240     0.000005122396    -0.000113973215
      16       -0.000018295304    -0.000000262027    -0.000031849799
      17       -0.000014860295     0.000043968584     0.000009229625
      18        0.000012652129    -0.000029450710     0.000022402814

  **** Optimization is complete! (in 4 steps) ****
    Final optimized geometry and variables:
    Molecular point group: c1

    Geometry (in Angstrom), charge = 0, multiplicity = 1:

    H           -3.060561434557    -0.989084098474     0.219220522392
    O           -2.247447625644    -0.640225385711    -0.116926822740
    C           -1.929157573592     0.551957984118     0.555887382798
    C           -0.575928810289     1.036508312468     0.067840212646
    H           -2.684528634045     1.310870003743     0.360964163424
    H           -1.898630306608     0.387177401702     1.632298589289
    C            0.588744736447     0.097842202518     0.429308845298
    H           -0.621666809081     1.182536249984    -1.007531935855
    H           -0.398558166281     2.023807910118     0.489623551639
    C            1.649277379120    -0.000046696542    -0.669248414935
    H            0.197430630559    -0.898380582629     0.612142439631
    H            1.049407010983     0.425412852104     1.358560371792
    C            2.828278534587    -0.890789535893    -0.281282932999
    H            1.182384255883    -0.387402294572    -1.571260605251
    H            2.015609700789     0.995072565301    -0.916431385241
    H            2.497901866190    -1.902029503705    -0.060900341293
    H            3.558664263332    -0.948791533193    -1.082572503187
    H            3.335232883621    -0.509899500897     0.601090081962

  Mulliken Charges: (a.u.)
   Center  Symbol    Alpha    Beta     Spin     Total
       1     H     0.28061  0.28061  0.00000  0.43878
       2     O     4.36904  4.36904  0.00000 -0.73809
       3     C     2.99926  2.99926  0.00000  0.00149
       4     C     3.16173  3.16173  0.00000 -0.32347
       5     H     0.42934  0.42934  0.00000  0.14132
       6     H     0.43252  0.43252  0.00000  0.13497
       7     C     3.15482  3.15482  0.00000 -0.30965
       8     H     0.41311  0.41311  0.00000  0.17378
       9     H     0.42256  0.42256  0.00000  0.15489
      10     C     3.15348  3.15348  0.00000 -0.30696
      11     H     0.40985  0.40985  0.00000  0.18031
      12     H     0.42551  0.42551  0.00000  0.14898
      13     C     3.23978  3.23978  0.00000 -0.47956
      14     H     0.41829  0.41829  0.00000  0.16342
      15     H     0.42548  0.42548  0.00000  0.14904
      16     H     0.42114  0.42114  0.00000  0.15772
      17     H     0.42027  0.42027  0.00000  0.15946
      18     H     0.42322  0.42322  0.00000  0.15356

   Total alpha = 25.00000, Total beta = 25.00000, Total charge = -0.00000
