  ==> Input File <==

--------------------------------------------------------------------------
set {
	reference rhf
	basis 6-31G*
}

set_num_threads( 4 )
memory 2 gb

molecule MOL {
0 1

H	 2.825710	 0.162009	 -0.220941
C	 1.951159	 -0.223429	 0.317018
C	 0.692068	 0.589600	 0.160137
O	 2.038695	 -1.215736	 0.964933
C	 -0.558097	 -0.297372	 0.091132
H	 0.791645	 1.202255	 -0.728243
H	 0.616171	 1.253469	 1.020572
C	 -1.850991	 0.512573	 -0.019058
H	 -0.476753	 -0.965681	 -0.762987
H	 -0.604799	 -0.930658	 0.975228
C	 -3.096943	 -0.368295	 -0.099594
H	 -1.800724	 1.150330	 -0.898172
H	 -1.931651	 1.177355	 0.838044
H	 -3.060452	 -1.020287	 -0.967456
H	 -3.996858	 0.233488	 -0.175704
H	 -3.191959	 -0.995686	 0.782074

	symmetry c1
}
set optking {
	frozen_dihedral = ("
		4 2 3 6
	")
}

ee = optimize('scf')
oeprop('DIPOLE', 'QUADRUPOLE', 'MULLIKEN_CHARGES')
f=open( 'psi4out.xyz', 'w' )
f.write( "16  " )
f.write( str(ee) + "\n" )
f.write( MOL.save_string_xyz() )
f.close()
--------------------------------------------------------------------------

    Molecular point group: c1
  Charge       = 0
  Multiplicity = 1
  Basis Set: 6-31G*
  Basis Set:
  @DF-RHF Final Energy:  -270.01917203494020
    Total Energy =                       -270.0191720349402544
    Molecular point group: c1
  Basis Set: 6-31G*
  Basis Set:
  Basis Set: 6-31G*
  Basis Set:
  @DF-RHF Final Energy:  -270.01894102201697
    Total Energy =                       -270.0189410220173158
  Basis Set: 6-31G*
  Basis Set:
  Basis Set: 6-31G*
  Basis Set:
  @DF-RHF Final Energy:  -270.01911475792360
    Total Energy =                       -270.0191147579234894
  Basis Set: 6-31G*
  Basis Set:
  Basis Set: 6-31G*
  Basis Set:
  @DF-RHF Final Energy:  -270.01968145758366
    Total Energy =                       -270.0196814575838289
  Basis Set: 6-31G*
  Basis Set:
  Basis Set: 6-31G*
  Basis Set:
  @DF-RHF Final Energy:  -270.01967594554230
    Total Energy =                       -270.0196759455421898
  Basis Set: 6-31G*
  Basis Set:
  Basis Set: 6-31G*
  Basis Set:
  @DF-RHF Final Energy:  -270.01968354738761
    Total Energy =                       -270.0196835473877854
  Basis Set: 6-31G*
  Basis Set:
  Basis Set: 6-31G*
  Basis Set:
  @DF-RHF Final Energy:  -270.01968475835599
    Total Energy =                       -270.0196847583559929
  Basis Set: 6-31G*
  Basis Set:
  Charge       = 0
  Multiplicity = 1
  Basis Set: 6-31G*
  Basis Set:

    Orbital Energies (a.u.)
    -----------------------

    Doubly Occupied:

       1A    -20.563135     2A    -11.328395     3A    -11.236612
       4A    -11.224746     5A    -11.223232     6A    -11.213138
       7A     -1.403552     8A     -1.089135     9A     -1.014706
      10A     -0.907593    11A     -0.813840    12A     -0.774836
      13A     -0.678530    14A     -0.650614    15A     -0.628196
      16A     -0.598856    17A     -0.582861    18A     -0.540627
      19A     -0.527244    20A     -0.499003    21A     -0.481771
      22A     -0.479434    23A     -0.472267    24A     -0.409653

  @DF-RHF Final Energy:  -270.01968469030788

   => Energetics <=

    Nuclear Repulsion Energy =            231.4501220556167596
    One-Electron Energy =                -824.2556587425920043
    Two-Electron Energy =                 322.7858519966672475
    DFT Exchange-Correlation Energy =       0.0000000000000000
    Empirical Dispersion Energy =           0.0000000000000000
    PCM Polarization Energy =               0.0000000000000000
    EFP Energy =                            0.0000000000000000
    Total Energy =                       -270.0196846903080541
    Molecular point group: c1
  Basis Set: 6-31G*
  Basis Set:

  -Total Gradient:
     Atom            X                  Y                   Z
    ------   -----------------  -----------------  -----------------
       1        0.000022098652    -0.000006546355     0.000013704860
       2       -0.000484835431    -0.001412328958    -0.002392311680
       3       -0.000763372085    -0.001352545189    -0.000694285492
       4        0.000487704265     0.001221514895     0.001855589513
       5       -0.000056732860    -0.000026148564     0.000017018643
       6        0.000780787839     0.001595300567     0.001246260531
       7       -0.000016601696    -0.000016615838    -0.000024286875
       8        0.000009831017     0.000006104094    -0.000013150607
       9        0.000005731162     0.000008328918    -0.000007565369
      10       -0.000011781072    -0.000005830110    -0.000007442449
      11        0.000012813255    -0.000015138893     0.000017086537
      12        0.000001833487    -0.000004073167    -0.000010484735
      13        0.000012473594     0.000009119916    -0.000002505034
      14       -0.000003937928     0.000002010876    -0.000001599417
      15        0.000006488878     0.000005058263     0.000006943712
      16       -0.000002501078    -0.000008210457    -0.000002972139

  **** Optimization is complete! (in 8 steps) ****
    Final optimized geometry and variables:
    Molecular point group: c1

    Geometry (in Angstrom), charge = 0, multiplicity = 1:

    H            3.008465275198     0.399845262925    -0.373150545130
    C            2.113007627141    -0.033621270670     0.085483018510
    C            0.832887104897     0.749176876885    -0.095629446814
    O            2.196592064387    -1.035667943921     0.719463906527
    C           -0.420607883007    -0.123936949457    -0.158280079312
    H            0.926589240852     1.390026937969    -0.968386009490
    H            0.772348489358     1.425671591280     0.757712202780
    C           -1.706449001028     0.697398673476    -0.259881083602
    H           -0.348156053359    -0.793074208731    -1.012416666559
    H           -0.451730830392    -0.755146267137     0.722778566698
    C           -2.959497394039    -0.174779098011    -0.325330717295
    H           -1.663402721194     1.333940956359    -1.141268782086
    H           -1.776238875835     1.365391393425     0.596111348008
    H           -2.936683058296    -0.829234920505    -1.191918548564
    H           -3.856658839629     0.432444819842    -0.392656808310
    H           -3.047576231350    -0.800107473602     0.558223172924

  Mulliken Charges: (a.u.)
   Center  Symbol    Alpha    Beta     Spin     Total
       1     H     0.42627  0.42627  0.00000  0.14746
       2     C     2.83993  2.83993  0.00000  0.32013
       3     C     3.20964  3.20964  0.00000 -0.41927
       4     O     4.23739  4.23739  0.00000 -0.47479
       5     C     3.15199  3.15199  0.00000 -0.30399
       6     H     0.41357  0.41357  0.00000  0.17285
       7     H     0.40287  0.40287  0.00000  0.19426
       8     C     3.15340  3.15340  0.00000 -0.30680
       9     H     0.41786  0.41786  0.00000  0.16428
      10     H     0.40451  0.40451  0.00000  0.19099
      11     C     3.23985  3.23985  0.00000 -0.47970
      12     H     0.42306  0.42306  0.00000  0.15388
      13     H     0.42199  0.42199  0.00000  0.15601
      14     H     0.42038  0.42038  0.00000  0.15924
      15     H     0.41824  0.41824  0.00000  0.16352
      16     H     0.41904  0.41904  0.00000  0.16192

   Total alpha = 24.00000, Total beta = 24.00000, Total charge = -0.00000
