  ==> Input File <==

--------------------------------------------------------------------------
set {
	reference rhf
	basis 6-31G*
}

set_num_threads( 4 )
memory 2 gb

molecule MOL {
0 1

H	 -4.015462	 -0.335522	 0.537760
O	 -3.517110	 -0.026191	 -0.205115
C	 -2.306886	 0.532354	 0.237577
C	 -1.177863	 -0.397191	 -0.171080
H	 -2.156308	 1.517575	 -0.201710
H	 -2.315015	 0.655684	 1.319734
C	 0.198102	 0.111031	 0.262842
H	 -1.208843	 -0.518759	 -1.250427
H	 -1.368741	 -1.376554	 0.258909
C	 1.331804	 -0.827780	 -0.158768
H	 0.361943	 1.100838	 -0.156218
H	 0.217265	 0.229072	 1.345532
C	 2.723619	 -0.410569	 0.329459
H	 1.342964	 -0.912588	 -1.244120
H	 1.116806	 -1.824343	 0.220779
C	 3.243875	 0.895854	 -0.272975
H	 3.424222	 -1.207124	 0.091250
H	 2.714788	 -0.329854	 1.414619
H	 3.251977	 0.848779	 -1.358681
H	 2.637085	 1.747371	 0.016682
H	 4.259473	 1.094070	 0.055697

	symmetry c1
}
set optking {
	frozen_dihedral = ("
		1 2 3 5
	")
}

ee = optimize('scf')
oeprop('DIPOLE', 'QUADRUPOLE', 'MULLIKEN_CHARGES')
f=open( 'psi4out.xyz', 'w' )
f.write( "21  " )
f.write( str(ee) + "\n" )
f.write( MOL.save_string_xyz() )
f.close()
--------------------------------------------------------------------------

    Molecular point group: c1
  Charge       = 0
  Multiplicity = 1
  Basis Set: 6-31G*
  Basis Set:
  @DF-RHF Final Energy:  -310.21028678508935
    Total Energy =                       -310.2102867850890107
    Molecular point group: c1
  Basis Set: 6-31G*
  Basis Set:
  Basis Set: 6-31G*
  Basis Set:
  @DF-RHF Final Energy:  -310.21093758803153
    Total Energy =                       -310.2109375880315270
  Basis Set: 6-31G*
  Basis Set:
  Basis Set: 6-31G*
  Basis Set:
  @DF-RHF Final Energy:  -310.21106664307723
    Total Energy =                       -310.2110666430772881
  Basis Set: 6-31G*
  Basis Set:
  Basis Set: 6-31G*
  Basis Set:
  @DF-RHF Final Energy:  -310.21106804821653
    Total Energy =                       -310.2110680482164753
  Basis Set: 6-31G*
  Basis Set:
  Charge       = 0
  Multiplicity = 1
  Basis Set: 6-31G*
  Basis Set:

    Orbital Energies (a.u.)
    -----------------------

    Doubly Occupied:

       1A    -20.550705     2A    -11.267409     3A    -11.216391
       4A    -11.215844     5A    -11.214517     6A    -11.211023
       7A    -11.208502     8A     -1.357185     9A     -1.086772
      10A     -1.033279    11A     -0.954527    12A     -0.877251
      13A     -0.811494    14A     -0.779188    15A     -0.699661
      16A     -0.648672    17A     -0.618473    18A     -0.609147
      19A     -0.587444    20A     -0.570042    21A     -0.541754
      22A     -0.526192    23A     -0.501451    24A     -0.495872
      25A     -0.470175    26A     -0.466075    27A     -0.460596
      28A     -0.456263    29A     -0.419748

  @DF-RHF Final Energy:  -310.21106802213120

   => Energetics <=

    Nuclear Repulsion Energy =            312.0815231805475491
    One-Electron Energy =               -1038.8738785582133914
    Two-Electron Energy =                 416.5812873555345277
    DFT Exchange-Correlation Energy =       0.0000000000000000
    Empirical Dispersion Energy =           0.0000000000000000
    PCM Polarization Energy =               0.0000000000000000
    EFP Energy =                            0.0000000000000000
    Total Energy =                       -310.2110680221313714
    Molecular point group: c1
  Basis Set: 6-31G*
  Basis Set:

  -Total Gradient:
     Atom            X                  Y                   Z
    ------   -----------------  -----------------  -----------------
       1       -0.000434302994     0.001017403320     0.000136391004
       2        0.000454661664    -0.001167540716     0.000003398047
       3        0.000427445825    -0.000249400275    -0.000909566226
       4       -0.000051859820     0.000032326047    -0.000013508371
       5       -0.000425802613     0.000389910211     0.000749345225
       6        0.000001924064    -0.000004625651     0.000016831977
       7       -0.000013754724    -0.000002085261    -0.000002674491
       8        0.000005826585    -0.000014978810     0.000002003935
       9       -0.000008950367     0.000010376214     0.000004582208
      10        0.000025870109     0.000004074532     0.000011012930
      11        0.000014623740     0.000008331354     0.000013367902
      12        0.000000869819    -0.000010550097    -0.000000983908
      13        0.000018681963    -0.000019293092    -0.000025713479
      14       -0.000001388300    -0.000012463948     0.000002347547
      15       -0.000001554381     0.000013330976     0.000011592834
      16       -0.000007698219     0.000000860844     0.000003832023
      17        0.000010223003     0.000005715471    -0.000004937895
      18        0.000000991566    -0.000009153954    -0.000001487769
      19        0.000003637706    -0.000001726809     0.000002587444
      20       -0.000017903956     0.000004805142    -0.000001963037
      21       -0.000001540660     0.000004684505     0.000003542101

  **** Optimization is complete! (in 5 steps) ****
    Final optimized geometry and variables:
    Molecular point group: c1

    Geometry (in Angstrom), charge = 0, multiplicity = 1:

    H           -4.066572331025    -0.275899205733     0.492727928643
    O           -3.545920211901     0.041671973232    -0.228605288641
    C           -2.306949084927     0.518904593872     0.240399971200
    C           -1.173218283705    -0.411501150859    -0.165295332895
    H           -2.153577499280     1.507764078789    -0.179374343786
    H           -2.325287017658     0.636707565764     1.321876307482
    C            0.202292898209     0.102017773717     0.264353948410
    H           -1.205450857699    -0.536342633589    -1.244301247009
    H           -1.356021581294    -1.393647833464     0.265303292910
    C            1.340772915688    -0.830449597881    -0.158634515294
    H            0.358977247544     1.092276850731    -0.156205423600
    H            0.224273424412     0.222544279519     1.347059011715
    C            2.731741714920    -0.402517512719     0.322787267711
    H            1.348092858125    -0.918266754491    -1.243733444485
    H            1.134178104723    -1.827524415994     0.224555492854
    C            3.239079629021     0.907493172572    -0.282823912811
    H            3.437264520392    -1.193874550060     0.081729853700
    H            2.727431847094    -0.321209947063     1.407969689461
    H            3.243048336594     0.859564620605    -1.368481615544
    H            2.626747752000     1.754382141717     0.008621880443
    H            4.254411681731     1.113981218256     0.041506381987

  Mulliken Charges: (a.u.)
   Center  Symbol    Alpha    Beta     Spin     Total
       1     H     0.28002  0.28002  0.00000  0.43996
       2     O     4.37376  4.37376  0.00000 -0.74751
       3     C     2.99293  2.99293  0.00000  0.01414
       4     C     3.15748  3.15748  0.00000 -0.31496
       5     H     0.42145  0.42145  0.00000  0.15710
       6     H     0.43265  0.43265  0.00000  0.13471
       7     C     3.16285  3.16285  0.00000 -0.32570
       8     H     0.41431  0.41431  0.00000  0.17137
       9     H     0.42365  0.42365  0.00000  0.15270
      10     C     3.15139  3.15139  0.00000 -0.30277
      11     H     0.42029  0.42029  0.00000  0.15942
      12     H     0.42531  0.42531  0.00000  0.14937
      13     C     3.15244  3.15244  0.00000 -0.30487
      14     H     0.42263  0.42263  0.00000  0.15474
      15     H     0.42189  0.42189  0.00000  0.15623
      16     C     3.24126  3.24126  0.00000 -0.48251
      17     H     0.42065  0.42065  0.00000  0.15870
      18     H     0.42380  0.42380  0.00000  0.15240
      19     H     0.42174  0.42174  0.00000  0.15651
      20     H     0.42033  0.42033  0.00000  0.15935
      21     H     0.41918  0.41918  0.00000  0.16163

   Total alpha = 29.00000, Total beta = 29.00000, Total charge = -0.00000
