  ==> Input File <==

--------------------------------------------------------------------------
set {
	reference rhf
	basis 6-31G*
}

set_num_threads( 1 )
memory 2 gb

molecule MOL {
0 1

O	 -0.637359	 -0.769762	 1.637118
C	 0.474103	 -0.941975	 1.252337
C	 1.245376	 -0.013843	 0.345420
O	 1.199499	 -2.003810	 1.580873
C	 0.455112	 1.231400	 -0.050772
H	 2.168966	 0.236146	 0.856963
H	 1.537189	 -0.587171	 -0.530843
C	 -0.998893	 1.219485	 0.433193
H	 0.482531	 1.345121	 -1.130325
H	 0.957290	 2.103070	 0.354729
C	 -1.883438	 0.145884	 -0.207175
H	 -1.431207	 2.195402	 0.224832
H	 -1.019646	 1.105716	 1.516076
C	 -3.347647	 0.245583	 0.225435
H	 -1.822183	 0.231698	 -1.291012
H	 -1.510341	 -0.844814	 0.042401
C	 -4.239992	 -0.825570	 -0.404234
H	 -3.732888	 1.230466	 -0.033079
H	 -3.408585	 0.170602	 1.310038
C	 -5.701275	 -0.716658	 0.029921
H	 -4.179496	 -0.752714	 -1.488058
H	 -3.859041	 -1.810759	 -0.143352
H	 -6.308102	 -1.488908	 -0.432678
H	 -6.122175	 0.245478	 -0.248167
H	 -5.799072	 -0.820114	 1.106957
C	 0.591410	 -2.959503	 2.430440
H	 0.323876	 -2.511365	 3.376538
H	 1.327946	 -3.733847	 2.578477
H	 -0.295148	 -3.369409	 1.968349

	symmetry c1
}
set optking {
	frozen_dihedral = ("
		21 17 14 11,
		17 14 11 15,
		15 11 8 5,
		11 8 5 9,
		2 4 26 27,
		1 2 4 26,
		6 3 2 1
	")
}

ee = energy('scf')
oeprop('DIPOLE', 'QUADRUPOLE', 'MULLIKEN_CHARGES')
f=open( 'psi4out.xyz', 'w' )
f.write( "29  " )
f.write( str(ee) + "\n" )
f.write( MOL.save_string_xyz() )
f.close()
--------------------------------------------------------------------------

    Molecular point group: c1

    Geometry (in Angstrom), charge = 0, multiplicity = 1:

       Center              X                  Y                   Z               Mass
    ------------   -----------------  -----------------  -----------------  -----------------
           O          0.531404922862    -0.245790167498     0.952702971747    15.994914619560
           C          1.642866922862    -0.418003167498     0.567921971747    12.000000000000
           C          2.414139922862     0.510128832502    -0.338995028253    12.000000000000
           O          2.368262922862    -1.479838167498     0.896457971747    15.994914619560
           C          1.623875922862     1.755371832502    -0.735187028253    12.000000000000
           H          3.337729922862     0.760117832502     0.172547971747     1.007825032070
           H          2.705952922862    -0.063199167498    -1.215258028253     1.007825032070
           C          0.169870922862     1.743456832502    -0.251222028253    12.000000000000
           H          1.651294922862     1.869092832502    -1.814740028253     1.007825032070
           H          2.126053922862     2.627041832502    -0.329686028253     1.007825032070
           C         -0.714674077138     0.669855832502    -0.891590028253    12.000000000000
           H         -0.262443077138     2.719373832502    -0.459583028253     1.007825032070
           H          0.149117922862     1.629687832502     0.831660971747     1.007825032070
           C         -2.178883077138     0.769554832502    -0.458980028253    12.000000000000
           H         -0.653419077138     0.755669832502    -1.975427028253     1.007825032070
           H         -0.341577077138    -0.320842167498    -0.642014028253     1.007825032070
           C         -3.071228077138    -0.301598167498    -1.088649028253    12.000000000000
           H         -2.564124077138     1.754437832502    -0.717494028253     1.007825032070
           H         -2.239821077138     0.694573832502     0.625622971747     1.007825032070
           C         -4.532511077138    -0.192686167498    -0.654494028253    12.000000000000
           H         -3.010732077138    -0.228742167498    -2.172473028253     1.007825032070
           H         -2.690277077138    -1.286787167498    -0.827767028253     1.007825032070
           H         -5.139338077138    -0.964936167498    -1.117093028253     1.007825032070
           H         -4.953411077138     0.769449832502    -0.932582028253     1.007825032070
           H         -4.630308077138    -0.296142167498     0.422541971747     1.007825032070
           C          1.760173922862    -2.435531167498     1.746024971747    12.000000000000
           H          1.492639922862    -1.987393167498     2.692122971747     1.007825032070
           H          2.496709922862    -3.209875167498     1.894061971747     1.007825032070
           H          0.873615922862    -2.845437167498     1.283933971747     1.007825032070

  Charge       = 0
  Multiplicity = 1
  Basis Set: 6-31G*
  Basis Set:

    Orbital Energies (a.u.)
    -----------------------

    Doubly Occupied:

       1A    -20.607475     2A    -20.544086     3A    -11.377149
       4A    -11.284261     5A    -11.237315     6A    -11.217683
       7A    -11.202525     8A    -11.198834     9A    -11.195818
      10A    -11.192367    11A    -11.185838    12A     -1.476326
      13A     -1.374453    14A     -1.087272    15A     -1.058105
      16A     -1.012974    17A     -0.972184    18A     -0.919516
      19A     -0.854595    20A     -0.793724    21A     -0.780606
      22A     -0.768767    23A     -0.701233    24A     -0.688147
      25A     -0.677565    26A     -0.640101    27A     -0.628316
      28A     -0.612264    29A     -0.575866    30A     -0.571487
      31A     -0.555581    32A     -0.540856    33A     -0.537626
      34A     -0.526525    35A     -0.514854    36A     -0.501345
      37A     -0.495058    38A     -0.478318    39A     -0.464487
      40A     -0.458868    41A     -0.443987    42A     -0.429727
      43A     -0.414926    44A     -0.408308

  @DF-RHF Final Energy:  -500.99128258774613

   => Energetics <=

    Nuclear Repulsion Energy =            661.4193228956471557
    One-Electron Energy =               -1994.4066190567291414
    Two-Electron Energy =                 831.9960135733347215
    DFT Exchange-Correlation Energy =       0.0000000000000000
    Empirical Dispersion Energy =           0.0000000000000000
    PCM Polarization Energy =               0.0000000000000000
    EFP Energy =                            0.0000000000000000
    Total Energy =                       -500.9912825877472642

  Mulliken Charges: (a.u.)
   Center  Symbol    Alpha    Beta     Spin     Total
       1     O     4.28804  4.28804  0.00000 -0.57608
       2     C     2.60572  2.60572  0.00000  0.78856
       3     C     3.21044  3.21044  0.00000 -0.42088
       4     O     4.30558  4.30558  0.00000 -0.61115
       5     C     3.15823  3.15823  0.00000 -0.31646
       6     H     0.39525  0.39525  0.00000  0.20950
       7     H     0.39589  0.39589  0.00000  0.20822
       8     C     3.16085  3.16085  0.00000 -0.32170
       9     H     0.41700  0.41700  0.00000  0.16601
      10     H     0.41623  0.41623  0.00000  0.16755
      11     C     3.14691  3.14691  0.00000 -0.29382
      12     H     0.42884  0.42884  0.00000  0.14231
      13     H     0.40017  0.40017  0.00000  0.19965
      14     C     3.14799  3.14799  0.00000 -0.29598
      15     H     0.43635  0.43635  0.00000  0.12731
      16     H     0.41083  0.41083  0.00000  0.17833
      17     C     3.15034  3.15034  0.00000 -0.30069
      18     H     0.42815  0.42815  0.00000  0.14369
      19     H     0.42120  0.42120  0.00000  0.15760
      20     C     3.23866  3.23866  0.00000 -0.47732
      21     H     0.42576  0.42576  0.00000  0.14849
      22     H     0.42484  0.42484  0.00000  0.15033
      23     H     0.42222  0.42222  0.00000  0.15556
      24     H     0.42307  0.42307  0.00000  0.15386
      25     H     0.42253  0.42253  0.00000  0.15494
      26     C     3.09278  3.09278  0.00000 -0.18555
      27     H     0.40901  0.40901  0.00000  0.18197
      28     H     0.40738  0.40738  0.00000  0.18524
      29     H     0.40975  0.40975  0.00000  0.18050

   Total alpha = 44.00000, Total beta = 44.00000, Total charge = -0.00000
