  ==> Input File <==

--------------------------------------------------------------------------
set {
	reference rhf
	basis 6-31G*
}

set_num_threads( 1 )
memory 2 gb

molecule MOL {
0 1

H	 -3.161837	 0.500524	 -0.000234
C	 -2.367097	 -0.232926	 -0.000000
O	 -1.158440	 0.455814	 -0.000122
H	 -2.468853	 -0.861886	 -0.882833
H	 -2.468942	 -0.861421	 0.883154
C	 -0.029776	 -0.365156	 0.000148
C	 1.201903	 0.494728	 -0.223970
H	 -0.113416	 -1.118575	 -0.784239
H	 0.047355	 -0.896964	 0.949431
C	 2.491686	 -0.324484	 -0.239193
H	 1.084311	 1.026334	 -1.163240
H	 1.244043	 1.246378	 0.558300
H	 2.480041	 -1.067544	 -1.031752
H	 3.353933	 0.313821	 -0.400261
H	 2.640607	 -0.846593	 0.701885

	symmetry c1
}
set optking {
	frozen_dihedral = ("
		6 3 2 4,
		11 7 6 8
	")
}

ee = energy('scf')
oeprop('DIPOLE', 'QUADRUPOLE', 'MULLIKEN_CHARGES')
f=open( 'psi4out.xyz', 'w' )
f.write( "15  " )
f.write( str(ee) + "\n" )
f.write( MOL.save_string_xyz() )
f.close()
--------------------------------------------------------------------------

    Molecular point group: c1

    Geometry (in Angstrom), charge = 0, multiplicity = 1:

       Center              X                  Y                   Z               Mass
    ------------   -----------------  -----------------  -----------------  -----------------
           H         -3.157642790276     0.506320356092     0.090717615493     1.007825032070
           C         -2.362902790276    -0.227129643908     0.090951615493    12.000000000000
           O         -1.154245790276     0.461610356092     0.090829615493    15.994914619560
           H         -2.464658790276    -0.856089643908    -0.791881384507     1.007825032070
           H         -2.464747790276    -0.855624643908     0.974105615493     1.007825032070
           C         -0.025581790276    -0.359359643908     0.091099615493    12.000000000000
           C          1.206097209724     0.500524356092    -0.133018384507    12.000000000000
           H         -0.109221790276    -1.112778643908    -0.693287384507     1.007825032070
           H          0.051549209724    -0.891167643908     1.040382615493     1.007825032070
           C          2.495880209724    -0.318687643908    -0.148241384507    12.000000000000
           H          1.088505209724     1.032130356092    -1.072288384507     1.007825032070
           H          1.248237209724     1.252174356092     0.649251615493     1.007825032070
           H          2.484235209724    -1.061747643908    -0.940800384507     1.007825032070
           H          3.358127209724     0.319617356092    -0.309309384507     1.007825032070
           H          2.644801209724    -0.840796643908     0.792836615493     1.007825032070

  Charge       = 0
  Multiplicity = 1
  Basis Set: 6-31G*
  Basis Set:

    Orbital Energies (a.u.)
    -----------------------

    Doubly Occupied:

       1A    -20.553357     2A    -11.266216     3A    -11.264067
       4A    -11.214208     5A    -11.212897     6A     -1.378374
       7A     -1.057239     8A     -0.955344     9A     -0.877348
      10A     -0.809093    11A     -0.674808    12A     -0.653988
      13A     -0.630457    14A     -0.607400    15A     -0.565639
      16A     -0.541077    17A     -0.502813    18A     -0.489158
      19A     -0.478202    20A     -0.461658    21A     -0.413424

  @DF-RHF Final Energy:  -232.13923716896966

   => Energetics <=

    Nuclear Repulsion Energy =            189.7566245448917925
    One-Electron Energy =                -690.5781944740937206
    Two-Electron Energy =                 268.6823327602314748
    DFT Exchange-Correlation Energy =       0.0000000000000000
    Empirical Dispersion Energy =           0.0000000000000000
    PCM Polarization Energy =               0.0000000000000000
    EFP Energy =                            0.0000000000000000
    Total Energy =                       -232.1392371689704532

  Mulliken Charges: (a.u.)
   Center  Symbol    Alpha    Beta     Spin     Total
       1     H     0.41222  0.41222  0.00000  0.17555
       2     C     3.07943  3.07943  0.00000 -0.15886
       3     O     4.30578  4.30578  0.00000 -0.61156
       4     H     0.43016  0.43016  0.00000  0.13968
       5     H     0.43058  0.43058  0.00000  0.13884
       6     C     2.98158  2.98158  0.00000  0.03684
       7     C     3.15970  3.15970  0.00000 -0.31940
       8     H     0.43403  0.43403  0.00000  0.13194
       9     H     0.43257  0.43257  0.00000  0.13486
      10     C     3.24796  3.24796  0.00000 -0.49591
      11     H     0.41478  0.41478  0.00000  0.17043
      12     H     0.41405  0.41405  0.00000  0.17190
      13     H     0.42099  0.42099  0.00000  0.15801
      14     H     0.41542  0.41542  0.00000  0.16915
      15     H     0.42073  0.42073  0.00000  0.15853

   Total alpha = 21.00000, Total beta = 21.00000, Total charge = -0.00000
