  ==> Input File <==

--------------------------------------------------------------------------
set {
	reference rhf
	basis 6-31G*
}

set_num_threads( 4 )
memory 2 gb

molecule MOL {
0 1

H	 -2.499100	 -0.730091	 -0.745082
O	 -2.347518	 -0.290803	 0.079804
C	 -1.184022	 0.487508	 -0.006784
C	 0.062599	 -0.378592	 0.031606
H	 -1.176523	 1.099369	 -0.904519
H	 -1.187323	 1.153111	 0.844927
O	 1.171513	 0.459272	 -0.058250
H	 0.050699	 -1.089204	 -0.797170
H	 0.078739	 -0.954914	 0.954740
C	 1.994956	 0.211655	 -1.153589
H	 1.459955	 0.345659	 -2.091910
H	 2.813352	 0.916988	 -1.113145
H	 2.397837	 -0.798683	 -1.127223

	symmetry c1
}
set optking {
	frozen_dihedral = ("
		10 7 4 8
	")
}

ee = optimize('scf')
oeprop('DIPOLE', 'QUADRUPOLE', 'MULLIKEN_CHARGES')
f=open( 'psi4out.xyz', 'w' )
f.write( "13  " )
f.write( str(ee) + "\n" )
f.write( MOL.save_string_xyz() )
f.close()
--------------------------------------------------------------------------

    Molecular point group: c1
  Charge       = 0
  Multiplicity = 1
  Basis Set: 6-31G*
  Basis Set:
  @DF-RHF Final Energy:  -267.94635614252826
    Total Energy =                       -267.9463561425284297
    Molecular point group: c1
  Basis Set: 6-31G*
  Basis Set:
  Basis Set: 6-31G*
  Basis Set:
  @DF-RHF Final Energy:  -267.94673783044493
    Total Energy =                       -267.9467378304448175
  Basis Set: 6-31G*
  Basis Set:
  Basis Set: 6-31G*
  Basis Set:
  @DF-RHF Final Energy:  -267.94684879555473
    Total Energy =                       -267.9468487955546721
  Basis Set: 6-31G*
  Basis Set:
  Basis Set: 6-31G*
  Basis Set:
  @DF-RHF Final Energy:  -267.94685014499350
    Total Energy =                       -267.9468501449932774
  Basis Set: 6-31G*
  Basis Set:
  Charge       = 0
  Multiplicity = 1
  Basis Set: 6-31G*
  Basis Set:

    Orbital Energies (a.u.)
    -----------------------

    Doubly Occupied:

       1A    -20.560588     2A    -20.559909     3A    -11.272178
       4A    -11.270821     5A    -11.268828     6A     -1.384832
       7A     -1.365077     8A     -1.017133     9A     -0.918498
      10A     -0.840987    11A     -0.709655    12A     -0.667649
      13A     -0.660912    14A     -0.642069    15A     -0.587855
      16A     -0.574998    17A     -0.549330    18A     -0.489067
      19A     -0.471776    20A     -0.461851    21A     -0.407011

  @DF-RHF Final Energy:  -267.94685028411288

   => Energetics <=

    Nuclear Repulsion Energy =            190.6122800146503096
    One-Electron Energy =                -743.7562129197614240
    Two-Electron Energy =                 285.1970826209981738
    DFT Exchange-Correlation Energy =       0.0000000000000000
    Empirical Dispersion Energy =           0.0000000000000000
    PCM Polarization Energy =               0.0000000000000000
    EFP Energy =                            0.0000000000000000
    Total Energy =                       -267.9468502841129407
    Molecular point group: c1
  Basis Set: 6-31G*
  Basis Set:

  -Total Gradient:
     Atom            X                  Y                   Z
    ------   -----------------  -----------------  -----------------
       1        0.000003157680     0.000004602811     0.000001695026
       2       -0.000001948377    -0.000002689796     0.000009625726
       3        0.000002526247    -0.000004454113    -0.000006436791
       4       -0.000316755123     0.000497688077    -0.000420810698
       5        0.000006206367    -0.000001019181     0.000006264428
       6       -0.000010329376     0.000005504339    -0.000000062801
       7        0.000289067287    -0.000423240668     0.000383098659
       8        0.000218104116    -0.000303446045     0.000226793597
       9       -0.000000012933     0.000007204927     0.000002888938
      10       -0.000182868102     0.000223052407    -0.000208817609
      11        0.000002118539    -0.000002039961     0.000003578484
      12       -0.000007686601    -0.000001463829     0.000003546735
      13       -0.000001579726     0.000000301029    -0.000001363695

  **** Optimization is complete! (in 5 steps) ****
    Final optimized geometry and variables:
    Molecular point group: c1

    Geometry (in Angstrom), charge = 0, multiplicity = 1:

    H           -2.457545602074    -0.826578990086    -0.441911509768
    O           -2.282076677868    -0.362630037529     0.364545663847
    C           -1.116922112089     0.405936343296     0.225945184363
    C            0.130654355608    -0.463540283669     0.236914581678
    H           -1.140097317876     1.006976917804    -0.680179596890
    H           -1.087339202249     1.084790200550     1.066626705167
    O            1.264804316669     0.354044600742     0.166192900577
    H            0.102647328289    -1.167420321023    -0.593253690591
    H            0.159734696347    -1.044022494998     1.152772082437
    C            2.119318724382     0.128447048200    -0.911165678172
    H            1.609057286034     0.258125311490    -1.863513419054
    H            2.920219292364     0.851897119165    -0.845099707052
    H            2.547130343078    -0.871027379104    -0.880745335524

  Mulliken Charges: (a.u.)
   Center  Symbol    Alpha    Beta     Spin     Total
       1     H     0.28183  0.28183  0.00000  0.43635
       2     O     4.37010  4.37010  0.00000 -0.74019
       3     C     3.00346  3.00346  0.00000 -0.00692
       4     C     3.00136  3.00136  0.00000 -0.00273
       5     H     0.42804  0.42804  0.00000  0.14391
       6     H     0.40752  0.40752  0.00000  0.18497
       7     O     4.30915  4.30915  0.00000 -0.61830
       8     H     0.43600  0.43600  0.00000  0.12800
       9     H     0.41356  0.41356  0.00000  0.17288
      10     C     3.07960  3.07960  0.00000 -0.15920
      11     H     0.43106  0.43106  0.00000  0.13788
      12     H     0.41102  0.41102  0.00000  0.17796
      13     H     0.42731  0.42731  0.00000  0.14539

   Total alpha = 21.00000, Total beta = 21.00000, Total charge =  0.00000
