  ==> Input File <==

--------------------------------------------------------------------------
set {
	reference rhf
	basis 6-31G*
}

set_num_threads( 4 )
memory 2 gb

molecule MOL {
0 1

H	 3.463771	 0.168298	 -0.756243
C	 2.752674	 -0.045734	 0.033351
C	 1.322923	 0.120767	 -0.479465
H	 2.934561	 -1.059086	 0.377456
H	 2.958358	 0.631174	 0.856809
C	 0.306652	 -0.176050	 0.621399
H	 1.144658	 -0.551717	 -1.312180
H	 1.166477	 1.131798	 -0.836680
N	 -1.068537	 -0.011044	 0.085269
H	 0.372515	 -1.192590	 0.973735
H	 0.391664	 0.520566	 1.441230
O	 -1.199704	 0.642417	 -0.903243
O	 -1.954343	 -0.519771	 0.702172

	symmetry c1
}
set optking {
	frozen_dihedral = ("
		12 9 6 3
	")
}

ee = optimize('scf')
oeprop('DIPOLE', 'QUADRUPOLE', 'MULLIKEN_CHARGES')
f=open( 'psi4out.xyz', 'w' )
f.write( "13  " )
f.write( str(ee) + "\n" )
f.write( MOL.save_string_xyz() )
f.close()
--------------------------------------------------------------------------

    Molecular point group: c1
  Charge       = 0
  Multiplicity = 1
  Basis Set: 6-31G*
  Basis Set:
  @DF-RHF Final Energy:  -321.73358761205498
    Total Energy =                       -321.7335876120549756
    Molecular point group: c1
  Basis Set: 6-31G*
  Basis Set:
  Basis Set: 6-31G*
  Basis Set:
  @DF-RHF Final Energy:  -321.73344484739994
    Total Energy =                       -321.7334448473995963
  Basis Set: 6-31G*
  Basis Set:
  Basis Set: 6-31G*
  Basis Set:
  @DF-RHF Final Energy:  -321.73135617590498
    Total Energy =                       -321.7313561759050344
  Basis Set: 6-31G*
  Basis Set:
  Basis Set: 6-31G*
  Basis Set:
  @DF-RHF Final Energy:  -321.73206447572977
    Total Energy =                       -321.7320644757295440
  Basis Set: 6-31G*
  Basis Set:
  Basis Set: 6-31G*
  Basis Set:
  @DF-RHF Final Energy:  -321.73470892970568
    Total Energy =                       -321.7347089297057892
  Basis Set: 6-31G*
  Basis Set:
  Basis Set: 6-31G*
  Basis Set:
  @DF-RHF Final Energy:  -321.73504675421208
    Total Energy =                       -321.7350467542120214
  Basis Set: 6-31G*
  Basis Set:
  Basis Set: 6-31G*
  Basis Set:
  @DF-RHF Final Energy:  -321.73505903747377
    Total Energy =                       -321.7350590374737180
  Basis Set: 6-31G*
  Basis Set:
  Charge       = 0
  Multiplicity = 1
  Basis Set: 6-31G*
  Basis Set:

    Orbital Energies (a.u.)
    -----------------------

    Doubly Occupied:

       1A    -20.603482     2A    -20.599182     3A    -15.848766
       4A    -11.301060     5A    -11.250219     6A    -11.237661
       7A     -1.632006     8A     -1.417252     9A     -1.133069
      10A     -1.027401    11A     -0.884750    12A     -0.826125
      13A     -0.760381    14A     -0.747973    15A     -0.725683
      16A     -0.657671    17A     -0.607294    18A     -0.577893
      19A     -0.552820    20A     -0.522914    21A     -0.510132
      22A     -0.485058    23A     -0.473094    24A     -0.449006

  @DF-RHF Final Energy:  -321.73505959260746

   => Energetics <=

    Nuclear Repulsion Energy =            247.0495245867284098
    One-Electron Energy =                -927.9073870512073654
    Two-Electron Energy =                 359.1228028718714427
    DFT Exchange-Correlation Energy =       0.0000000000000000
    Empirical Dispersion Energy =           0.0000000000000000
    PCM Polarization Energy =               0.0000000000000000
    EFP Energy =                            0.0000000000000000
    Total Energy =                       -321.7350595926075698
    Molecular point group: c1
  Basis Set: 6-31G*
  Basis Set:

  -Total Gradient:
     Atom            X                  Y                   Z
    ------   -----------------  -----------------  -----------------
       1       -0.000005313492    -0.000001664348    -0.000004624871
       2        0.000001372629    -0.000014504244     0.000015965379
       3       -0.000027115481     0.000202527393     0.000066925608
       4        0.000002802609    -0.000002029108     0.000001248398
       5       -0.000006927416    -0.000000156782    -0.000003474867
       6        0.000030146649    -0.000316722680    -0.000112648341
       7       -0.000017562855    -0.000009851502     0.000009920931
       8        0.000001539071     0.000002390928     0.000002681565
       9        0.000041182548     0.000276545421     0.000124158084
      10        0.000010331942     0.000006092120     0.000011158642
      11        0.000033852655     0.000013780366    -0.000006919754
      12       -0.000041776987    -0.000212922696    -0.000039706259
      13       -0.000022531874     0.000056515131    -0.000064684513

  **** Optimization is complete! (in 8 steps) ****
    Final optimized geometry and variables:
    Molecular point group: c1

    Geometry (in Angstrom), charge = 0, multiplicity = 1:

    H            3.509961748500     0.153636903828    -0.740199789458
    C            2.775397756892    -0.055435411274     0.028926780195
    C            1.361232861829     0.139218790298    -0.520349445825
    H            2.934917694845    -1.073813285847     0.370109490432
    H            2.972872270597     0.611015014207     0.863302169576
    C            0.328029196892    -0.152275535379     0.554517954051
    H            1.196690567960    -0.519263926925    -1.365967204390
    H            1.233817179112     1.151521755953    -0.880067704704
    N           -1.079007215547    -0.014496082252     0.080242686797
    H            0.393078637838    -1.157035987634     0.942635132418
    H            0.399668854515     0.535962899395     1.387361102644
    O           -1.287988263509     0.628612893823    -0.900593291541
    O           -1.913430709489    -0.545761317304     0.746639525831

  Mulliken Charges: (a.u.)
   Center  Symbol    Alpha    Beta     Spin     Total
       1     H     0.40756  0.40756  0.00000  0.18488
       2     C     3.25004  3.25004  0.00000 -0.50007
       3     C     3.16599  3.16599  0.00000 -0.33197
       4     H     0.41620  0.41620  0.00000  0.16761
       5     H     0.41644  0.41644  0.00000  0.16711
       6     C     3.08865  3.08865  0.00000 -0.17730
       7     H     0.40460  0.40460  0.00000  0.19081
       8     H     0.39777  0.39777  0.00000  0.20446
       9     N     3.22420  3.22420  0.00000  0.55160
      10     H     0.38597  0.38597  0.00000  0.22806
      11     H     0.38537  0.38537  0.00000  0.22927
      12     O     4.22817  4.22817  0.00000 -0.45634
      13     O     4.22906  4.22906  0.00000 -0.45811

   Total alpha = 24.00000, Total beta = 24.00000, Total charge = -0.00000
