                              Psi4 1.0.54 Driver

  ==> Input File <==

--------------------------------------------------------------------------
set {
	reference rhf
	basis cc-pvtz
}

set_num_threads( 4 )
memory 2 gb

molecule MOL {
0 1

H	 -2.123894	 -0.667238	 -0.609809
O	 -2.041679	 -0.058866	 0.103463
C	 -0.959304	 0.780994	 -0.094939
C	 0.354905	 0.037902	 -0.006215
H	 -0.985899	 1.279578	 -1.057596
H	 -0.969809	 1.529522	 0.682889
F	 0.298928	 -0.914987	 0.907382
F	 0.636700	 -0.532203	 -1.159111
F	 1.356067	 0.824332	 0.308705

	symmetry c1
}
set optking {
	frozen_dihedral = ("
		7 4 3 5
	")
}

ee,wfn = optimize('scf', return_wfn=True)
oeprop( wfn, 'DIPOLE', 'QUADRUPOLE', 'MULLIKEN_CHARGES')
f=open( 'psi4out.xyz', 'w' )
f.write( "9  " )
f.write( str(ee) + "\n" )
f.write( MOL.save_string_xyz() )
f.close()
--------------------------------------------------------------------------

    Molecular point group: c1
  Charge       = 0
  Multiplicity = 1
  Basis Set: CC-PVTZ
  Basis Set:
  @DF-RHF Final Energy:  -450.84380724664805
    Total Energy =                       -450.8438072466482254
    Molecular point group: c1
  Basis Set: CC-PVTZ
  Basis Set:
  Basis Set: CC-PVTZ
  Basis Set:
  @DF-RHF Final Energy:  -450.84434519097374
    Total Energy =                       -450.8443451909739110
  Basis Set: CC-PVTZ
  Basis Set:
  Basis Set: CC-PVTZ
  Basis Set:
  @DF-RHF Final Energy:  -450.84452889931742
    Total Energy =                       -450.8445288993173676
  Basis Set: CC-PVTZ
  Basis Set:
  Basis Set: CC-PVTZ
  Basis Set:
  @DF-RHF Final Energy:  -450.84454321675480
    Total Energy =                       -450.8445432167547438
  Basis Set: CC-PVTZ
  Basis Set:
  Basis Set: CC-PVTZ
  Basis Set:
  @DF-RHF Final Energy:  -450.84454587838457
    Total Energy =                       -450.8445458783845083
  Basis Set: CC-PVTZ
  Basis Set:
  Charge       = 0
  Multiplicity = 1
  Basis Set: CC-PVTZ
  Basis Set:

    Orbital Energies (a.u.)
    -----------------------

    Doubly Occupied:

       1A    -26.339862     2A    -26.335545     3A    -26.335262
       4A    -20.582866     5A    -11.493264     6A    -11.310344
       7A     -1.746834     8A     -1.645162     9A     -1.639852
      10A     -1.405905    11A     -1.048323    12A     -0.929123
      13A     -0.835989    14A     -0.835573    15A     -0.809121
      16A     -0.733948    17A     -0.718990    18A     -0.702001
      19A     -0.670958    20A     -0.663882    21A     -0.647764
      22A     -0.632545    23A     -0.615617    24A     -0.533681
      25A     -0.484246

  @DF-RHF Final Energy:  -450.84454612249630

   => Energetics <=

    Nuclear Repulsion Energy =            277.3310973947913567
    One-Electron Energy =               -1176.9579795345537150
    Two-Electron Energy =                 448.7823360172659477
    DFT Exchange-Correlation Energy =       0.0000000000000000
    Empirical Dispersion Energy =           0.0000000000000000
    PCM Polarization Energy =               0.0000000000000000
    EFP Energy =                            0.0000000000000000
    Total Energy =                       -450.8445461224963537
    Molecular point group: c1
  Basis Set: CC-PVTZ
  Basis Set:

  -Total Gradient:
     Atom            X                  Y                   Z
    ------   -----------------  -----------------  -----------------
       1        0.000019369683    -0.000006074292    -0.000008388530
       2       -0.000002289549     0.000018867308     0.000031664738
       3        0.002616582995     0.004142790092     0.001469615815
       4        0.001758068737     0.002998888832     0.003877120587
       5       -0.002647030062    -0.004250606984    -0.002106344299
       6       -0.000018764959     0.000013350411     0.000011716950
       7       -0.001749704979    -0.002890940126    -0.003247950775
       8       -0.000006114228    -0.000061814607    -0.000059233566
       9        0.000029882364     0.000035539371     0.000031799084

  **** Optimization is complete! (in 6 steps) ****
    Final optimized geometry and variables:
    Molecular point group: c1

    Geometry (in Angstrom), charge = 0, multiplicity = 1:

    H           -2.193319527268    -0.491459298428    -0.635102791951
    O           -2.049144597523     0.064770380115     0.109978019978
    C           -0.914976217141     0.842445659390    -0.067661885713
    C            0.359438421584     0.017908925123    -0.000519099107
    H           -0.925316084549     1.331350043680    -1.034668427302
    H           -0.890002791986     1.578818645042     0.719906440501
    F            0.302924199524    -0.926830593368     0.904562265551
    F            0.587460337368    -0.581723245753    -1.159551889879
    F            1.398352681830     0.782288193522     0.255851816754

  Mulliken Charges: (a.u.)
   Center  Symbol    Alpha    Beta     Spin     Total
       1     H     0.38847  0.38847  0.00000  0.22306
       2     O     4.18985  4.18985  0.00000 -0.37971
       3     C     2.99413  2.99413  0.00000  0.01175
       4     C     2.68598  2.68598  0.00000  0.62804
       5     H     0.46068  0.46068  0.00000  0.07865
       6     H     0.44666  0.44666  0.00000  0.10668
       7     F     4.60502  4.60502  0.00000 -0.21003
       8     F     4.61829  4.61829  0.00000 -0.23658
       9     F     4.61092  4.61092  0.00000 -0.22185

   Total alpha = 25.00000, Total beta = 25.00000, Total charge =  0.00000

*** Psi4 exiting successfully. Buy a developer a beer!
