  ==> Input File <==

--------------------------------------------------------------------------
set {
	reference rhf
	basis cc-pvtz
}

set_num_threads( 4 )
memory 2 gb

molecule MOL {
0 1

H	 -2.362939	 -1.309000	 -0.383250
C	 -1.359344	 -1.272457	 0.020748
C	 -0.684082	 0.000127	 -0.464918
H	 -0.825835	 -2.151141	 -0.318537
H	 -1.416276	 -1.292399	 1.099455
C	 -1.359089	 1.272668	 0.021259
N	 0.742439	 -0.000109	 0.007333
H	 -0.596914	 0.000345	 -1.538146
H	 -2.362696	 1.309620	 -0.382686
H	 -0.825392	 2.151374	 -0.317674
H	 -1.415983	 1.292181	 1.099973
O	 0.928426	 -0.000373	 1.177398
O	 1.592161	 -0.000184	 -0.819868

	symmetry c1
}
set optking {
	frozen_dihedral = ("
		12 7 3 8
	")
}

ee = optimize('scf')
oeprop('DIPOLE', 'QUADRUPOLE', 'MULLIKEN_CHARGES')
f=open( 'psi4out.xyz', 'w' )
f.write( "13  " )
f.write( str(ee) + "\n" )
f.write( MOL.save_string_xyz() )
f.close()
--------------------------------------------------------------------------

    Molecular point group: c1
  Charge       = 0
  Multiplicity = 1
  Basis Set: CC-PVTZ
  Basis Set:
  @DF-RHF Final Energy:  -321.86462605065395
    Total Energy =                       -321.8646260506537828
    Molecular point group: c1
  Basis Set: CC-PVTZ
  Basis Set:
  Basis Set: CC-PVTZ
  Basis Set:
  @DF-RHF Final Energy:  -321.86462954115416
    Total Energy =                       -321.8646295411539882
  Basis Set: CC-PVTZ
  Basis Set:
  Basis Set: CC-PVTZ
  Basis Set:
  @DF-RHF Final Energy:  -321.86452007995103
    Total Energy =                       -321.8645200799509212
  Basis Set: CC-PVTZ
  Basis Set:
  Charge       = 0
  Multiplicity = 1
  Basis Set: CC-PVTZ
  Basis Set:

    Orbital Energies (a.u.)
    -----------------------

    Doubly Occupied:

       1A    -20.590615     2A    -20.587630     3A    -15.832552
       4A    -11.304109     5A    -11.243236     6A    -11.243222
       7A     -1.633877     8A     -1.418170     9A     -1.142657
      10A     -0.974374    11A     -0.957232    12A     -0.816696
      13A     -0.751235    14A     -0.733122    15A     -0.726611
      16A     -0.650797    17A     -0.595283    18A     -0.588848
      19A     -0.570778    20A     -0.529788    21A     -0.522948
      22A     -0.485764    23A     -0.469543    24A     -0.452316

  @DF-RHF Final Energy:  -321.86463056664502

   => Energetics <=

    Nuclear Repulsion Energy =            257.3235336748624604
    One-Electron Energy =                -948.7335248184143666
    Two-Electron Energy =                 369.5453605769069441
    DFT Exchange-Correlation Energy =       0.0000000000000000
    Empirical Dispersion Energy =           0.0000000000000000
    PCM Polarization Energy =               0.0000000000000000
    EFP Energy =                            0.0000000000000000
    Total Energy =                       -321.8646305666449621
    Molecular point group: c1
  Basis Set: CC-PVTZ
  Basis Set:

  -Total Gradient:
     Atom            X                  Y                   Z
    ------   -----------------  -----------------  -----------------
       1       -0.000002082364    -0.000001847627     0.000001671126
       2        0.000000691657    -0.000000350853     0.000000803638
       3        0.000023976819    -0.000004172350    -0.000062954844
       4        0.000000285012     0.000003813836    -0.000001142822
       5       -0.000003759223    -0.000005580118     0.000004164943
       6       -0.000003302863     0.000003427460     0.000008037659
       7       -0.000098614605     0.000037892044     0.000239273799
       8        0.000016844544    -0.000008394842     0.000013640201
       9       -0.000002162223     0.000002250276     0.000001751922
      10        0.000000683790    -0.000004627894    -0.000001457606
      11       -0.000004788864     0.000006482952     0.000004801675
      12        0.000015002229    -0.000015255381    -0.000112983389
      13        0.000057226091    -0.000013637504    -0.000095606302

  **** Optimization is complete! (in 4 steps) ****
    Final optimized geometry and variables:
    Molecular point group: c1

    Geometry (in Angstrom), charge = 0, multiplicity = 1:

    H           -2.362903598228    -1.308982641143    -0.383703624671
    C           -1.359365042014    -1.272375899275     0.020443093435
    C           -0.684038283764     0.000239922399    -0.465070489978
    H           -0.825750389208    -2.150999538908    -0.318805246655
    H           -1.416519082510    -1.292425422789     1.099150529814
    C           -1.359145257217     1.272766171562     0.020991512213
    N            0.742403234763    -0.000042897239     0.007629866868
    H           -0.596369879268     0.000394653319    -1.538228846644
    H           -2.362678870425     1.309730370613    -0.383134730277
    H           -0.825375232840     2.151441476535    -0.317878544810
    H           -1.416292879743     1.292362617894     1.099707912118
    O            0.930692358305    -0.000246816127     1.178348505429
    O            1.589938595502    -0.000284294208    -0.820391312977

  Mulliken Charges: (a.u.)
   Center  Symbol    Alpha    Beta     Spin     Total
       1     H     0.44909  0.44909  0.00000  0.10182
       2     C     3.14435  3.14435  0.00000 -0.28871
       3     C     3.00760  3.00760  0.00000 -0.01520
       4     H     0.44077  0.44077  0.00000  0.11845
       5     H     0.43874  0.43874  0.00000  0.12251
       6     C     3.14436  3.14436  0.00000 -0.28871
       7     N     3.27557  3.27557  0.00000  0.44886
       8     H     0.42464  0.42464  0.00000  0.15072
       9     H     0.44909  0.44909  0.00000  0.10182
      10     H     0.44078  0.44078  0.00000  0.11844
      11     H     0.43874  0.43874  0.00000  0.12252
      12     O     4.17787  4.17787  0.00000 -0.35574
      13     O     4.16839  4.16839  0.00000 -0.33678

   Total alpha = 24.00000, Total beta = 24.00000, Total charge =  0.00000
