  ==> Input File <==

--------------------------------------------------------------------------
set {
	reference rhf
	basis 6-31G*
}

set_num_threads( 4 )
memory 2 gb

molecule MOL {
0 1

H	 -3.086276	 1.891725	 -0.203888
O	 -2.676702	 2.033018	 0.638809
C	 -1.289143	 1.951176	 0.490671
C	 -0.793441	 0.596080	 0.058728
H	 -0.866538	 2.202536	 1.456811
H	 -0.929840	 2.703209	 -0.211022
C	 -1.530462	 -0.493172	 -0.025500
H	 0.255661	 0.553409	 -0.190362
H	 -1.092586	 -1.461565	 -0.186463
H	 -2.602122	 -0.450675	 0.050101

	symmetry c1
}
set optking {
	frozen_dihedral = ("
		3 4 7 9
	")
}

ee = optimize('scf')
oeprop('DIPOLE', 'QUADRUPOLE', 'MULLIKEN_CHARGES')
f=open( 'psi4out.xyz', 'w' )
f.write( "10  " )
f.write( str(ee) + "\n" )
f.write( MOL.save_string_xyz() )
f.close()
--------------------------------------------------------------------------

    Molecular point group: c1
  Charge       = 0
  Multiplicity = 1
  Basis Set: 6-31G*
  Basis Set:
  @DF-RHF Final Energy:  -191.91436108352505
    Total Energy =                       -191.9143610835250229
    Molecular point group: c1
  Basis Set: 6-31G*
  Basis Set:
  Basis Set: 6-31G*
  Basis Set:
  @DF-RHF Final Energy:  -191.91598000126706
    Total Energy =                       -191.9159800012670871
  Basis Set: 6-31G*
  Basis Set:
  Basis Set: 6-31G*
  Basis Set:
  @DF-RHF Final Energy:  -191.91624062321299
    Total Energy =                       -191.9162406232129570
  Basis Set: 6-31G*
  Basis Set:
  Basis Set: 6-31G*
  Basis Set:
  @DF-RHF Final Energy:  -191.91624439269268
    Total Energy =                       -191.9162443926926471
  Basis Set: 6-31G*
  Basis Set:
  Charge       = 0
  Multiplicity = 1
  Basis Set: 6-31G*
  Basis Set:

    Orbital Energies (a.u.)
    -----------------------

    Doubly Occupied:

       1A    -20.560709     2A    -11.278514     3A    -11.230680
       4A    -11.218912     5A     -1.369204     6A     -1.057753
       7A     -0.928169     8A     -0.768565     9A     -0.687457
      10A     -0.661051    11A     -0.615957    12A     -0.570573
      13A     -0.538576    14A     -0.490784    15A     -0.448231
      16A     -0.363907

  @DF-RHF Final Energy:  -191.91624477307391

   => Energetics <=

    Nuclear Repulsion Energy =            119.3488540608735633
    One-Electron Energy =                -496.9521117923455904
    Two-Electron Energy =                 185.6870129583980713
    DFT Exchange-Correlation Energy =       0.0000000000000000
    Empirical Dispersion Energy =           0.0000000000000000
    PCM Polarization Energy =               0.0000000000000000
    EFP Energy =                            0.0000000000000000
    Total Energy =                       -191.9162447730739416
    Molecular point group: c1
  Basis Set: 6-31G*
  Basis Set:

  -Total Gradient:
     Atom            X                  Y                   Z
    ------   -----------------  -----------------  -----------------
       1        0.000008908689     0.000001651293     0.000006884664
       2       -0.000008523719    -0.000030586302     0.000021305474
       3        0.001225711735    -0.001074331592     0.004516588311
       4       -0.001720515592     0.001424672229    -0.004628072295
       5       -0.000007081874    -0.000020641550    -0.000007020526
       6        0.000028901305     0.000005884369     0.000000917080
       7       -0.000256702128     0.000587276745    -0.006381966572
       8       -0.000017201597     0.000017570630    -0.000094959137
       9        0.000743242673    -0.000898707040     0.006537822534
      10        0.000003260507    -0.000012788780     0.000028500466

  **** Optimization is complete! (in 5 steps) ****
    Final optimized geometry and variables:
    Molecular point group: c1

    Geometry (in Angstrom), charge = 0, multiplicity = 1:

    H           -1.445437007392     0.857598240647    -0.525538506976
    O           -1.050648720831     0.957180942087     0.330032894099
    C            0.338882331607     0.867716952765     0.204690022786
    C            0.832227708745    -0.479791739196    -0.252846005473
    H            0.745783789486     1.073127375982     1.188092511247
    H            0.717821186567     1.645228065026    -0.457983490030
    C            0.102436041862    -1.575082251218    -0.320697253492
    H            1.890872164951    -0.529146625045    -0.456809095141
    H            0.549264767547    -2.535853052739    -0.503079150671
    H           -0.947642286288    -1.566834695957    -0.090671504125

  Mulliken Charges: (a.u.)
   Center  Symbol    Alpha    Beta     Spin     Total
       1     H     0.28065  0.28065  0.00000  0.43870
       2     O     4.36692  4.36692  0.00000 -0.73383
       3     C     3.00016  3.00016  0.00000 -0.00032
       4     C     3.09498  3.09498  0.00000 -0.18996
       5     H     0.40758  0.40758  0.00000  0.18483
       6     H     0.42617  0.42617  0.00000  0.14766
       7     C     3.19596  3.19596  0.00000 -0.39192
       8     H     0.41065  0.41065  0.00000  0.17871
       9     H     0.41080  0.41080  0.00000  0.17841
      10     H     0.40613  0.40613  0.00000  0.18774

   Total alpha = 16.00000, Total beta = 16.00000, Total charge = -0.00000
