  ==> Input File <==

--------------------------------------------------------------------------
set {
	reference rhf
	basis 6-31G*
}

set_num_threads( 1 )
memory 2 gb

molecule MOL {
0 1

H	 2.176868	 -0.646004	 -0.217325
O	 1.337496	 -0.537251	 0.205931
C	 0.702312	 0.627605	 -0.264544
C	 -0.714990	 0.596302	 0.266387
H	 0.682322	 0.642550	 -1.350929
H	 1.215941	 1.520383	 0.085680
O	 -1.405996	 -0.526611	 -0.195820
H	 -1.257453	 1.468809	 -0.075599
H	 -0.688972	 0.618407	 1.353696
H	 -2.334126	 -0.350779	 -0.108228

	symmetry c1
}
set optking {
	frozen_dihedral = ("
		5 3 4 7
	")
}

ee = energy('scf')
oeprop('DIPOLE', 'QUADRUPOLE', 'MULLIKEN_CHARGES')
f=open( 'psi4out.xyz', 'w' )
f.write( "10  " )
f.write( str(ee) + "\n" )
f.write( MOL.save_string_xyz() )
f.close()
--------------------------------------------------------------------------

    Molecular point group: c1

    Geometry (in Angstrom), charge = 0, multiplicity = 1:

       Center              X                  Y                   Z               Mass
    ------------   -----------------  -----------------  -----------------  -----------------
           H          2.200318847753    -0.661306629263    -0.215208330725     1.007825032070
           O          1.360946847753    -0.552553629263     0.208047669275    15.994914619560
           C          0.725762847753     0.612302370737    -0.262427330725    12.000000000000
           C         -0.691539152247     0.580999370737     0.268503669275    12.000000000000
           H          0.705772847753     0.627247370737    -1.348812330725     1.007825032070
           H          1.239391847753     1.505080370737     0.087796669275     1.007825032070
           O         -1.382545152247    -0.541913629263    -0.193703330725    15.994914619560
           H         -1.234002152247     1.453506370737    -0.073482330725     1.007825032070
           H         -0.665521152247     0.603104370737     1.355812669275     1.007825032070
           H         -2.310675152247    -0.366081629263    -0.106111330725     1.007825032070

  Charge       = 0
  Multiplicity = 1
  Basis Set: 6-31G*
  Basis Set:

    Orbital Energies (a.u.)
    -----------------------

    Doubly Occupied:

       1A    -20.551067     2A    -20.550769     3A    -11.272250
       4A    -11.269290     5A     -1.370140     6A     -1.347848
       7A     -1.000104     8A     -0.831268     9A     -0.719874
      10A     -0.692628    11A     -0.629155    12A     -0.595122
      13A     -0.581568    14A     -0.518517    15A     -0.480284
      16A     -0.440364    17A     -0.433934

  @DF-RHF Final Energy:  -228.91661757325301

   => Energetics <=

    Nuclear Repulsion Energy =            133.6654116260381215
    One-Electron Energy =                -578.5957061392823562
    Two-Electron Energy =                 216.0136769399911714
    DFT Exchange-Correlation Energy =       0.0000000000000000
    Empirical Dispersion Energy =           0.0000000000000000
    PCM Polarization Energy =               0.0000000000000000
    EFP Energy =                            0.0000000000000000
    Total Energy =                       -228.9166175732530633

  Mulliken Charges: (a.u.)
   Center  Symbol    Alpha    Beta     Spin     Total
       1     H     0.28030  0.28030  0.00000  0.43939
       2     O     4.36541  4.36541  0.00000 -0.73083
       3     C     3.00082  3.00082  0.00000 -0.00163
       4     C     2.99861  2.99861  0.00000  0.00278
       5     H     0.42517  0.42517  0.00000  0.14967
       6     H     0.42969  0.42969  0.00000  0.14061
       7     O     4.36247  4.36247  0.00000 -0.72495
       8     H     0.43405  0.43405  0.00000  0.13191
       9     H     0.42264  0.42264  0.00000  0.15471
      10     H     0.28083  0.28083  0.00000  0.43834

   Total alpha = 17.00000, Total beta = 17.00000, Total charge = -0.00000
