                              Psi4 1.0.54 Driver

  ==> Input File <==

--------------------------------------------------------------------------
set {
	reference rhf
	basis cc-pvtz
}

set_num_threads( 4 )
memory 2 gb

molecule MOL {
0 1

O	 -2.071633	 -1.227563	 -0.223463
C	 -1.652164	 -0.152425	 0.058082
C	 -0.327811	 0.006324	 0.778296
C	 -2.402515	 1.108629	 -0.298924
C	 0.575068	 1.014603	 0.057457
H	 -0.492821	 0.326525	 1.801706
H	 0.152830	 -0.963441	 0.797719
C	 1.927264	 1.189408	 0.742467
H	 0.076664	 1.978928	 -0.000541
H	 0.723041	 0.680058	 -0.963596
C	 2.833417	 2.181864	 0.021995
H	 1.772761	 1.518579	 1.766332
H	 2.423357	 0.225152	 0.802815
H	 2.379021	 3.165978	 -0.023596
H	 3.031726	 1.862618	 -0.995416
H	 3.785851	 2.280977	 0.529387
H	 -3.240910	 0.874416	 -0.936711
H	 -1.747554	 1.818823	 -0.790984
H	 -2.760419	 1.579708	 0.610998

	symmetry c1
}
set optking {
	frozen_dihedral = ("
		5 3 2 4
	")
}

ee,wfn = optimize('scf', return_wfn=True)
oeprop( wfn, 'DIPOLE', 'QUADRUPOLE', 'MULLIKEN_CHARGES')
f=open( 'psi4out.xyz', 'w' )
f.write( "19  " )
f.write( str(ee) + "\n" )
f.write( MOL.save_string_xyz() )
f.close()
--------------------------------------------------------------------------

    Molecular point group: c1
  Charge       = 0
  Multiplicity = 1
  Basis Set: CC-PVTZ
  Basis Set:
  @DF-RHF Final Energy:  -309.17388170592164
    Total Energy =                       -309.1738817059217581
    Molecular point group: c1
  Basis Set: CC-PVTZ
  Basis Set:
  Basis Set: CC-PVTZ
  Basis Set:
  @DF-RHF Final Energy:  -309.13684847690934
    Total Energy =                       -309.1368484769090514
  Basis Set: CC-PVTZ
  Basis Set:
  Basis Set: CC-PVTZ
  Basis Set:
  @DF-RHF Final Energy:  -309.17465656204871
    Total Energy =                       -309.1746565620485399
  Basis Set: CC-PVTZ
  Basis Set:
  Basis Set: CC-PVTZ
  Basis Set:
  @DF-RHF Final Energy:  -309.17623276554082
    Total Energy =                       -309.1762327655409308
  Basis Set: CC-PVTZ
  Basis Set:
  @DF-RHF Final Energy:  -309.15688889947683
    Total Energy =                       -309.1568888994767121
  @DF-RHF Final Energy:  -309.17599194886566
    Total Energy =                       -309.1759919488658852
  @DF-RHF Final Energy:  -309.17641990585292
    Total Energy =                       -309.1764199058530380
  @DF-RHF Final Energy:  -309.17630743738653
    Total Energy =                       -309.1763074373869813
  @DF-RHF Final Energy:  -309.17662467921866
    Total Energy =                       -309.1766246792184916
  Basis Set: CC-PVTZ
  Basis Set:
  @DF-RHF Final Energy:  -309.17666978491974
    Total Energy =                       -309.1766697849196248
  Basis Set: CC-PVTZ
  Basis Set:
  Basis Set: CC-PVTZ
  Basis Set:
  @DF-RHF Final Energy:  -309.17668790578375
    Total Energy =                       -309.1766879057840356
  Basis Set: CC-PVTZ
  Basis Set:
  Basis Set: CC-PVTZ
  Basis Set:
  @DF-RHF Final Energy:  -309.17668972381341
    Total Energy =                       -309.1766897238133538
  Basis Set: CC-PVTZ
  Basis Set:
  Charge       = 0
  Multiplicity = 1
  Basis Set: CC-PVTZ
  Basis Set:

    Orbital Energies (a.u.)
    -----------------------

    Doubly Occupied:

       1A    -20.537006     2A    -11.319621     3A    -11.230717
       4A    -11.228735     5A    -11.226338     6A    -11.224926
       7A    -11.215260     8A     -1.396905     9A     -1.095749
      10A     -1.030262    11A     -0.983170    12A     -0.895452
      13A     -0.810420    14A     -0.733827    15A     -0.665136
      16A     -0.648892    17A     -0.629179    18A     -0.614823
      19A     -0.584438    20A     -0.575423    21A     -0.555686
      22A     -0.533639    23A     -0.514235    24A     -0.501426
      25A     -0.486507    26A     -0.479114    27A     -0.474289
      28A     -0.399585

  @DF-RHF Final Energy:  -309.17668980287561

   => Energetics <=

    Nuclear Repulsion Energy =            301.7112112636496590
    One-Electron Energy =               -1016.5942863339028008
    Two-Electron Energy =                 405.7063852673776978
    DFT Exchange-Correlation Energy =       0.0000000000000000
    Empirical Dispersion Energy =           0.0000000000000000
    PCM Polarization Energy =               0.0000000000000000
    EFP Energy =                            0.0000000000000000
    Total Energy =                       -309.1766898028755008
    Molecular point group: c1
  Basis Set: CC-PVTZ
  Basis Set:

  -Total Gradient:
     Atom            X                  Y                   Z
    ------   -----------------  -----------------  -----------------
       1        0.000010429778     0.000012095072     0.000004932129
       2       -0.000786043749     0.000423282839     0.000563737391
       3        0.000592818991    -0.000779233109    -0.000292262165
       4        0.000442197714    -0.000149488497    -0.000357719227
       5       -0.000254695703     0.000495047162     0.000076899624
       6       -0.000004744339     0.000002008159     0.000003312066
       7        0.000007736953     0.000001677768     0.000000267739
       8        0.000000161324     0.000004130994     0.000000195072
       9       -0.000001010799    -0.000005760042     0.000004165813
      10       -0.000007503556    -0.000003831011    -0.000005105252
      11       -0.000006325549    -0.000000884627     0.000008603217
      12        0.000002674898     0.000001053735     0.000007631847
      13        0.000004772415     0.000002130065    -0.000001922084
      14       -0.000001180516    -0.000000208706    -0.000001456155
      15       -0.000000489112    -0.000002094184    -0.000001139930
      16       -0.000004125253    -0.000000052282    -0.000001626956
      17       -0.000005809650    -0.000001462989    -0.000007716148
      18        0.000009396373    -0.000001484516    -0.000006577731
      19        0.000001739780     0.000003074163     0.000005780750

  **** Optimization is complete! (in 13 steps) ****
    Final optimized geometry and variables:
    Molecular point group: c1

    Geometry (in Angstrom), charge = 0, multiplicity = 1:

    O           -1.910786977666    -1.786701156865    -0.587636209392
    C           -1.463007671529    -0.689628314811    -0.500787129207
    C           -0.456874570819    -0.339907707085     0.577903425027
    C           -1.887989258493     0.401223822929    -1.458246063455
    C            0.798649951867     0.382592686246     0.084786673187
    H           -0.970479851494     0.289451738705     1.302123745907
    H           -0.196537665672    -1.262453704496     1.078622283708
    C            1.802949909024     0.632497185574     1.206694688619
    H            0.530368856576     1.331577221414    -0.368116741949
    H            1.273295599076    -0.208816714352    -0.693931920176
    C            3.060587136236     1.351170695500     0.730636272466
    H            1.326930092106     1.216846042939     1.989316252353
    H            2.077753579462    -0.315846232686     1.658569820748
    H            2.821423521375     2.319898256304     0.304705161762
    H            3.576662343754     0.774653463135    -0.029644800737
    H            3.752123201084     1.512048007510     1.549227758854
    H           -2.762033750535     0.079228967832    -2.003109734426
    H           -1.086709652778     0.600273682414    -2.161134768157
    H           -2.096237253246     1.325929724732    -0.932546694130

  Mulliken Charges: (a.u.)
   Center  Symbol    Alpha    Beta     Spin     Total
       1     O     4.17228  4.17228  0.00000 -0.34456
       2     C     2.85808  2.85808  0.00000  0.28384
       3     C     3.09731  3.09731  0.00000 -0.19462
       4     C     3.16526  3.16526  0.00000 -0.33052
       5     C     3.10224  3.10224  0.00000 -0.20447
       6     H     0.44785  0.44785  0.00000  0.10430
       7     H     0.43806  0.43806  0.00000  0.12389
       8     C     3.08611  3.08611  0.00000 -0.17222
       9     H     0.45081  0.45081  0.00000  0.09838
      10     H     0.44676  0.44676  0.00000  0.10647
      11     C     3.14914  3.14914  0.00000 -0.29827
      12     H     0.45339  0.45339  0.00000  0.09322
      13     H     0.44972  0.44972  0.00000  0.10057
      14     H     0.45513  0.45513  0.00000  0.08973
      15     H     0.45366  0.45366  0.00000  0.09267
      16     H     0.44657  0.44657  0.00000  0.10686
      17     H     0.43200  0.43200  0.00000  0.13600
      18     H     0.44694  0.44694  0.00000  0.10611
      19     H     0.44870  0.44870  0.00000  0.10261

   Total alpha = 28.00000, Total beta = 28.00000, Total charge =  0.00000

*** Psi4 exiting successfully. Buy a developer a beer!
