                              Psi4 1.0.54 Driver

  ==> Input File <==

--------------------------------------------------------------------------
set {
	reference rhf
	basis cc-pvtz
}

set_num_threads( 4 )
memory 2 gb

molecule MOL {
0 1

O	 -0.294688	 1.318815	 -0.000872
C	 -0.448732	 0.145721	 -0.000187
C	 -1.780748	 -0.548101	 0.000195
O	 0.550743	 -0.719877	 0.000412
H	 -1.859389	 -1.183260	 -0.872613
H	 -2.570236	 0.185547	 -0.001342
H	 -1.860233	 -1.180337	 0.875064
C	 0.327916	 -1.966340	 0.629494
H	 0.091944	 -1.828594	 1.674182
H	 1.246346	 -2.520604	 0.524802
H	 -0.483495	 -2.494415	 0.151194

	symmetry c1
}
set optking {
	frozen_dihedral = ("
		8 4 2 1
	")
}

ee,wfn = optimize('scf', return_wfn=True)
oeprop( wfn, 'DIPOLE', 'QUADRUPOLE', 'MULLIKEN_CHARGES')
f=open( 'psi4out.xyz', 'w' )
f.write( "11  " )
f.write( str(ee) + "\n" )
f.write( MOL.save_string_xyz() )
f.close()
--------------------------------------------------------------------------

    Molecular point group: c1
  Charge       = 0
  Multiplicity = 1
  Basis Set: CC-PVTZ
  Basis Set:
  @DF-RHF Final Energy:  -266.91617770459499
    Total Energy =                       -266.9161777045949862
    Molecular point group: c1
  Basis Set: CC-PVTZ
  Basis Set:
  Basis Set: CC-PVTZ
  Basis Set:
  @DF-RHF Final Energy:  -266.91222187488552
    Total Energy =                       -266.9122218748852902
  Basis Set: CC-PVTZ
  Basis Set:
  Basis Set: CC-PVTZ
  Basis Set:
  @DF-RHF Final Energy:  -266.92059252972729
    Total Energy =                       -266.9205925297274007
  Basis Set: CC-PVTZ
  Basis Set:
  Basis Set: CC-PVTZ
  Basis Set:
  @DF-RHF Final Energy:  -266.92338626958497
    Total Energy =                       -266.9233862695849666
  Basis Set: CC-PVTZ
  Basis Set:
  @DF-RHF Final Energy:  -266.92341824832079
    Total Energy =                       -266.9234182483207860
  @DF-RHF Final Energy:  -266.92351089964905
    Total Energy =                       -266.9235108996488748
  Basis Set: CC-PVTZ
  Basis Set:
  @DF-RHF Final Energy:  -266.92354733463156
    Total Energy =                       -266.9235473346316212
  Basis Set: CC-PVTZ
  Basis Set:
  Basis Set: CC-PVTZ
  Basis Set:
  @DF-RHF Final Energy:  -266.92356823635407
    Total Energy =                       -266.9235682363541855
  Basis Set: CC-PVTZ
  Basis Set:
  Basis Set: CC-PVTZ
  Basis Set:
  @DF-RHF Final Energy:  -266.92357608238257
    Total Energy =                       -266.9235760823824535
  Basis Set: CC-PVTZ
  Basis Set:
  Charge       = 0
  Multiplicity = 1
  Basis Set: CC-PVTZ
  Basis Set:

    Orbital Energies (a.u.)
    -----------------------

    Doubly Occupied:

       1A    -20.593963     2A    -20.533862     3A    -11.371041
       4A    -11.295274     5A    -11.242152     6A     -1.467367
       7A     -1.371241     8A     -1.023425     9A     -0.983135
      10A     -0.784748    11A     -0.700000    12A     -0.688140
      13A     -0.681188    14A     -0.609166    15A     -0.594055
      16A     -0.578670    17A     -0.548118    18A     -0.512305
      19A     -0.456836    20A     -0.440681

  @DF-RHF Final Energy:  -266.92357765083261

   => Energetics <=

    Nuclear Repulsion Energy =            183.2309976674238499
    One-Electron Energy =                -727.3584141342507792
    Two-Electron Energy =                 277.2038388159942883
    DFT Exchange-Correlation Energy =       0.0000000000000000
    Empirical Dispersion Energy =           0.0000000000000000
    PCM Polarization Energy =               0.0000000000000000
    EFP Energy =                            0.0000000000000000
    Total Energy =                       -266.9235776508326694
    Molecular point group: c1
  Basis Set: CC-PVTZ
  Basis Set:

  -Total Gradient:
     Atom            X                  Y                   Z
    ------   -----------------  -----------------  -----------------
       1       -0.000021017338    -0.000095232093     0.003274993431
       2        0.000464781355     0.000783729624    -0.003349249909
       3       -0.000008800155     0.000010862711     0.000017033061
       4       -0.001390373393    -0.001644012486    -0.002372689299
       5        0.000007093685    -0.000007135974    -0.000004599902
       6        0.000017034082    -0.000015298860    -0.000002960812
       7        0.000012236044    -0.000003834626    -0.000011843995
       8        0.000934254027     0.000956965821     0.002443224695
       9       -0.000017461805     0.000019517633    -0.000003882073
      10        0.000003763266    -0.000010204957    -0.000003160096
      11       -0.000001509769     0.000004643210     0.000013134899

  **** Optimization is complete! (in 9 steps) ****
    Final optimized geometry and variables:
    Molecular point group: c1

    Geometry (in Angstrom), charge = 0, multiplicity = 1:

    O            0.074914953245     1.663246272066    -0.093509478875
    C           -0.150293892921     0.507801449564    -0.113492295832
    C           -1.549010742675    -0.056101225264    -0.149772452274
    O            0.861189345343    -0.362717382134    -0.128506242082
    H           -1.658843198617    -0.749979630151    -0.973600786758
    H           -2.241239135529     0.761208521705    -0.263452045590
    H           -1.773716119719    -0.587404158807     0.766650651663
    C            0.742479028615    -1.639376324933     0.448397311381
    H            0.472978481436    -1.571316599176     1.494909550895
    H            1.715384834403    -2.095607169057     0.367209373755
    H            0.021539187772    -2.255782356331    -0.072507854225

  Mulliken Charges: (a.u.)
   Center  Symbol    Alpha    Beta     Spin     Total
       1     O     4.17542  4.17542  0.00000 -0.35083
       2     C     2.81087  2.81087  0.00000  0.37826
       3     C     3.16454  3.16454  0.00000 -0.32907
       4     O     4.13332  4.13332  0.00000 -0.26663
       5     H     0.44395  0.44395  0.00000  0.11211
       6     H     0.42717  0.42717  0.00000  0.14566
       7     H     0.44825  0.44825  0.00000  0.10350
       8     C     3.04273  3.04273  0.00000 -0.08547
       9     H     0.45796  0.45796  0.00000  0.08407
      10     H     0.43411  0.43411  0.00000  0.13179
      11     H     0.46169  0.46169  0.00000  0.07662

   Total alpha = 20.00000, Total beta = 20.00000, Total charge = -0.00000

*** Psi4 exiting successfully. Buy a developer a beer!
