                              Psi4 1.0.54 Driver

  ==> Input File <==

--------------------------------------------------------------------------
set {
	reference rhf
	basis cc-pvtz
}

set_num_threads( 4 )
memory 2 gb

molecule MOL {
0 1

O	 -0.694481	 1.313155	 -0.204815
C	 -0.862519	 0.151932	 -0.046791
C	 -2.171428	 -0.477048	 0.339095
O	 0.085519	 -0.757083	 -0.192238
H	 -2.467997	 -1.191667	 -0.417688
H	 -2.923379	 0.287970	 0.444097
H	 -2.053854	 -1.015120	 1.270901
C	 -0.174111	 -2.090753	 0.230133
C	 -0.879403	 -2.891301	 -0.844848
H	 -0.751897	 -2.069018	 1.140906
H	 0.800155	 -2.505335	 0.441509
H	 -0.999994	 -3.916642	 -0.513810
H	 -1.859505	 -2.483177	 -1.050316
H	 -0.300849	 -2.895059	 -1.760738

	symmetry c1
}
set optking {
	frozen_dihedral = ("
		8 4 2 1
	")
}

ee,wfn = optimize('scf', return_wfn=True)
oeprop( wfn, 'DIPOLE', 'QUADRUPOLE', 'MULLIKEN_CHARGES')
f=open( 'psi4out.xyz', 'w' )
f.write( "14  " )
f.write( str(ee) + "\n" )
f.write( MOL.save_string_xyz() )
f.close()
--------------------------------------------------------------------------

    Molecular point group: c1
  Charge       = 0
  Multiplicity = 1
  Basis Set: CC-PVTZ
  Basis Set:
  @DF-RHF Final Energy:  -305.95483053088992
    Total Energy =                       -305.9548305308899216
    Molecular point group: c1
  Basis Set: CC-PVTZ
  Basis Set:
  Basis Set: CC-PVTZ
  Basis Set:
  @DF-RHF Final Energy:  -305.96093439238632
    Total Energy =                       -305.9609343923862070
  Basis Set: CC-PVTZ
  Basis Set:
  Basis Set: CC-PVTZ
  Basis Set:
  @DF-RHF Final Energy:  -305.96946611502835
    Total Energy =                       -305.9694661150281263
  Basis Set: CC-PVTZ
  Basis Set:
  Basis Set: CC-PVTZ
  Basis Set:
  @DF-RHF Final Energy:  -305.97439995935298
    Total Energy =                       -305.9743999593531498
  Basis Set: CC-PVTZ
  Basis Set:
  @DF-RHF Final Energy:  -305.96441422140055
    Total Energy =                       -305.9644142214002045
  @DF-RHF Final Energy:  -305.97455771843761
    Total Energy =                       -305.9745577184373815
  @DF-RHF Final Energy:  -305.97556270129962
    Total Energy =                       -305.9755627012993955
  @DF-RHF Final Energy:  -305.97583785365828
    Total Energy =                       -305.9758378536584473
  @DF-RHF Final Energy:  -305.97611565577262
    Total Energy =                       -305.9761156557725599
  Basis Set: CC-PVTZ
  Basis Set:
  @DF-RHF Final Energy:  -305.97618863508148
    Total Energy =                       -305.9761886350815416
  Basis Set: CC-PVTZ
  Basis Set:
  Basis Set: CC-PVTZ
  Basis Set:
  @DF-RHF Final Energy:  -305.97619617271062
    Total Energy =                       -305.9761961727106723
  Basis Set: CC-PVTZ
  Basis Set:
  Basis Set: CC-PVTZ
  Basis Set:
  @DF-RHF Final Energy:  -305.97619920879691
    Total Energy =                       -305.9761992087968565
  Basis Set: CC-PVTZ
  Basis Set:
  Charge       = 0
  Multiplicity = 1
  Basis Set: CC-PVTZ
  Basis Set:

    Orbital Energies (a.u.)
    -----------------------

    Doubly Occupied:

       1A    -20.592915     2A    -20.525915     3A    -11.369237
       4A    -11.298248     5A    -11.241336     6A    -11.230218
       7A     -1.465255     8A     -1.366355     9A     -1.051527
      10A     -1.018538    11A     -0.897056    12A     -0.779707
      13A     -0.702210    14A     -0.690344    15A     -0.660551
      16A     -0.620832    17A     -0.594215    18A     -0.585193
      19A     -0.559478    20A     -0.540153    21A     -0.532983
      22A     -0.500494    23A     -0.446096    24A     -0.436654

  @DF-RHF Final Energy:  -305.97619943055611

   => Energetics <=

    Nuclear Repulsion Energy =            247.4751976007103167
    One-Electron Energy =                -907.4917781747195704
    Two-Electron Energy =                 354.0403811434532031
    DFT Exchange-Correlation Energy =       0.0000000000000000
    Empirical Dispersion Energy =           0.0000000000000000
    PCM Polarization Energy =               0.0000000000000000
    EFP Energy =                            0.0000000000000000
    Total Energy =                       -305.9761994305560506
    Molecular point group: c1
  Basis Set: CC-PVTZ
  Basis Set:

  -Total Gradient:
     Atom            X                  Y                   Z
    ------   -----------------  -----------------  -----------------
       1       -0.000095489661     0.000309881260     0.001643521665
       2        0.000204830765    -0.000189089477    -0.001486332334
       3        0.000013288830    -0.000047809336    -0.000017194442
       4       -0.000225243994    -0.000544577140    -0.001561713608
       5        0.000000225547    -0.000002067438     0.000016248345
       6       -0.000000457827     0.000009693946     0.000000175086
       7        0.000012889967     0.000002386792    -0.000005246546
       8        0.000117698834     0.000423420327     0.001403824263
       9        0.000003669491     0.000011012577     0.000021649920
      10       -0.000006803711     0.000008934305    -0.000002065266
      11       -0.000004362914    -0.000002432519    -0.000000496331
      12        0.000001172801     0.000006613075     0.000003490820
      13       -0.000018323481     0.000012896399    -0.000015956831
      14       -0.000003094646     0.000001137232     0.000000095259

  **** Optimization is complete! (in 13 steps) ****
    Final optimized geometry and variables:
    Molecular point group: c1

    Geometry (in Angstrom), charge = 0, multiplicity = 1:

    O            0.321471100928     2.053852742089    -0.213007341025
    C           -0.120916226353     0.975159338603    -0.035282033129
    C           -1.606953143785     0.704381031729    -0.065133866266
    O            0.708428212911    -0.033986436043     0.203266394787
    H           -1.851156509335    -0.163598428093    -0.661920770456
    H           -2.089074124690     1.576634983325    -0.473708329496
    H           -1.978028868470     0.540167445092     0.939225943320
    C            0.313173575181    -1.322566048822     0.628453743097
    C            0.403816814165    -2.321335894357    -0.507280118883
    H           -0.678550562879    -1.305679798666     1.055155530952
    H            1.001500225931    -1.589276910992     1.417365218221
    H            0.172677868669    -3.316322599700    -0.144274333289
    H           -0.290037823881    -2.080203962115    -1.303609948665
    H            1.403783148753    -2.329148065933    -0.920796098239

  Mulliken Charges: (a.u.)
   Center  Symbol    Alpha    Beta     Spin     Total
       1     O     4.18374  4.18374  0.00000 -0.36749
       2     C     2.81628  2.81628  0.00000  0.36744
       3     C     3.16715  3.16715  0.00000 -0.33431
       4     O     4.13311  4.13311  0.00000 -0.26621
       5     H     0.44791  0.44791  0.00000  0.10418
       6     H     0.42600  0.42600  0.00000  0.14799
       7     H     0.44572  0.44572  0.00000  0.10856
       8     C     2.99648  2.99648  0.00000  0.00704
       9     C     3.13612  3.13612  0.00000 -0.27225
      10     H     0.45867  0.45867  0.00000  0.08266
      11     H     0.43817  0.43817  0.00000  0.12366
      12     H     0.45262  0.45262  0.00000  0.09476
      13     H     0.45440  0.45440  0.00000  0.09120
      14     H     0.44362  0.44362  0.00000  0.11276

   Total alpha = 24.00000, Total beta = 24.00000, Total charge = -0.00000

*** Psi4 exiting successfully. Buy a developer a beer!
