  ==> Input File <==

--------------------------------------------------------------------------
set {
	reference rhf
	basis 6-31G*
}

set_num_threads( 4 )
memory 2 gb

molecule MOL {
0 1

O	 -2.439739	 -0.935931	 -0.423848
C	 -1.921153	 0.064240	 -0.045697
C	 -2.624470	 1.379923	 0.150949
O	 -0.632575	 0.154573	 0.251549
H	 -2.168117	 2.136577	 -0.476876
H	 -3.669540	 1.273223	 -0.098610
H	 -2.519365	 1.700893	 1.180846
C	 0.160891	 -1.019931	 0.106212
C	 1.589627	 -0.672828	 0.480843
H	 0.089836	 -1.367806	 -0.916050
H	 -0.238459	 -1.792301	 0.749618
C	 2.246377	 0.346236	 -0.452210
H	 2.163194	 -1.597435	 0.473358
H	 1.604769	 -0.303424	 1.502885
C	 2.132778	 -0.048273	 -1.924100
H	 1.783957	 1.319736	 -0.301994
H	 3.292225	 0.455910	 -0.184758
H	 2.606373	 0.688959	 -2.564591
H	 1.093857	 -0.133585	 -2.230111
H	 2.611738	 -1.005135	 -2.111429

	symmetry c1
}
set optking {
	frozen_dihedral = ("
		16 12 9 8
	")
}

ee = optimize('scf')
oeprop('DIPOLE', 'QUADRUPOLE', 'MULLIKEN_CHARGES')
f=open( 'psi4out.xyz', 'w' )
f.write( "20  " )
f.write( str(ee) + "\n" )
f.write( MOL.save_string_xyz() )
f.close()
--------------------------------------------------------------------------

    Molecular point group: c1
  Charge       = 0
  Multiplicity = 1
  Basis Set: 6-31G*
  Basis Set:
  @DF-RHF Final Energy:  -383.94263735696325
    Total Energy =                       -383.9426373569633597
    Molecular point group: c1
  Basis Set: 6-31G*
  Basis Set:
  Basis Set: 6-31G*
  Basis Set:
  @DF-RHF Final Energy:  -383.94349884569868
    Total Energy =                       -383.9434988456987412
  Basis Set: 6-31G*
  Basis Set:
  Basis Set: 6-31G*
  Basis Set:
  @DF-RHF Final Energy:  -383.94383657116464
    Total Energy =                       -383.9438365711647521
  Basis Set: 6-31G*
  Basis Set:
  Basis Set: 6-31G*
  Basis Set:
  @DF-RHF Final Energy:  -383.94386644332843
    Total Energy =                       -383.9438664433281474
  Basis Set: 6-31G*
  Basis Set:
  Basis Set: 6-31G*
  Basis Set:
  @DF-RHF Final Energy:  -383.94397491546255
    Total Energy =                       -383.9439749154628316
  Basis Set: 6-31G*
  Basis Set:
  Basis Set: 6-31G*
  Basis Set:
  @DF-RHF Final Energy:  -383.94402188460111
    Total Energy =                       -383.9440218846009429
  Basis Set: 6-31G*
  Basis Set:
  Charge       = 0
  Multiplicity = 1
  Basis Set: 6-31G*
  Basis Set:

    Orbital Energies (a.u.)
    -----------------------

    Doubly Occupied:

       1A    -20.601837     2A    -20.544189     3A    -11.374589
       4A    -11.281444     5A    -11.233488     6A    -11.225809
       7A    -11.220816     8A    -11.213320     9A     -1.467904
      10A     -1.362213    11A     -1.085475    12A     -1.026610
      13A     -0.978912    14A     -0.891544    15A     -0.806872
      16A     -0.767813    17A     -0.690687    18A     -0.687992
      19A     -0.664359    20A     -0.622783    21A     -0.618238
      22A     -0.577807    23A     -0.573618    24A     -0.563227
      25A     -0.536241    26A     -0.528015    27A     -0.522403
      28A     -0.476742    29A     -0.476354    30A     -0.468943
      31A     -0.449896    32A     -0.438668

  @DF-RHF Final Energy:  -383.94402267707517

   => Energetics <=

    Nuclear Repulsion Energy =            392.4288847754595508
    One-Electron Energy =               -1300.7881956667574741
    Two-Electron Energy =                 524.4152882142225280
    DFT Exchange-Correlation Energy =       0.0000000000000000
    Empirical Dispersion Energy =           0.0000000000000000
    PCM Polarization Energy =               0.0000000000000000
    EFP Energy =                            0.0000000000000000
    Total Energy =                       -383.9440226770753952
    Molecular point group: c1
  Basis Set: 6-31G*
  Basis Set:

  -Total Gradient:
     Atom            X                  Y                   Z
    ------   -----------------  -----------------  -----------------
       1       -0.000025079872     0.000000993432    -0.000002779640
       2       -0.000016216091    -0.000042304210     0.000124040666
       3        0.000016667374     0.000007018977    -0.000040618098
       4        0.000062558937    -0.000022385230     0.000127452496
       5       -0.000000878034     0.000015395495    -0.000006239709
       6        0.000003216726    -0.000004488800    -0.000005137246
       7        0.000004687241    -0.000013015174    -0.000009914222
       8        0.000452014361    -0.000959360038    -0.001267333252
       9       -0.000354233982     0.001505222326     0.001571588762
      10        0.000043719946    -0.000051488437     0.000102288822
      11       -0.000062245742     0.000039904063     0.000058170474
      12       -0.001397488216    -0.000803706009    -0.001874228285
      13       -0.000036048560    -0.000018685052     0.000023408520
      14        0.000026511318     0.000008495935     0.000014776588
      15        0.000002852938     0.000024416444    -0.000052881612
      16        0.001271329940     0.000363852036     0.001265945259
      17       -0.000026271685    -0.000025239212     0.000000722769
      18       -0.000029397927    -0.000008847042    -0.000017411271
      19        0.000042512449    -0.000007838451     0.000015082507
      20        0.000021788876    -0.000007941051    -0.000026933527

  **** Optimization is complete! (in 7 steps) ****
    Final optimized geometry and variables:
    Molecular point group: c1

    Geometry (in Angstrom), charge = 0, multiplicity = 1:

    O           -2.271423094850    -0.875806160379    -0.054938453126
    C           -1.726100078959     0.144166482484     0.218307026181
    C           -2.407219864730     1.480302228901     0.342489848577
    O           -0.425079219332     0.239857574674     0.452936984289
    H           -1.971335124213     2.180310388923    -0.361017872656
    H           -3.463185888726     1.368359637438     0.146899046423
    H           -2.253989857606     1.878037288269     1.339043365132
    C            0.349948400485    -0.953000407617     0.367616640982
    C            1.791367399491    -0.602389602360     0.689957639315
    H            0.242881250424    -1.372444973931    -0.622230842581
    H           -0.038971887964    -1.673917000734     1.074087168356
    C            2.437741648260     0.441444262374    -0.229252678830
    H            2.360189983866    -1.529158339822     0.642794577404
    H            1.845961290599    -0.255216790033     1.717597117096
    C            2.370287120805     0.114862800798    -1.721265795992
    H            1.989410018221     1.411876279657    -0.041782974985
    H            3.480784997733     0.534538154912     0.062947033157
    H            2.935925537399     0.840843963606    -2.296459578010
    H            1.351226978756     0.130489123864    -2.092951211512
    H            2.786628447944    -0.867113340563    -1.930630103587

  Mulliken Charges: (a.u.)
   Center  Symbol    Alpha    Beta     Spin     Total
       1     O     4.28319  4.28319  0.00000 -0.56639
       2     C     2.61951  2.61951  0.00000  0.76098
       3     C     3.28170  3.28170  0.00000 -0.56341
       4     O     4.30873  4.30873  0.00000 -0.61745
       5     H     0.40081  0.40081  0.00000  0.19837
       6     H     0.39686  0.39686  0.00000  0.20627
       7     H     0.40055  0.40055  0.00000  0.19890
       8     C     3.00504  3.00504  0.00000 -0.01009
       9     C     3.16684  3.16684  0.00000 -0.33369
      10     H     0.40857  0.40857  0.00000  0.18287
      11     H     0.40797  0.40797  0.00000  0.18406
      12     C     3.15299  3.15299  0.00000 -0.30598
      13     H     0.41869  0.41869  0.00000  0.16261
      14     H     0.41333  0.41333  0.00000  0.17334
      15     C     3.24519  3.24519  0.00000 -0.49039
      16     H     0.41323  0.41323  0.00000  0.17354
      17     H     0.41996  0.41996  0.00000  0.16008
      18     H     0.41696  0.41696  0.00000  0.16608
      19     H     0.41793  0.41793  0.00000  0.16414
      20     H     0.42192  0.42192  0.00000  0.15616

   Total alpha = 32.00000, Total beta = 32.00000, Total charge =  0.00000
