                              Psi4 1.0.54 Driver

  ==> Input File <==

--------------------------------------------------------------------------
set {
	reference rhf
	basis cc-pvtz
}

set_num_threads( 4 )
memory 2 gb

molecule MOL {
0 1

O	 2.720005	 -0.308529	 -0.431384
C	 1.704209	 0.119472	 -0.000093
C	 0.380337	 -0.600947	 -0.000234
O	 1.599319	 1.317227	 0.551991
C	 -0.824290	 0.329213	 -0.000115
H	 0.371455	 -1.255476	 -0.865660
H	 0.371410	 -1.255787	 0.864952
C	 -2.146151	 -0.432825	 -0.000068
H	 -0.773936	 0.979158	 -0.866319
H	 -0.773838	 0.979034	 0.866186
C	 -3.366283	 0.483552	 0.000557
H	 -2.189286	 -1.084450	 -0.869996
H	 -2.188867	 -1.085083	 0.869399
C	 -4.687436	 -0.278003	 0.000108
H	 -3.325150	 1.134819	 -0.867957
H	 -3.325087	 1.133730	 0.869885
H	 -4.773783	 -0.912098	 -0.876078
H	 -5.531922	 0.401392	 0.000363
H	 -4.773901	 -0.912898	 0.875703
C	 2.770246	 2.105758	 0.618865
H	 3.531667	 1.609049	 1.201729
H	 2.480688	 3.028816	 1.094225
H	 3.155526	 2.300957	 -0.370918

	symmetry c1
}
set optking {
	frozen_dihedral = ("
		1 2 3 6
	")
}

ee,wfn = optimize('scf', return_wfn=True)
oeprop( wfn, 'DIPOLE', 'QUADRUPOLE', 'MULLIKEN_CHARGES')
f=open( 'psi4out.xyz', 'w' )
f.write( "23  " )
f.write( str(ee) + "\n" )
f.write( MOL.save_string_xyz() )
f.close()
--------------------------------------------------------------------------

    Molecular point group: c1
  Charge       = 0
  Multiplicity = 1
  Basis Set: CC-PVTZ
  Basis Set:
  @DF-RHF Final Energy:  -423.12791807053407
    Total Energy =                       -423.1279180705339513
    Molecular point group: c1
  Basis Set: CC-PVTZ
  Basis Set:
  Basis Set: CC-PVTZ
  Basis Set:
  @DF-RHF Final Energy:  -423.12697121113331
    Total Energy =                       -423.1269712111331955
  Basis Set: CC-PVTZ
  Basis Set:
  Basis Set: CC-PVTZ
  Basis Set:
  @DF-RHF Final Energy:  -423.12841813654603
    Total Energy =                       -423.1284181365459744
  Basis Set: CC-PVTZ
  Basis Set:
  Basis Set: CC-PVTZ
  Basis Set:
  @DF-RHF Final Energy:  -423.12889986091983
    Total Energy =                       -423.1288998609197733
  Basis Set: CC-PVTZ
  Basis Set:
  Basis Set: CC-PVTZ
  Basis Set:
  @DF-RHF Final Energy:  -423.12892098971685
    Total Energy =                       -423.1289209897172441
  Basis Set: CC-PVTZ
  Basis Set:
  Basis Set: CC-PVTZ
  Basis Set:
  @DF-RHF Final Energy:  -423.12892636816605
    Total Energy =                       -423.1289263681660486
  Basis Set: CC-PVTZ
  Basis Set:
  Charge       = 0
  Multiplicity = 1
  Basis Set: CC-PVTZ
  Basis Set:

    Orbital Energies (a.u.)
    -----------------------

    Doubly Occupied:

       1A    -20.598481     2A    -20.530496     3A    -11.364414
       4A    -11.279176     5A    -11.233695     6A    -11.222436
       7A    -11.218464     8A    -11.217413     9A    -11.209834
      10A     -1.472895    11A     -1.364135    12A     -1.097423
      13A     -1.046000    14A     -0.984215    15A     -0.936714
      16A     -0.848851    17A     -0.798010    18A     -0.776258
      19A     -0.694980    20A     -0.686210    21A     -0.674995
      22A     -0.654958    23A     -0.610891    24A     -0.593785
      25A     -0.578949    26A     -0.565502    27A     -0.554701
      28A     -0.525533    29A     -0.524599    30A     -0.507253
      31A     -0.489431    32A     -0.481166    33A     -0.470912
      34A     -0.469381    35A     -0.457215    36A     -0.428739

  @DF-RHF Final Energy:  -423.12892682336422

   => Energetics <=

    Nuclear Repulsion Energy =            455.7886192661365499
    One-Electron Energy =               -1479.4988724096838268
    Two-Electron Energy =                 600.5813263201832797
    DFT Exchange-Correlation Energy =       0.0000000000000000
    Empirical Dispersion Energy =           0.0000000000000000
    PCM Polarization Energy =               0.0000000000000000
    EFP Energy =                            0.0000000000000000
    Total Energy =                       -423.1289268233640541
    Molecular point group: c1
  Basis Set: CC-PVTZ
  Basis Set:

  -Total Gradient:
     Atom            X                  Y                   Z
    ------   -----------------  -----------------  -----------------
       1        0.000193362931    -0.000274694451     0.000835945330
       2       -0.000311992342     0.000396664023    -0.001347931413
       3        0.000486030026    -0.000805581612     0.001013184136
       4        0.000001620813     0.000116909621     0.000027951253
       5       -0.000008874916     0.000001663524     0.000021782205
       6       -0.000340850263     0.000589451897    -0.000543147867
       7       -0.000001999110    -0.000014261583     0.000020574589
       8       -0.000009077484    -0.000001672913    -0.000022152239
       9       -0.000008119153    -0.000000252765    -0.000007311483
      10        0.000006863595     0.000001332780    -0.000004076589
      11       -0.000001949650     0.000004777316     0.000002779356
      12       -0.000002550977    -0.000006245710    -0.000008988652
      13        0.000005274871     0.000000894295     0.000002010777
      14        0.000010689475    -0.000008831167     0.000004104574
      15        0.000000840572    -0.000000201621    -0.000004637294
      16        0.000001410752     0.000007304967     0.000002513527
      17       -0.000000508534    -0.000001398788    -0.000001649269
      18       -0.000004623562     0.000009120933    -0.000000669781
      19       -0.000001472780    -0.000005940144     0.000005081617
      20       -0.000039019447    -0.000011288349    -0.000026026599
      21        0.000035066777    -0.000022497054     0.000030043604
      22       -0.000011121633     0.000019509827     0.000005002129
      23        0.000001000045     0.000005236975    -0.000004381911

  **** Optimization is complete! (in 7 steps) ****
    Final optimized geometry and variables:
    Molecular point group: c1

    Geometry (in Angstrom), charge = 0, multiplicity = 1:

    O            2.853943089390    -0.702449114823    -0.482402130269
    C            1.872679156322    -0.171476343150    -0.084449238382
    C            0.531136164403    -0.858261791862     0.007569984849
    O            1.857129369649     1.071437560359     0.362496155381
    C           -0.698529779960     0.043077892471    -0.061887424237
    H            0.515241483423    -1.595974937952    -0.783341910072
    H            0.540275165462    -1.407428669174     0.945036102942
    C           -1.997858935789    -0.755719082989    -0.012121586458
    H           -0.667630343173     0.625860896380    -0.977649202927
    H           -0.675625338466     0.754753490170     0.754000131914
    C           -3.244678523866     0.121313882534    -0.080547121383
    H           -2.016598840416    -1.469202798361    -0.832443172894
    H           -2.024010619073    -1.343958201786     0.902372689657
    C           -4.542274616619    -0.678022265720    -0.028247154856
    H           -3.219940124461     0.708439118423    -0.994413769342
    H           -3.226953268184     0.833903341879     0.739386099398
    H           -4.605586171344    -1.376324695530    -0.856139282548
    H           -5.406782447550    -0.026272060702    -0.079080437230
    H           -4.613053012594    -1.249938253750     0.890997133080
    C            3.081555587795     1.777961284986     0.354022434675
    H            3.812009950734     1.280923269074     0.974891441183
    H            2.862132698158     2.757434159969     0.747032227509
    H            3.468366042015     1.856633992302    -0.650942173932

  Mulliken Charges: (a.u.)
   Center  Symbol    Alpha    Beta     Spin     Total
       1     O     4.20209  4.20209  0.00000 -0.40417
       2     C     2.81566  2.81566  0.00000  0.36869
       3     C     3.08525  3.08525  0.00000 -0.17050
       4     O     4.14324  4.14324  0.00000 -0.28647
       5     C     3.08993  3.08993  0.00000 -0.17986
       6     H     0.43608  0.43608  0.00000  0.12784
       7     H     0.44396  0.44396  0.00000  0.11208
       8     C     3.09126  3.09126  0.00000 -0.18253
       9     H     0.45046  0.45046  0.00000  0.09909
      10     H     0.44467  0.44467  0.00000  0.11067
      11     C     3.08389  3.08389  0.00000 -0.16778
      12     H     0.45356  0.45356  0.00000  0.09288
      13     H     0.45452  0.45452  0.00000  0.09096
      14     C     3.15035  3.15035  0.00000 -0.30070
      15     H     0.45387  0.45387  0.00000  0.09225
      16     H     0.45391  0.45391  0.00000  0.09218
      17     H     0.45468  0.45468  0.00000  0.09063
      18     H     0.44776  0.44776  0.00000  0.10448
      19     H     0.45490  0.45490  0.00000  0.09020
      20     C     3.03639  3.03639  0.00000 -0.07278
      21     H     0.45345  0.45345  0.00000  0.09311
      22     H     0.44666  0.44666  0.00000  0.10668
      23     H     0.45347  0.45347  0.00000  0.09306

   Total alpha = 36.00000, Total beta = 36.00000, Total charge = -0.00000

*** Psi4 exiting successfully. Buy a developer a beer!
