  ==> Input File <==

--------------------------------------------------------------------------
set {
	reference rhf
	basis 6-31G*
}

set_num_threads( 1 )
memory 2 gb

molecule MOL {
0 1

H	 2.591676	 2.013956	 0.335017
O	 3.341076	 1.666752	 -0.126416
C	 3.569581	 0.339145	 0.272707
C	 2.539767	 -0.640285	 -0.279495
H	 4.553106	 0.084646	 -0.100901
H	 3.608576	 0.269204	 1.359154
C	 1.098966	 -0.126859	 -0.221583
H	 2.802883	 -0.873957	 -1.307860
H	 2.616308	 -1.567438	 0.286099
C	 0.084349	 -1.153614	 -0.732607
H	 1.020580	 0.783920	 -0.808697
H	 0.850634	 0.139832	 0.805815
C	 -1.382246	 -0.722282	 -0.616882
H	 0.308406	 -1.392229	 -1.770735
H	 0.216345	 -2.078046	 -0.174303
C	 -1.778495	 0.459576	 -1.506082
H	 -2.009945	 -1.573637	 -0.871841
H	 -1.605646	 -0.483126	 0.421739
C	 -3.272057	 0.784620	 -1.434967
H	 -1.508619	 0.238882	 -2.537863
H	 -1.212843	 1.344924	 -1.225908
C	 -3.669147	 1.968042	 -2.316724
H	 -3.845533	 -0.092024	 -1.728409
H	 -3.545560	 0.995913	 -0.403252
H	 -3.438129	 1.774213	 -3.360413
H	 -4.733104	 2.172124	 -2.246148
H	 -3.139538	 2.870473	 -2.024327

	symmetry c1
}
set optking {
	frozen_dihedral = ("
		14 10 7 4,
		14 10 13 16,
		10 7 4 8,
		10 13 16 20,
		20 16 19 22,
		4 3 2 1
	")
}

ee = energy('scf')
oeprop('DIPOLE', 'QUADRUPOLE', 'MULLIKEN_CHARGES')
f=open( 'psi4out.xyz', 'w' )
f.write( "27  " )
f.write( str(ee) + "\n" )
f.write( MOL.save_string_xyz() )
f.close()
--------------------------------------------------------------------------

    Molecular point group: c1

    Geometry (in Angstrom), charge = 0, multiplicity = 1:

       Center              X                  Y                   Z               Mass
    ------------   -----------------  -----------------  -----------------  -----------------
           H          2.490183476200     1.689498590300     1.099776621512     1.007825032070
           O          3.239583476200     1.342294590300     0.638343621512    15.994914619560
           C          3.468088476200     0.014687590300     1.037466621512    12.000000000000
           C          2.438274476200    -0.964742409700     0.485264621512    12.000000000000
           H          4.451613476200    -0.239811409700     0.663858621512     1.007825032070
           H          3.507083476200    -0.055253409700     2.123913621512     1.007825032070
           C          0.997473476200    -0.451316409700     0.543176621512    12.000000000000
           H          2.701390476200    -1.198414409700    -0.543100378488     1.007825032070
           H          2.514815476200    -1.891895409700     1.050858621512     1.007825032070
           C         -0.017143523800    -1.478071409700     0.032152621512    12.000000000000
           H          0.919087476200     0.459462590300    -0.043937378488     1.007825032070
           H          0.749141476200    -0.184625409700     1.570574621512     1.007825032070
           C         -1.483738523800    -1.046739409700     0.147877621512    12.000000000000
           H          0.206913476200    -1.716686409700    -1.005975378488     1.007825032070
           H          0.114852476200    -2.402503409700     0.590456621512     1.007825032070
           C         -1.879987523800     0.135118590300    -0.741322378488    12.000000000000
           H         -2.111437523800    -1.898094409700    -0.107081378488     1.007825032070
           H         -1.707138523800    -0.807583409700     1.186498621512     1.007825032070
           C         -3.373549523800     0.460162590300    -0.670207378488    12.000000000000
           H         -1.610111523800    -0.085575409700    -1.773103378488     1.007825032070
           H         -1.314335523800     1.020466590300    -0.461148378488     1.007825032070
           C         -3.770639523800     1.643584590300    -1.551964378488    12.000000000000
           H         -3.947025523800    -0.416481409700    -0.963649378488     1.007825032070
           H         -3.647052523800     0.671455590300     0.361507621512     1.007825032070
           H         -3.539621523800     1.449755590300    -2.595653378488     1.007825032070
           H         -4.834596523800     1.847666590300    -1.481388378488     1.007825032070
           H         -3.241030523800     2.546015590300    -1.259567378488     1.007825032070

  Charge       = 0
  Multiplicity = 1
  Basis Set: 6-31G*
  Basis Set:

    Orbital Energies (a.u.)
    -----------------------

    Doubly Occupied:

       1A    -20.552173     2A    -11.266959     3A    -11.218269
       4A    -11.216374     5A    -11.215335     6A    -11.215061
       7A    -11.214963     8A    -11.213317     9A    -11.208577
      10A     -1.359426    11A     -1.094110    12A     -1.060371
      13A     -1.010871    14A     -0.948629    15A     -0.888431
      16A     -0.819225    17A     -0.799675    18A     -0.776653
      19A     -0.694646    20A     -0.649623    21A     -0.636708
      22A     -0.616565    23A     -0.600711    24A     -0.584702
      25A     -0.577465    26A     -0.553390    27A     -0.542963
      28A     -0.528328    29A     -0.504668    30A     -0.490828
      31A     -0.484673    32A     -0.473436    33A     -0.469175
      34A     -0.460463    35A     -0.447816    36A     -0.442003
      37A     -0.423427

  @DF-RHF Final Energy:  -388.27955055536296

   => Energetics <=

    Nuclear Repulsion Energy =            461.3710574719665942
    One-Electron Energy =               -1440.7811356147078641
    Two-Electron Energy =                 591.1305275873820619
    DFT Exchange-Correlation Energy =       0.0000000000000000
    Empirical Dispersion Energy =           0.0000000000000000
    PCM Polarization Energy =               0.0000000000000000
    EFP Energy =                            0.0000000000000000
    Total Energy =                       -388.2795505553591511

  Mulliken Charges: (a.u.)
   Center  Symbol    Alpha    Beta     Spin     Total
       1     H     0.27937  0.27937  0.00000  0.44126
       2     O     4.37035  4.37035  0.00000 -0.74070
       3     C     2.99732  2.99732  0.00000  0.00537
       4     C     3.16196  3.16196  0.00000 -0.32393
       5     H     0.41437  0.41437  0.00000  0.17127
       6     H     0.43140  0.43140  0.00000  0.13720
       7     C     3.16736  3.16736  0.00000 -0.33472
       8     H     0.41726  0.41726  0.00000  0.16547
       9     H     0.42367  0.42367  0.00000  0.15266
      10     C     3.15199  3.15199  0.00000 -0.30398
      11     H     0.41305  0.41305  0.00000  0.17391
      12     H     0.42932  0.42932  0.00000  0.14136
      13     C     3.15346  3.15346  0.00000 -0.30692
      14     H     0.42175  0.42175  0.00000  0.15650
      15     H     0.42223  0.42223  0.00000  0.15554
      16     C     3.15246  3.15246  0.00000 -0.30493
      17     H     0.42141  0.42141  0.00000  0.15718
      18     H     0.42470  0.42470  0.00000  0.15059
      19     C     3.15121  3.15121  0.00000 -0.30243
      20     H     0.42355  0.42355  0.00000  0.15291
      21     H     0.42323  0.42323  0.00000  0.15355
      22     C     3.23915  3.23915  0.00000 -0.47830
      23     H     0.42304  0.42304  0.00000  0.15393
      24     H     0.42355  0.42355  0.00000  0.15290
      25     H     0.42142  0.42142  0.00000  0.15715
      26     H     0.41942  0.41942  0.00000  0.16116
      27     H     0.42200  0.42200  0.00000  0.15600

   Total alpha = 37.00000, Total beta = 37.00000, Total charge =  0.00000
