  ==> Input File <==

--------------------------------------------------------------------------
set {
	reference rhf
	basis 6-31G*
}

set_num_threads( 1 )
memory 2 gb

molecule MOL {
0 1

H	 -3.161837	 0.500524	 -0.000234
C	 -2.367097	 -0.232926	 -0.000000
O	 -1.158440	 0.455814	 -0.000122
H	 -2.468853	 -0.861886	 -0.882833
H	 -2.468942	 -0.861421	 0.883154
C	 -0.029776	 -0.365156	 0.000148
C	 -0.357833	 -1.649757	 -0.740690
H	 0.273752	 -0.585704	 1.024418
H	 0.806122	 0.145714	 -0.479637
C	 0.826155	 -2.614426	 -0.790341
H	 -1.205510	 -2.121396	 -0.253183
H	 -0.676816	 -1.395165	 -1.746738
H	 1.145890	 -2.901318	 0.207600
H	 0.564394	 -3.521521	 -1.324670
H	 1.678723	 -2.169643	 -1.296009

	symmetry c1
}
set optking {
	frozen_dihedral = ("
		6 3 2 4,
		11 7 6 8
	")
}

ee = energy('scf')
oeprop('DIPOLE', 'QUADRUPOLE', 'MULLIKEN_CHARGES')
f=open( 'psi4out.xyz', 'w' )
f.write( "15  " )
f.write( str(ee) + "\n" )
f.write( MOL.save_string_xyz() )
f.close()
--------------------------------------------------------------------------

    Molecular point group: c1

    Geometry (in Angstrom), charge = 0, multiplicity = 1:

       Center              X                  Y                   Z               Mass
    ------------   -----------------  -----------------  -----------------  -----------------
           H         -2.524251473119     1.377171500371     0.300427483204     1.007825032070
           C         -1.729511473119     0.643721500371     0.300661483204    12.000000000000
           O         -0.520854473119     1.332461500371     0.300539483204    15.994914619560
           H         -1.831267473119     0.014761500371    -0.582171516796     1.007825032070
           H         -1.831356473119     0.015226500371     1.183815483204     1.007825032070
           C          0.607809526881     0.511491500371     0.300809483204    12.000000000000
           C          0.279752526881    -0.773109499629    -0.440028516796    12.000000000000
           H          0.911337526881     0.290943500371     1.325079483204     1.007825032070
           H          1.443707526881     1.022361500371    -0.178975516796     1.007825032070
           C          1.463740526881    -1.737778499629    -0.489679516796    12.000000000000
           H         -0.567924473119    -1.244748499629     0.047478483204     1.007825032070
           H         -0.039230473119    -0.518517499629    -1.446076516796     1.007825032070
           H          1.783475526881    -2.024670499629     0.508261483204     1.007825032070
           H          1.201979526881    -2.644873499629    -1.024008516796     1.007825032070
           H          2.316308526881    -1.292995499629    -0.995347516796     1.007825032070

  Charge       = 0
  Multiplicity = 1
  Basis Set: 6-31G*
  Basis Set:

    Orbital Energies (a.u.)
    -----------------------

    Doubly Occupied:

       1A    -20.550602     2A    -11.266881     3A    -11.261300
       4A    -11.217981     5A    -11.215524     6A     -1.379004
       7A     -1.057053     8A     -0.961719     9A     -0.895969
      10A     -0.795802    11A     -0.677508    12A     -0.665699
      13A     -0.627936    14A     -0.602896    15A     -0.563788
      16A     -0.540315    17A     -0.525488    18A     -0.500901
      19A     -0.490507    20A     -0.442303    21A     -0.405218

  @DF-RHF Final Energy:  -232.11967816544808

   => Energetics <=

    Nuclear Repulsion Energy =            195.7453125017744355
    One-Electron Energy =                -702.4412072686981219
    Two-Electron Energy =                 274.5762166014759487
    DFT Exchange-Correlation Energy =       0.0000000000000000
    Empirical Dispersion Energy =           0.0000000000000000
    PCM Polarization Energy =               0.0000000000000000
    EFP Energy =                            0.0000000000000000
    Total Energy =                       -232.1196781654477377

  Mulliken Charges: (a.u.)
   Center  Symbol    Alpha    Beta     Spin     Total
       1     H     0.41089  0.41089  0.00000  0.17821
       2     C     3.09019  3.09019  0.00000 -0.18038
       3     O     4.30729  4.30729  0.00000 -0.61458
       4     H     0.42325  0.42325  0.00000  0.15350
       5     H     0.42964  0.42964  0.00000  0.14071
       6     C     2.97437  2.97437  0.00000  0.05125
       7     C     3.18923  3.18923  0.00000 -0.37847
       8     H     0.43087  0.43087  0.00000  0.13826
       9     H     0.41845  0.41845  0.00000  0.16309
      10     C     3.24269  3.24269  0.00000 -0.48537
      11     H     0.41318  0.41318  0.00000  0.17364
      12     H     0.41300  0.41300  0.00000  0.17399
      13     H     0.42014  0.42014  0.00000  0.15971
      14     H     0.41673  0.41673  0.00000  0.16653
      15     H     0.42005  0.42005  0.00000  0.15990

   Total alpha = 21.00000, Total beta = 21.00000, Total charge = -0.00000
