  ==> Input File <==

--------------------------------------------------------------------------
set {
	reference rhf
	basis 6-31G*
}

set_num_threads( 1 )
memory 2 gb

molecule MOL {
0 1

O	 -1.276010	 1.052711	 -0.768302
C	 -1.204840	 0.067374	 -0.106123
C	 -2.388195	 -0.672128	 0.458071
O	 -0.067104	 -0.527208	 0.221609
H	 -2.388023	 -1.694060	 0.097175
H	 -3.300579	 -0.174919	 0.164318
H	 -2.315377	 -0.706351	 1.539059
C	 0.791642	 -1.010781	 -0.820811
C	 1.606637	 -2.132922	 -0.202612
C	 1.650283	 0.127947	 -1.348713
H	 0.166986	 -1.395216	 -1.613605
H	 0.957328	 -2.914820	 0.174588
H	 2.269504	 -2.565962	 -0.944512
H	 2.208278	 -1.761606	 0.620070
H	 2.318849	 -0.236448	 -2.122181
H	 1.033091	 0.908003	 -1.775986
H	 2.250480	 0.551989	 -0.549989

	symmetry c1
}
set optking {
	frozen_dihedral = ("
		11 8 4 2
	")
}

ee = energy('scf')
oeprop('DIPOLE', 'QUADRUPOLE', 'MULLIKEN_CHARGES')
f=open( 'psi4out.xyz', 'w' )
f.write( "17  " )
f.write( str(ee) + "\n" )
f.write( MOL.save_string_xyz() )
f.close()
--------------------------------------------------------------------------

    Molecular point group: c1

    Geometry (in Angstrom), charge = 0, multiplicity = 1:

       Center              X                  Y                   Z               Mass
    ------------   -----------------  -----------------  -----------------  -----------------
           O         -1.150690815934     1.494654278196    -0.401564977721    15.994914619560
           C         -1.079520815934     0.509317278196     0.260614022279    12.000000000000
           C         -2.262875815934    -0.230184721804     0.824808022279    12.000000000000
           O          0.058215184066    -0.085264721804     0.588346022279    15.994914619560
           H         -2.262703815934    -1.252116721804     0.463912022279     1.007825032070
           H         -3.175259815934     0.267024278196     0.531055022279     1.007825032070
           H         -2.190057815934    -0.264407721804     1.905796022279     1.007825032070
           C          0.916961184066    -0.568837721804    -0.454073977721    12.000000000000
           C          1.731956184066    -1.690978721804     0.164125022279    12.000000000000
           C          1.775602184066     0.569890278196    -0.981975977721    12.000000000000
           H          0.292305184066    -0.953272721804    -1.246867977721     1.007825032070
           H          1.082647184066    -2.472876721804     0.541325022279     1.007825032070
           H          2.394823184066    -2.124018721804    -0.577774977721     1.007825032070
           H          2.333597184066    -1.319662721804     0.986807022279     1.007825032070
           H          2.444168184066     0.205495278196    -1.755443977721     1.007825032070
           H          1.158410184066     1.349946278196    -1.409248977721     1.007825032070
           H          2.375799184066     0.993932278196    -0.183251977721     1.007825032070

  Charge       = 0
  Multiplicity = 1
  Basis Set: 6-31G*
  Basis Set:

    Orbital Energies (a.u.)
    -----------------------

    Doubly Occupied:

       1A    -20.584959     2A    -20.550541     3A    -11.375649
       4A    -11.299986     5A    -11.232720     6A    -11.222863
       7A    -11.210886     8A     -1.461825     9A     -1.363942
      10A     -1.077671    11A     -1.006279    12A     -0.947594
      13A     -0.849239    14A     -0.771237    15A     -0.690531
      16A     -0.676523    17A     -0.652718    18A     -0.611284
      19A     -0.589184    20A     -0.582260    21A     -0.555595
      22A     -0.551355    23A     -0.548388    24A     -0.514384
      25A     -0.500595    26A     -0.485554    27A     -0.444650
      28A     -0.433228

  @DF-RHF Final Energy:  -344.89945002572347

   => Energetics <=

    Nuclear Repulsion Energy =            323.3062366790730948
    One-Electron Energy =               -1110.8282430896315418
    Two-Electron Energy =                 442.6225563848356614
    DFT Exchange-Correlation Energy =       0.0000000000000000
    Empirical Dispersion Energy =           0.0000000000000000
    PCM Polarization Energy =               0.0000000000000000
    EFP Energy =                            0.0000000000000000
    Total Energy =                       -344.8994500257227855

  Mulliken Charges: (a.u.)
   Center  Symbol    Alpha    Beta     Spin     Total
       1     O     4.26832  4.26832  0.00000 -0.53664
       2     C     2.62294  2.62294  0.00000  0.75411
       3     C     3.28118  3.28118  0.00000 -0.56236
       4     O     4.31687  4.31687  0.00000 -0.63375
       5     H     0.40605  0.40605  0.00000  0.18790
       6     H     0.39944  0.39944  0.00000  0.20112
       7     H     0.39937  0.39937  0.00000  0.20126
       8     C     2.92853  2.92853  0.00000  0.14294
       9     C     3.24013  3.24013  0.00000 -0.48026
      10     C     3.24666  3.24666  0.00000 -0.49331
      11     H     0.41724  0.41724  0.00000  0.16552
      12     H     0.41341  0.41341  0.00000  0.17318
      13     H     0.41748  0.41748  0.00000  0.16504
      14     H     0.41033  0.41033  0.00000  0.17934
      15     H     0.42373  0.42373  0.00000  0.15253
      16     H     0.39366  0.39366  0.00000  0.21268
      17     H     0.41465  0.41465  0.00000  0.17070

   Total alpha = 28.00000, Total beta = 28.00000, Total charge = -0.00000
