  ==> Input File <==

--------------------------------------------------------------------------
set {
	reference rhf
	basis 6-31G*
}

set_num_threads( 1 )
memory 2 gb

molecule MOL {
0 1

H	 1.156195	 0.885591	 1.825040
O	 1.366598	 0.264196	 1.141336
C	 0.709265	 0.639550	 -0.033818
C	 -0.793441	 0.596080	 0.058728
H	 1.046815	 -0.047216	 -0.801682
H	 1.018969	 1.635324	 -0.349321
C	 -1.530462	 -0.493172	 -0.025500
H	 -1.268471	 1.554324	 0.202247
H	 -1.092586	 -1.461565	 -0.186463
H	 -2.602122	 -0.450675	 0.050101

	symmetry c1
}
set optking {
	frozen_dihedral = ("
		5 3 2 1,
		3 4 7 9
	")
}

ee = energy('scf')
oeprop('DIPOLE', 'QUADRUPOLE', 'MULLIKEN_CHARGES')
f=open( 'psi4out.xyz', 'w' )
f.write( "10  " )
f.write( str(ee) + "\n" )
f.write( MOL.save_string_xyz() )
f.close()
--------------------------------------------------------------------------

    Molecular point group: c1

    Geometry (in Angstrom), charge = 0, multiplicity = 1:

       Center              X                  Y                   Z               Mass
    ------------   -----------------  -----------------  -----------------  -----------------
           H          1.143649962280     0.622545910355     1.497789939253     1.007825032070
           O          1.354052962280     0.001150910355     0.814085939253    15.994914619560
           C          0.696719962280     0.376504910355    -0.361068060747    12.000000000000
           C         -0.805986037720     0.333034910355    -0.268522060747    12.000000000000
           H          1.034269962280    -0.310261089645    -1.128932060747     1.007825032070
           H          1.006423962280     1.372278910355    -0.676571060747     1.007825032070
           C         -1.543007037720    -0.756217089645    -0.352750060747    12.000000000000
           H         -1.281016037720     1.291278910355    -0.125003060747     1.007825032070
           H         -1.105131037720    -1.724610089645    -0.513713060747     1.007825032070
           H         -2.614667037720    -0.713720089645    -0.277149060747     1.007825032070

  Charge       = 0
  Multiplicity = 1
  Basis Set: 6-31G*
  Basis Set:

    Orbital Energies (a.u.)
    -----------------------

    Doubly Occupied:

       1A    -20.555875     2A    -11.273768     3A    -11.228183
       4A    -11.225703     5A     -1.364575     6A     -1.060048
       7A     -0.921491     8A     -0.777216     9A     -0.683795
      10A     -0.654901    11A     -0.610562    12A     -0.576033
      13A     -0.547120    14A     -0.476062    15A     -0.440090
      16A     -0.371838

  @DF-RHF Final Energy:  -191.91204957658084

   => Energetics <=

    Nuclear Repulsion Energy =            117.9643562322857520
    One-Electron Energy =                -494.2182860643581535
    Two-Electron Energy =                 184.3418802554915032
    DFT Exchange-Correlation Energy =       0.0000000000000000
    Empirical Dispersion Energy =           0.0000000000000000
    PCM Polarization Energy =               0.0000000000000000
    EFP Energy =                            0.0000000000000000
    Total Energy =                       -191.9120495765808982

  Mulliken Charges: (a.u.)
   Center  Symbol    Alpha    Beta     Spin     Total
       1     H     0.28313  0.28313  0.00000  0.43374
       2     O     4.36202  4.36202  0.00000 -0.72404
       3     C     3.00772  3.00772  0.00000 -0.01544
       4     C     3.09574  3.09574  0.00000 -0.19148
       5     H     0.41142  0.41142  0.00000  0.17717
       6     H     0.42851  0.42851  0.00000  0.14298
       7     C     3.18302  3.18302  0.00000 -0.36603
       8     H     0.41143  0.41143  0.00000  0.17715
       9     H     0.40742  0.40742  0.00000  0.18517
      10     H     0.40961  0.40961  0.00000  0.18078

   Total alpha = 16.00000, Total beta = 16.00000, Total charge = -0.00000
