  ==> Input File <==

--------------------------------------------------------------------------
set {
	reference rhf
	basis 6-31G*
}

set_num_threads( 1 )
memory 2 gb

molecule MOL {
0 1

H	 -3.261111	 -0.295142	 1.469456
C	 -3.306842	 -0.277400	 0.373456
C	 -2.660244	 0.921717	 -0.272021
O	 -3.838538	 -1.161155	 -0.216482
C	 -1.455380	 0.542494	 -1.144229
H	 -3.414372	 1.451322	 -0.842564
H	 -2.328091	 1.577463	 0.531923
C	 -1.832289	 -0.269179	 -2.386173
H	 -0.950699	 1.454530	 -1.448815
H	 -0.737049	 -0.015166	 -0.545252
C	 -0.623426	 -0.630100	 -3.251737
H	 -2.546906	 0.298244	 -2.978795
H	 -2.345571	 -1.181713	 -2.088915
C	 -1.005815	 -1.427953	 -4.501201
H	 -0.109031	 0.284142	 -3.536850
H	 0.084508	 -1.208159	 -2.659232
C	 0.181480	 -1.883565	 -5.357250
H	 -1.683203	 -0.835036	 -5.113809
H	 -1.567178	 -2.307785	 -4.193826
C	 0.961998	 -0.746286	 -6.018316
H	 -0.190321	 -2.547546	 -6.133678
H	 0.857530	 -2.479458	 -4.747504
H	 0.307430	 -0.123326	 -6.622245
H	 1.445811	 -0.106820	 -5.287575
H	 1.736783	 -1.139001	 -6.669836

	symmetry c1
}
set optking {
	frozen_dihedral = ("
		6 3 5 8,
		3 5 8 12,
		12 8 11 14,
		8 11 14 18,
		20 17 14 18
	")
}

ee = energy('scf')
oeprop('DIPOLE', 'QUADRUPOLE', 'MULLIKEN_CHARGES')
f=open( 'psi4out.xyz', 'w' )
f.write( "25  " )
f.write( str(ee) + "\n" )
f.write( MOL.save_string_xyz() )
f.close()
--------------------------------------------------------------------------

    Molecular point group: c1

    Geometry (in Angstrom), charge = 0, multiplicity = 1:

       Center              X                  Y                   Z               Mass
    ------------   -----------------  -----------------  -----------------  -----------------
           H         -1.753933045561     0.259380000668     4.009399237809     1.007825032070
           C         -1.799664045561     0.277122000668     2.913399237809    12.000000000000
           C         -1.153066045561     1.476239000668     2.267922237809    12.000000000000
           O         -2.331360045561    -0.606632999332     2.323461237809    15.994914619560
           C          0.051797954439     1.097016000668     1.395714237809    12.000000000000
           H         -1.907194045561     2.005844000668     1.697379237809     1.007825032070
           H         -0.820913045561     2.131985000668     3.071866237809     1.007825032070
           C         -0.325111045561     0.285343000668     0.153770237809    12.000000000000
           H          0.556478954439     2.009052000668     1.091128237809     1.007825032070
           H          0.770128954439     0.539356000668     1.994691237809     1.007825032070
           C          0.883751954439    -0.075577999332    -0.711793762191    12.000000000000
           H         -1.039728045561     0.852766000668    -0.438851762191     1.007825032070
           H         -0.838393045561    -0.627190999332     0.451028237809     1.007825032070
           C          0.501362954439    -0.873430999332    -1.961257762191    12.000000000000
           H          1.398146954439     0.838664000668    -0.996906762191     1.007825032070
           H          1.591685954439    -0.653636999332    -0.119288762191     1.007825032070
           C          1.688657954439    -1.329042999332    -2.817306762191    12.000000000000
           H         -0.176025045561    -0.280513999332    -2.573865762191     1.007825032070
           H         -0.060000045561    -1.753262999332    -1.653882762191     1.007825032070
           C          2.469175954439    -0.191763999332    -3.478372762191    12.000000000000
           H          1.316856954439    -1.993023999332    -3.593734762191     1.007825032070
           H          2.364707954439    -1.924935999332    -2.207560762191     1.007825032070
           H          1.814607954439     0.431196000668    -4.082301762191     1.007825032070
           H          2.952988954439     0.447702000668    -2.747631762191     1.007825032070
           H          3.243960954439    -0.584478999332    -4.129892762191     1.007825032070

  Charge       = 0
  Multiplicity = 1
  Basis Set: 6-31G*
  Basis Set:

    Orbital Energies (a.u.)
    -----------------------

    Doubly Occupied:

       1A    -20.564234     2A    -11.328044     3A    -11.235480
       4A    -11.230989     5A    -11.212838     6A    -11.211384
       7A    -11.210333     8A    -11.209877     9A    -11.206473
      10A     -1.405286    11A     -1.095970    12A     -1.064507
      13A     -1.008915    14A     -0.940087    15A     -0.873728
      16A     -0.812164    17A     -0.780611    18A     -0.772420
      19A     -0.679434    20A     -0.660018    21A     -0.628553
      22A     -0.613390    23A     -0.594119    24A     -0.589220
      25A     -0.568927    26A     -0.550923    27A     -0.537007
      28A     -0.514457    29A     -0.504352    30A     -0.494711
      31A     -0.485959    32A     -0.471766    33A     -0.457676
      34A     -0.452453    35A     -0.435606    36A     -0.405189

  @DF-RHF Final Energy:  -387.11853455491035

   => Energetics <=

    Nuclear Repulsion Energy =            444.8113143734408936
    One-Electron Energy =               -1406.2452618399240691
    Two-Electron Energy =                 574.3154129115707747
    DFT Exchange-Correlation Energy =       0.0000000000000000
    Empirical Dispersion Energy =           0.0000000000000000
    PCM Polarization Energy =               0.0000000000000000
    EFP Energy =                            0.0000000000000000
    Total Energy =                       -387.1185345549124577

  Mulliken Charges: (a.u.)
   Center  Symbol    Alpha    Beta     Spin     Total
       1     H     0.42761  0.42761  0.00000  0.14478
       2     C     2.84422  2.84422  0.00000  0.31156
       3     C     3.20251  3.20251  0.00000 -0.40503
       4     O     4.23465  4.23465  0.00000 -0.46930
       5     C     3.16016  3.16016  0.00000 -0.32032
       6     H     0.39944  0.39944  0.00000  0.20113
       7     H     0.41546  0.41546  0.00000  0.16908
       8     C     3.15758  3.15758  0.00000 -0.31516
       9     H     0.41512  0.41512  0.00000  0.16977
      10     H     0.41887  0.41887  0.00000  0.16227
      11     C     3.15445  3.15445  0.00000 -0.30890
      12     H     0.42400  0.42400  0.00000  0.15201
      13     H     0.39949  0.39949  0.00000  0.20102
      14     C     3.15266  3.15266  0.00000 -0.30532
      15     H     0.42419  0.42419  0.00000  0.15163
      16     H     0.42496  0.42496  0.00000  0.15008
      17     C     3.15239  3.15239  0.00000 -0.30477
      18     H     0.42426  0.42426  0.00000  0.15148
      19     H     0.41962  0.41962  0.00000  0.16076
      20     C     3.24091  3.24091  0.00000 -0.48183
      21     H     0.42093  0.42093  0.00000  0.15814
      22     H     0.42358  0.42358  0.00000  0.15284
      23     H     0.42256  0.42256  0.00000  0.15488
      24     H     0.42072  0.42072  0.00000  0.15857
      25     H     0.41968  0.41968  0.00000  0.16064

   Total alpha = 36.00000, Total beta = 36.00000, Total charge =  0.00000
