                              Psi4 1.0.54 Driver

  ==> Input File <==

--------------------------------------------------------------------------
set {
	reference rhf
	basis cc-pvtz
}

set_num_threads( 4 )
memory 2 gb

molecule MOL {
0 1

H	 -3.431247	 -0.761353	 -0.592740
O	 -3.110492	 -0.171307	 0.065529
C	 -1.774168	 -0.067297	 0.018427
C	 -1.011627	 -0.767380	 -0.908315
C	 -1.164798	 0.772486	 0.935823
H	 -1.491631	 -1.416987	 -1.616858
C	 0.355546	 -0.624156	 -0.912883
H	 -1.771237	 1.303178	 1.641952
C	 0.205308	 0.904832	 0.917992
H	 0.955045	 -1.158751	 -1.622754
C	 0.981121	 0.213562	 0.000000
H	 0.679119	 1.556074	 1.629262
C	 2.447402	 0.371303	 0.000000
O	 3.227427	 -0.521847	 0.000000
H	 2.796538	 1.409525	 0.000000

	symmetry c1
}
set optking {
	frozen_dihedral = ("
		7 11 13 14
	")
}

ee,wfn = optimize('scf', return_wfn=True)
oeprop( wfn, 'DIPOLE', 'QUADRUPOLE', 'MULLIKEN_CHARGES')
f=open( 'psi4out.xyz', 'w' )
f.write( "15  " )
f.write( str(ee) + "\n" )
f.write( MOL.save_string_xyz() )
f.close()
--------------------------------------------------------------------------

    Molecular point group: c1
  Charge       = 0
  Multiplicity = 1
  Basis Set: CC-PVTZ
  Basis Set:
  @DF-RHF Final Energy:  -418.43352438667370
    Total Energy =                       -418.4335243866735254
    Molecular point group: c1
  Basis Set: CC-PVTZ
  Basis Set:
  Basis Set: CC-PVTZ
  Basis Set:
  @DF-RHF Final Energy:  -418.43257726559546
    Total Energy =                       -418.4325772655959099
  Basis Set: CC-PVTZ
  Basis Set:
  Basis Set: CC-PVTZ
  Basis Set:
  @DF-RHF Final Energy:  -418.43406815813836
    Total Energy =                       -418.4340681581386434
  Basis Set: CC-PVTZ
  Basis Set:
  Basis Set: CC-PVTZ
  Basis Set:
  @DF-RHF Final Energy:  -418.43444788138112
    Total Energy =                       -418.4344478813811747
  Basis Set: CC-PVTZ
  Basis Set:
  Basis Set: CC-PVTZ
  Basis Set:
  @DF-RHF Final Energy:  -418.43445173690867
    Total Energy =                       -418.4344517369086134
  Basis Set: CC-PVTZ
  Basis Set:
  Basis Set: CC-PVTZ
  Basis Set:
  @DF-RHF Final Energy:  -418.43445344940881
    Total Energy =                       -418.4344534494092613
  Basis Set: CC-PVTZ
  Basis Set:
  Basis Set: CC-PVTZ
  Basis Set:
  @DF-RHF Final Energy:  -418.43445231507610
    Total Energy =                       -418.4344523150761006
  Basis Set: CC-PVTZ
  Basis Set:
  Charge       = 0
  Multiplicity = 1
  Basis Set: CC-PVTZ
  Basis Set:

    Orbital Energies (a.u.)
    -----------------------

    Doubly Occupied:

       1A    -20.600686     2A    -20.553734     3A    -11.326619
       4A    -11.317063     5A    -11.254976     6A    -11.254138
       7A    -11.240956     8A    -11.239863     9A    -11.236525
      10A     -1.433152    11A     -1.408608    12A     -1.174228
      13A     -1.042879    14A     -1.041387    15A     -0.890782
      16A     -0.868456    17A     -0.799607    18A     -0.759506
      19A     -0.715954    20A     -0.673983    21A     -0.653386
      22A     -0.631657    23A     -0.611661    24A     -0.609443
      25A     -0.592439    26A     -0.565589    27A     -0.541883
      28A     -0.507811    29A     -0.494296    30A     -0.424028
      31A     -0.360372    32A     -0.329929

  @DF-RHF Final Energy:  -418.43445293479687

   => Energetics <=

    Nuclear Repulsion Energy =            401.6075536663910839
    One-Electron Energy =               -1365.7728085642295355
    Two-Electron Energy =                 545.7308019630414719
    DFT Exchange-Correlation Energy =       0.0000000000000000
    Empirical Dispersion Energy =           0.0000000000000000
    PCM Polarization Energy =               0.0000000000000000
    EFP Energy =                            0.0000000000000000
    Total Energy =                       -418.4344529347969228
    Molecular point group: c1
  Basis Set: CC-PVTZ
  Basis Set:

  -Total Gradient:
     Atom            X                  Y                   Z
    ------   -----------------  -----------------  -----------------
       1        0.000019797213    -0.000006580396    -0.000007599602
       2        0.000022537096     0.000097976460    -0.000009727479
       3       -0.000000593692    -0.000278021618     0.000031288174
       4       -0.000054942327    -0.000004521305     0.000003458392
       5        0.000085780000     0.000095628159    -0.000021269871
       6        0.000026583958    -0.000018673270     0.000003555601
       7       -0.000716340329     0.005582665511    -0.004248307356
       8        0.000022829760     0.000004107277     0.000006641376
       9        0.000017409150     0.000173821177     0.000115075457
      10       -0.000015620158    -0.000079235764    -0.000007022605
      11        0.001220328911    -0.008395369067     0.009702053529
      12        0.000012043280    -0.000011363151     0.000083437962
      13       -0.000792279020     0.003357138799    -0.013958344245
      14        0.000194829195    -0.000575919738     0.008349277633
      15       -0.000042363029     0.000058346924    -0.000042516968

  **** Optimization is complete! (in 8 steps) ****
    Final optimized geometry and variables:
    Molecular point group: c1

    Geometry (in Angstrom), charge = 0, multiplicity = 1:

    H           -3.444666303627    -0.728767281791    -0.610313953995
    O           -3.120715102872    -0.147748998459     0.054364153741
    C           -1.780441490041    -0.060736593934     0.013168192305
    C           -1.021504609104    -0.741401810199    -0.923504150071
    C           -1.164435318832     0.759778208731     0.945666402601
    H           -1.501257492453    -1.360427769846    -1.659170373589
    C            0.352741553316    -0.619707975296    -0.910010046042
    H           -1.768469456286     1.288784249460     1.655476572223
    C            0.204491349760     0.892611521474     0.929812326049
    H            0.943153668646    -1.154970886042    -1.628237305670
    C            0.981387279212     0.175199653502     0.031184759300
    H            0.675349487121     1.551221618318     1.636583306248
    C            2.453348625951     0.373744668799    -0.004866384744
    O            3.247088024404    -0.500503285599    -0.084315675757
    H            2.785595452994     1.411168058642     0.111189857832

  Mulliken Charges: (a.u.)
   Center  Symbol    Alpha    Beta     Spin     Total
       1     H     0.38593  0.38593  0.00000  0.22814
       2     O     4.16851  4.16851  0.00000 -0.33702
       3     C     2.85162  2.85162  0.00000  0.29676
       4     C     3.12665  3.12665  0.00000 -0.25330
       5     C     3.10195  3.10195  0.00000 -0.20390
       6     H     0.43174  0.43174  0.00000  0.13652
       7     C     3.08336  3.08336  0.00000 -0.16671
       8     H     0.41668  0.41668  0.00000  0.16664
       9     C     3.07506  3.07506  0.00000 -0.15012
      10     H     0.41264  0.41264  0.00000  0.17471
      11     C     2.97022  2.97022  0.00000  0.05955
      12     H     0.42230  0.42230  0.00000  0.15539
      13     C     2.92368  2.92368  0.00000  0.15264
      14     O     4.16820  4.16820  0.00000 -0.33639
      15     H     0.46145  0.46145  0.00000  0.07710

   Total alpha = 32.00000, Total beta = 32.00000, Total charge = -0.00000

*** Psi4 exiting successfully. Buy a developer a beer!
