  ==> Input File <==

--------------------------------------------------------------------------
set {
	reference rhf
	basis 6-31G*
}

set_num_threads( 4 )
memory 2 gb

molecule MOL {
0 1

H	 -1.836216	 1.387520	 -0.000064
C	 -1.301823	 0.443321	 -0.000031
O	 -0.003969	 0.658512	 0.000451
O	 -1.829879	 -0.616434	 -0.000857
C	 0.484137	 1.723260	 0.816080
C	 1.987631	 1.769951	 0.649811
H	 0.198986	 1.535293	 1.842079
H	 0.016111	 2.646152	 0.502205
H	 2.438503	 0.834717	 0.961395
H	 2.400318	 2.569304	 1.256407
H	 2.254912	 1.950945	 -0.384930

	symmetry c1
}
set optking {
	frozen_dihedral = ("
		5 3 2 4
	")
}

ee = optimize('scf')
oeprop('DIPOLE', 'QUADRUPOLE', 'MULLIKEN_CHARGES')
f=open( 'psi4out.xyz', 'w' )
f.write( "11  " )
f.write( str(ee) + "\n" )
f.write( MOL.save_string_xyz() )
f.close()
--------------------------------------------------------------------------

    Molecular point group: c1
  Charge       = 0
  Multiplicity = 1
  Basis Set: 6-31G*
  Basis Set:
  @DF-RHF Final Energy:  -266.81437806635415
    Total Energy =                       -266.8143780663540952
    Molecular point group: c1
  Basis Set: 6-31G*
  Basis Set:
  Basis Set: 6-31G*
  Basis Set:
  @DF-RHF Final Energy:  -266.81519824164275
    Total Energy =                       -266.8151982416428609
  Basis Set: 6-31G*
  Basis Set:
  Basis Set: 6-31G*
  Basis Set:
  @DF-RHF Final Energy:  -266.81542101347259
    Total Energy =                       -266.8154210134724735
  Basis Set: 6-31G*
  Basis Set:
  Basis Set: 6-31G*
  Basis Set:
  @DF-RHF Final Energy:  -266.81559826255591
    Total Energy =                       -266.8155982625559091
  Basis Set: 6-31G*
  Basis Set:
  Basis Set: 6-31G*
  Basis Set:
  @DF-RHF Final Energy:  -266.81565609299281
    Total Energy =                       -266.8156560929928673
  Basis Set: 6-31G*
  Basis Set:
  Basis Set: 6-31G*
  Basis Set:
  @DF-RHF Final Energy:  -266.81565871702946
    Total Energy =                       -266.8156587170294642
  Basis Set: 6-31G*
  Basis Set:
  Charge       = 0
  Multiplicity = 1
  Basis Set: 6-31G*
  Basis Set:

    Orbital Energies (a.u.)
    -----------------------

    Doubly Occupied:

       1A    -20.606139     2A    -20.561400     3A    -11.380448
       4A    -11.306403     5A    -11.232804     6A     -1.471178
       7A     -1.381305     8A     -1.053984     9A     -0.888333
      10A     -0.844062    11A     -0.740684    12A     -0.691543
      13A     -0.660973    14A     -0.620020    15A     -0.569343
      16A     -0.552668    17A     -0.537312    18A     -0.513223
      19A     -0.461422    20A     -0.450858

  @DF-RHF Final Energy:  -266.81565886358504

   => Energetics <=

    Nuclear Repulsion Energy =            176.3428590125628830
    One-Electron Energy =                -713.2688330139388881
    Two-Electron Energy =                 270.1103151377910194
    DFT Exchange-Correlation Energy =       0.0000000000000000
    Empirical Dispersion Energy =           0.0000000000000000
    PCM Polarization Energy =               0.0000000000000000
    EFP Energy =                            0.0000000000000000
    Total Energy =                       -266.8156588635850426
    Molecular point group: c1
  Basis Set: 6-31G*
  Basis Set:

  -Total Gradient:
     Atom            X                  Y                   Z
    ------   -----------------  -----------------  -----------------
       1        0.000002199092    -0.000001948439    -0.000025031080
       2        0.000805078435    -0.001981535424    -0.006279302457
       3       -0.000016211736     0.003774075425    -0.002680989179
       4       -0.000594599278     0.000572964613     0.005399720930
       5       -0.000179128296    -0.002336652879     0.003626254804
       6       -0.000012788158    -0.000016565704    -0.000026065605
       7        0.000006516216     0.000013725486     0.000007111475
       8        0.000004473762    -0.000021231587    -0.000012050004
       9       -0.000003174546    -0.000000569553     0.000001123295
      10       -0.000018819846    -0.000004826955    -0.000002393079
      11        0.000006454362     0.000002565018    -0.000008379098

  **** Optimization is complete! (in 7 steps) ****
    Final optimized geometry and variables:
    Molecular point group: c1

    Geometry (in Angstrom), charge = 0, multiplicity = 1:

    H           -1.673799854765     0.629460208341    -0.500054892144
    C           -1.167661316238    -0.324810176109    -0.350563796670
    O            0.148488682350    -0.209008572188    -0.211465011518
    O           -1.741715847202    -1.351894607886    -0.307206138654
    C            0.632694828202     0.888535664405     0.546419539529
    C            2.125097883168     0.995125403687     0.317725004795
    H            0.409984855966     0.715721339916     1.592892130164
    H            0.127133733737     1.799181415293     0.236983252296
    H            2.619347991964     0.079289320990     0.618251243067
    H            2.532507221380     1.815889780935     0.898619900461
    H            2.337075227990     1.172153607572    -0.730122067791

  Mulliken Charges: (a.u.)
   Center  Symbol    Alpha    Beta     Spin     Total
       1     H     0.43107  0.43107  0.00000  0.13787
       2     C     2.72542  2.72542  0.00000  0.54916
       3     O     4.28890  4.28890  0.00000 -0.57779
       4     O     4.23855  4.23855  0.00000 -0.47710
       5     C     3.00828  3.00828  0.00000 -0.01655
       6     C     3.24699  3.24699  0.00000 -0.49397
       7     H     0.41155  0.41155  0.00000  0.17690
       8     H     0.42025  0.42025  0.00000  0.15949
       9     H     0.40456  0.40456  0.00000  0.19089
      10     H     0.41567  0.41567  0.00000  0.16866
      11     H     0.40878  0.40878  0.00000  0.18245

   Total alpha = 20.00000, Total beta = 20.00000, Total charge = -0.00000
