  ==> Input File <==

--------------------------------------------------------------------------
set {
	reference rhf
	basis 6-31G*
}

set_num_threads( 1 )
memory 2 gb

molecule MOL {
0 1

H	 -2.754485	 -0.328923	 2.635967
C	 -3.052391	 -0.560897	 1.605889
C	 -2.726703	 0.506663	 0.592550
O	 -3.590233	 -1.590788	 1.357293
C	 -1.253882	 0.936227	 0.642823
H	 -3.001963	 0.141113	 -0.389954
H	 -3.358031	 1.365214	 0.818320
C	 -0.282181	 -0.163265	 0.206690
H	 -1.126875	 1.804487	 0.003074
H	 -1.007665	 1.264934	 1.651330
C	 1.180775	 0.282413	 0.250794
H	 -0.534662	 -0.481506	 -0.802678
H	 -0.409027	 -1.040010	 0.838963
C	 2.148627	 -0.814315	 -0.201312
H	 1.299201	 1.164101	 -0.373974
H	 1.433828	 0.589019	 1.264865
C	 3.580890	 -0.659131	 0.322722
H	 2.166869	 -0.852443	 -1.289387
H	 1.762857	 -1.776509	 0.128956
C	 4.324889	 0.564933	 -0.213704
H	 4.142010	 -1.551473	 0.056605
H	 3.564836	 -0.624694	 1.410140
H	 4.342616	 0.565491	 -1.300421
H	 3.866655	 1.493402	 0.110242
H	 5.353900	 0.572371	 0.132816

	symmetry c1
}
set optking {
	frozen_dihedral = ("
		6 3 5 8,
		6 3 2 4,
		3 5 8 12,
		12 8 11 14,
		20 17 14 18
	")
}

ee = energy('scf')
oeprop('DIPOLE', 'QUADRUPOLE', 'MULLIKEN_CHARGES')
f=open( 'psi4out.xyz', 'w' )
f.write( "25  " )
f.write( str(ee) + "\n" )
f.write( MOL.save_string_xyz() )
f.close()
--------------------------------------------------------------------------

    Molecular point group: c1

    Geometry (in Angstrom), charge = 0, multiplicity = 1:

       Center              X                  Y                   Z               Mass
    ------------   -----------------  -----------------  -----------------  -----------------
           H         -2.797242128345    -0.157128158499     2.127691027495     1.007825032070
           C         -3.095148128345    -0.389102158499     1.097613027495    12.000000000000
           C         -2.769460128345     0.678457841501     0.084274027495    12.000000000000
           O         -3.632990128345    -1.418993158499     0.849017027495    15.994914619560
           C         -1.296639128345     1.108021841501     0.134547027495    12.000000000000
           H         -3.044720128345     0.312907841501    -0.898229972505     1.007825032070
           H         -3.400788128345     1.537008841501     0.310044027495     1.007825032070
           C         -0.324938128345     0.008529841501    -0.301585972505    12.000000000000
           H         -1.169632128345     1.976281841501    -0.505201972505     1.007825032070
           H         -1.050422128345     1.436728841501     1.143054027495     1.007825032070
           C          1.138017871655     0.454207841501    -0.257481972505    12.000000000000
           H         -0.577419128345    -0.309711158499    -1.310953972505     1.007825032070
           H         -0.451784128345    -0.868215158499     0.330687027495     1.007825032070
           C          2.105869871655    -0.642520158499    -0.709587972505    12.000000000000
           H          1.256443871655     1.335895841501    -0.882249972505     1.007825032070
           H          1.391070871655     0.760813841501     0.756589027495     1.007825032070
           C          3.538132871655    -0.487336158499    -0.185553972505    12.000000000000
           H          2.124111871655    -0.680648158499    -1.797662972505     1.007825032070
           H          1.720099871655    -1.604714158499    -0.379319972505     1.007825032070
           C          4.282131871655     0.736727841501    -0.721979972505    12.000000000000
           H          4.099252871655    -1.379678158499    -0.451670972505     1.007825032070
           H          3.522078871655    -0.452899158499     0.901864027495     1.007825032070
           H          4.299858871655     0.737285841501    -1.808696972505     1.007825032070
           H          3.823897871655     1.665196841501    -0.398033972505     1.007825032070
           H          5.311142871655     0.744165841501    -0.375459972505     1.007825032070

  Charge       = 0
  Multiplicity = 1
  Basis Set: 6-31G*
  Basis Set:

    Orbital Energies (a.u.)
    -----------------------

    Doubly Occupied:

       1A    -20.562045     2A    -11.326195     3A    -11.235296
       4A    -11.234646     5A    -11.224158     6A    -11.219658
       7A    -11.217954     8A    -11.216519     9A    -11.210677
      10A     -1.402033    11A     -1.104083    12A     -1.069669
      13A     -1.013420    14A     -0.942349    15A     -0.874962
      16A     -0.821371    17A     -0.788128    18A     -0.781173
      19A     -0.665004    20A     -0.661001    21A     -0.633947
      22A     -0.624948    23A     -0.601136    24A     -0.594244
      25A     -0.575742    26A     -0.551094    27A     -0.533721
      28A     -0.525795    29A     -0.509498    30A     -0.494144
      31A     -0.491581    32A     -0.480611    33A     -0.462658
      34A     -0.459342    35A     -0.441007    36A     -0.409594

  @DF-RHF Final Energy:  -387.12077794599293

   => Energetics <=

    Nuclear Repulsion Energy =            439.2327215006773713
    One-Electron Energy =               -1394.7881853046342258
    Two-Electron Energy =                 568.4346858579610853
    DFT Exchange-Correlation Energy =       0.0000000000000000
    Empirical Dispersion Energy =           0.0000000000000000
    PCM Polarization Energy =               0.0000000000000000
    EFP Energy =                            0.0000000000000000
    Total Energy =                       -387.1207779459957692

  Mulliken Charges: (a.u.)
   Center  Symbol    Alpha    Beta     Spin     Total
       1     H     0.43259  0.43259  0.00000  0.13481
       2     C     2.83088  2.83088  0.00000  0.33823
       3     C     3.20815  3.20815  0.00000 -0.41629
       4     O     4.23776  4.23776  0.00000 -0.47553
       5     C     3.16675  3.16675  0.00000 -0.33350
       6     H     0.39968  0.39968  0.00000  0.20063
       7     H     0.40668  0.40668  0.00000  0.18663
       8     C     3.15597  3.15597  0.00000 -0.31195
       9     H     0.41283  0.41283  0.00000  0.17433
      10     H     0.41958  0.41958  0.00000  0.16084
      11     C     3.15395  3.15395  0.00000 -0.30789
      12     H     0.41779  0.41779  0.00000  0.16442
      13     H     0.41819  0.41819  0.00000  0.16362
      14     C     3.15409  3.15409  0.00000 -0.30817
      15     H     0.42058  0.42058  0.00000  0.15885
      16     H     0.42343  0.42343  0.00000  0.15314
      17     C     3.15322  3.15322  0.00000 -0.30644
      18     H     0.42208  0.42208  0.00000  0.15584
      19     H     0.41991  0.41991  0.00000  0.16018
      20     C     3.24112  3.24112  0.00000 -0.48223
      21     H     0.42037  0.42037  0.00000  0.15927
      22     H     0.42315  0.42315  0.00000  0.15370
      23     H     0.42196  0.42196  0.00000  0.15608
      24     H     0.42043  0.42043  0.00000  0.15914
      25     H     0.41885  0.41885  0.00000  0.16231

   Total alpha = 36.00000, Total beta = 36.00000, Total charge = -0.00000
