  ==> Input File <==

--------------------------------------------------------------------------
set {
	reference rhf
	basis 6-31G*
}

set_num_threads( 4 )
memory 2 gb

molecule MOL {
0 1

H	 2.254579	 -1.523238	 2.011106
O	 2.624800	 -0.801893	 1.520903
C	 1.682627	 -0.174351	 0.789003
C	 2.090234	 0.909019	 0.016922
C	 0.358605	 -0.568161	 0.785571
H	 3.124816	 1.195568	 0.036617
C	 1.172719	 1.592426	 -0.753912
H	 0.016950	 -1.399068	 1.370715
C	 -0.536158	 0.140425	 0.000000
H	 1.496055	 2.427657	 -1.346957
C	 -0.163624	 1.216112	 -0.774380
N	 -1.935604	 -0.280333	 0.000000
H	 -0.887026	 1.736355	 -1.367204
O	 -2.161694	 -1.452901	 0.000000
O	 -2.770341	 0.571417	 0.000000

	symmetry c1
}
set optking {
	frozen_dihedral = ("
		11 9 12 14
	")
}

ee = optimize('scf')
oeprop('DIPOLE', 'QUADRUPOLE', 'MULLIKEN_CHARGES')
f=open( 'psi4out.xyz', 'w' )
f.write( "15  " )
f.write( str(ee) + "\n" )
f.write( MOL.save_string_xyz() )
f.close()
--------------------------------------------------------------------------

    Molecular point group: c1
  Charge       = 0
  Multiplicity = 1
  Basis Set: 6-31G*
  Basis Set:
  @DF-RHF Final Energy:  -509.02428519840618
    Total Energy =                       -509.0242851984062327
    Molecular point group: c1
  Basis Set: 6-31G*
  Basis Set:
  Basis Set: 6-31G*
  Basis Set:
  @DF-RHF Final Energy:  -509.01816604560497
    Total Energy =                       -509.0181660456056534
  Basis Set: 6-31G*
  Basis Set:
  Basis Set: 6-31G*
  Basis Set:
  @DF-RHF Final Energy:  -509.02447869875135
    Total Energy =                       -509.0244786987515226
  Basis Set: 6-31G*
  Basis Set:
  Basis Set: 6-31G*
  Basis Set:
  @DF-RHF Final Energy:  -509.02470531880431
    Total Energy =                       -509.0247053188041946
  Basis Set: 6-31G*
  Basis Set:
  Basis Set: 6-31G*
  Basis Set:
  @DF-RHF Final Energy:  -509.02470622478921
    Total Energy =                       -509.0247062247894974
  Basis Set: 6-31G*
  Basis Set:
  Charge       = 0
  Multiplicity = 1
  Basis Set: 6-31G*
  Basis Set:

    Orbital Energies (a.u.)
    -----------------------

    Doubly Occupied:

       1A    -20.616821     2A    -20.607146     3A    -20.606781
       4A    -15.858953     5A    -11.331981     6A    -11.313150
       7A    -11.268228     8A    -11.267829     9A    -11.264160
      10A    -11.258755    11A     -1.639081    12A     -1.437663
      13A     -1.422863    14A     -1.201814    15A     -1.095789
      16A     -1.047728    17A     -0.966173    18A     -0.881423
      19A     -0.829179    20A     -0.789848    21A     -0.758017
      22A     -0.734918    23A     -0.720985    24A     -0.710171
      25A     -0.671268    26A     -0.635464    27A     -0.616967
      28A     -0.594067    29A     -0.561366    30A     -0.546947
      31A     -0.523346    32A     -0.490844    33A     -0.489639
      34A     -0.453958    35A     -0.375740    36A     -0.343353

  @DF-RHF Final Energy:  -509.02470650751314

   => Energetics <=

    Nuclear Repulsion Energy =            503.3201217638803087
    One-Electron Energy =               -1692.8248248431868888
    Two-Electron Energy =                 680.4799965717935493
    DFT Exchange-Correlation Energy =       0.0000000000000000
    Empirical Dispersion Energy =           0.0000000000000000
    PCM Polarization Energy =               0.0000000000000000
    EFP Energy =                            0.0000000000000000
    Total Energy =                       -509.0247065075130877
    Molecular point group: c1
  Basis Set: 6-31G*
  Basis Set:

  -Total Gradient:
     Atom            X                  Y                   Z
    ------   -----------------  -----------------  -----------------
       1       -0.000001175535     0.000008508016     0.000012829061
       2        0.000002319630    -0.000018974128    -0.000015523534
       3       -0.000001065901     0.000020068108    -0.000011562949
       4       -0.000002140729     0.000009749923     0.000033745147
       5       -0.000036036181     0.000035578656     0.000004379300
       6        0.000000118683     0.000001064233     0.000000096255
       7       -0.000000875861    -0.000026821694    -0.000032566954
       8       -0.000004418314    -0.000010558959     0.000005169221
       9       -0.001242351342     0.003761873669     0.002730482747
      10       -0.000000661966     0.000000925385     0.000003067498
      11        0.000908431076    -0.002641704232    -0.003156526188
      12        0.000233615136    -0.001045498006     0.005308605120
      13        0.000001973022    -0.000001049810     0.000000259844
      14        0.000149481220    -0.000083480191    -0.004873674607
      15       -0.000007212935    -0.000009680969    -0.000008779963

  **** Optimization is complete! (in 6 steps) ****
    Final optimized geometry and variables:
    Molecular point group: c1

    Geometry (in Angstrom), charge = 0, multiplicity = 1:

    H            2.276462137666    -1.596657851010     1.818974906341
    O            2.642124046576    -0.867556413564     1.336986216427
    C            1.698597708863    -0.239065715318     0.609123867473
    C            2.106080230872     0.839255406415    -0.170735468084
    C            0.373507941574    -0.631765032603     0.608523639321
    H            3.142852946650     1.118243036818    -0.161720633052
    C            1.187800099713     1.522917452966    -0.940045418405
    H            0.034989570317    -1.478167941078     1.175478389238
    C           -0.522834253540     0.096202180651    -0.153626850549
    H            1.514022748318     2.346776091501    -1.547306682653
    C           -0.153571954375     1.161464224870    -0.940432509985
    N           -1.912623392012    -0.344674123208    -0.181790496521
    H           -0.882670270405     1.689330656162    -1.521610423548
    O           -2.115114444006    -1.521134424880    -0.164547107846
    O           -2.754319270536     0.497002010902    -0.257775191868

  Mulliken Charges: (a.u.)
   Center  Symbol    Alpha    Beta     Spin     Total
       1     H     0.26735  0.26735  0.00000  0.46531
       2     O     4.37496  4.37496  0.00000 -0.74993
       3     C     2.79334  2.79334  0.00000  0.41333
       4     C     3.11100  3.11100  0.00000 -0.22199
       5     C     3.13465  3.13465  0.00000 -0.26929
       6     H     0.38135  0.38135  0.00000  0.23729
       7     C     3.09923  3.09923  0.00000 -0.19847
       8     H     0.37431  0.37431  0.00000  0.25138
       9     C     2.90002  2.90002  0.00000  0.19996
      10     H     0.38655  0.38655  0.00000  0.22690
      11     C     3.09896  3.09896  0.00000 -0.19792
      12     N     3.25396  3.25396  0.00000  0.49207
      13     H     0.37036  0.37036  0.00000  0.25928
      14     O     4.22857  4.22857  0.00000 -0.45713
      15     O     4.22539  4.22539  0.00000 -0.45079

   Total alpha = 36.00000, Total beta = 36.00000, Total charge = -0.00000
