  ==> Input File <==

--------------------------------------------------------------------------
set {
	reference rhf
	basis 6-31G*
}

set_num_threads( 4 )
memory 2 gb

molecule MOL {
0 1

H	 -3.420663	 1.227371	 -1.044276
O	 -3.452007	 0.283848	 -0.965577
C	 -3.181085	 -0.079926	 0.364119
C	 -1.765924	 0.277073	 0.805136
H	 -3.327791	 -1.152017	 0.410903
H	 -3.905698	 0.375695	 1.036898
C	 -0.677594	 -0.417312	 -0.014550
H	 -1.637766	 1.358238	 0.744969
H	 -1.659588	 0.017670	 1.857098
C	 0.738335	 -0.034840	 0.421385
H	 -0.814977	 -0.178223	 -1.064632
H	 -0.802730	 -1.495410	 0.071702
C	 1.822265	 -0.738362	 -0.399735
H	 0.853533	 1.043532	 0.342250
H	 0.871597	 -0.279636	 1.474438
C	 3.258060	 -0.455774	 0.057203
H	 1.718003	 -0.459167	 -1.447053
H	 1.651028	 -1.811884	 -0.354513
C	 3.839845	 0.863747	 -0.453478
H	 3.893629	 -1.270474	 -0.281330
H	 3.299110	 -0.471718	 1.144523
H	 3.800382	 0.913375	 -1.538429
H	 4.879065	 0.967366	 -0.156624
H	 3.303679	 1.722487	 -0.063278

	symmetry c1
}
set optking {
	frozen_dihedral = ("
		20 16 13 17
	")
}

ee = optimize('scf')
oeprop('DIPOLE', 'QUADRUPOLE', 'MULLIKEN_CHARGES')
f=open( 'psi4out.xyz', 'w' )
f.write( "24  " )
f.write( str(ee) + "\n" )
f.write( MOL.save_string_xyz() )
f.close()
--------------------------------------------------------------------------

    Molecular point group: c1
  Charge       = 0
  Multiplicity = 1
  Basis Set: 6-31G*
  Basis Set:
  @DF-RHF Final Energy:  -349.24670915981238
    Total Energy =                       -349.2467091598124398
    Molecular point group: c1
  Basis Set: 6-31G*
  Basis Set:
  Basis Set: 6-31G*
  Basis Set:
  @DF-RHF Final Energy:  -349.24688764680207
    Total Energy =                       -349.2468876468020653
  Basis Set: 6-31G*
  Basis Set:
  Basis Set: 6-31G*
  Basis Set:
  @DF-RHF Final Energy:  -349.24699476534352
    Total Energy =                       -349.2469947653435156
  Basis Set: 6-31G*
  Basis Set:
  Basis Set: 6-31G*
  Basis Set:
  @DF-RHF Final Energy:  -349.24700104975886
    Total Energy =                       -349.2470010497589783
  Basis Set: 6-31G*
  Basis Set:
  Basis Set: 6-31G*
  Basis Set:
  @DF-RHF Final Energy:  -349.24700372359996
    Total Energy =                       -349.2470037236003009
  Basis Set: 6-31G*
  Basis Set:
  Charge       = 0
  Multiplicity = 1
  Basis Set: 6-31G*
  Basis Set:

    Orbital Energies (a.u.)
    -----------------------

    Doubly Occupied:

       1A    -20.553572     2A    -11.267706     3A    -11.217488
       4A    -11.213858     5A    -11.212526     6A    -11.211531
       7A    -11.211051     8A    -11.207738     9A     -1.360171
      10A     -1.088386    11A     -1.048232    12A     -0.986078
      13A     -0.914570    14A     -0.848372    15A     -0.800101
      16A     -0.779820    17A     -0.679016    18A     -0.653778
      19A     -0.623265    20A     -0.620572    21A     -0.597851
      22A     -0.583422    23A     -0.558671    24A     -0.538388
      25A     -0.515344    26A     -0.512084    27A     -0.496304
      28A     -0.473462    29A     -0.467634    30A     -0.459140
      31A     -0.456311    32A     -0.450754    33A     -0.418738

  @DF-RHF Final Energy:  -349.24700347194619

   => Energetics <=

    Nuclear Repulsion Energy =            383.9993252556963625
    One-Electron Energy =               -1234.4407942051616374
    Two-Electron Energy =                 501.1944654775188042
    DFT Exchange-Correlation Energy =       0.0000000000000000
    Empirical Dispersion Energy =           0.0000000000000000
    PCM Polarization Energy =               0.0000000000000000
    EFP Energy =                            0.0000000000000000
    Total Energy =                       -349.2470034719464707
    Molecular point group: c1
  Basis Set: 6-31G*
  Basis Set:

  -Total Gradient:
     Atom            X                  Y                   Z
    ------   -----------------  -----------------  -----------------
       1       -0.000000581235     0.000002926501    -0.000001978221
       2       -0.000000779757     0.000006526083     0.000008340004
       3       -0.000001773350    -0.000026864072     0.000006942448
       4       -0.000001135391    -0.000022115786     0.000025701536
       5       -0.000005046597    -0.000002956196    -0.000001611460
       6        0.000001667212    -0.000001015246    -0.000002100891
       7        0.000004798167     0.000016483341     0.000007200176
       8        0.000000076476    -0.000012238175    -0.000016253896
       9       -0.000002943575     0.000015078270     0.000014083190
      10       -0.000016781223    -0.000025118111    -0.000039926996
      11        0.000009053233     0.000028906318     0.000003399505
      12        0.000002864701     0.000007546694    -0.000014020020
      13        0.000713163932    -0.002781714000    -0.000202004566
      14       -0.000003606383    -0.000015292930    -0.000040068354
      15       -0.000017697436     0.000036031049     0.000011701084
      16        0.000298486708     0.001720014237    -0.002249078667
      17       -0.000666248822     0.002073210248     0.000565946353
      18       -0.000015243663    -0.000018216865    -0.000010443532
      19       -0.000006614415     0.000054739178     0.000006904146
      20       -0.000335500012    -0.001052526972     0.001960940748
      21        0.000020110408    -0.000006653432    -0.000015566048
      22        0.000019077033     0.000008393537    -0.000024147227
      23       -0.000012431980    -0.000003886988     0.000007683747
      24        0.000017085967    -0.000001256686    -0.000001643059

  **** Optimization is complete! (in 6 steps) ****
    Final optimized geometry and variables:
    Molecular point group: c1

    Geometry (in Angstrom), charge = 0, multiplicity = 1:

    H           -3.391844704056     1.310043207973    -0.984862694608
    O           -3.440944734852     0.365582912315    -0.930726348427
    C           -3.188881505609    -0.036883133850     0.391522328399
    C           -1.771470561116     0.282502632077     0.853708417933
    H           -3.355471582183    -1.106849694240     0.409422247798
    H           -3.911155819985     0.414647164536     1.069482341578
    C           -0.688568557229    -0.409977311000     0.025228766009
    H           -1.623236006166     1.362329498846     0.822820915674
    H           -1.679219656625    -0.005998911994     1.899401125568
    C            0.729929815153    -0.064734742149     0.482298647355
    H           -0.812842243048    -0.141937558463    -1.019419849128
    H           -0.833479746499    -1.487605351483     0.082892318863
    C            1.811441973789    -0.783615128123    -0.330475186762
    H            0.872943808491     1.011864760585     0.416255947440
    H            0.844142298049    -0.322678684400     1.534097916201
    C            3.244918564570    -0.438031687941     0.097841571508
    H            1.680333197355    -0.533050101022    -1.381768843602
    H            1.657667997639    -1.856448492034    -0.243564130369
    C            3.750714720236     0.903168612248    -0.434497554772
    H            3.915404875185    -1.229690502436    -0.226641528003
    H            3.301030337365    -0.437906183995     1.184830633139
    H            3.755162538611     0.913871968107    -1.520878341913
    H            4.764548718460     1.097907485928    -0.098231094375
    H            3.131550510143     1.729266495168    -0.098908983652

  Mulliken Charges: (a.u.)
   Center  Symbol    Alpha    Beta     Spin     Total
       1     H     0.28339  0.28339  0.00000  0.43323
       2     O     4.36830  4.36830  0.00000 -0.73660
       3     C     2.99615  2.99615  0.00000  0.00769
       4     C     3.16901  3.16901  0.00000 -0.33802
       5     H     0.41632  0.41632  0.00000  0.16737
       6     H     0.42816  0.42816  0.00000  0.14368
       7     C     3.15190  3.15190  0.00000 -0.30380
       8     H     0.42834  0.42834  0.00000  0.14332
       9     H     0.42233  0.42233  0.00000  0.15534
      10     C     3.15314  3.15314  0.00000 -0.30629
      11     H     0.41205  0.41205  0.00000  0.17591
      12     H     0.42367  0.42367  0.00000  0.15265
      13     C     3.15288  3.15288  0.00000 -0.30575
      14     H     0.42402  0.42402  0.00000  0.15197
      15     H     0.42508  0.42508  0.00000  0.14985
      16     C     3.15381  3.15381  0.00000 -0.30761
      17     H     0.42320  0.42320  0.00000  0.15361
      18     H     0.42139  0.42139  0.00000  0.15722
      19     C     3.24008  3.24008  0.00000 -0.48015
      20     H     0.42061  0.42061  0.00000  0.15879
      21     H     0.42364  0.42364  0.00000  0.15271
      22     H     0.42156  0.42156  0.00000  0.15688
      23     H     0.41963  0.41963  0.00000  0.16073
      24     H     0.42136  0.42136  0.00000  0.15729

   Total alpha = 33.00000, Total beta = 33.00000, Total charge = -0.00000
