                              Psi4 1.0.54 Driver

  ==> Input File <==

--------------------------------------------------------------------------
set {
	reference rhf
	basis cc-pvtz
}

set_num_threads( 4 )
memory 2 gb

molecule MOL {
0 1

O	 -0.694481	 1.313155	 -0.204815
C	 -0.862519	 0.151932	 -0.046791
C	 -2.171428	 -0.477048	 0.339095
O	 0.085519	 -0.757083	 -0.192238
H	 -2.467997	 -1.191667	 -0.417688
H	 -2.923379	 0.287970	 0.444097
H	 -2.053854	 -1.015120	 1.270901
C	 0.422547	 -1.190890	 -1.504756
C	 1.432797	 -0.269927	 -2.156768
H	 -0.476322	 -1.263556	 -2.096845
H	 0.834943	 -2.179410	 -1.368704
H	 1.714711	 -0.667561	 -3.125201
H	 1.017530	 0.717787	 -2.302907
H	 2.325738	 -0.189651	 -1.548650

	symmetry c1
}
set optking {
	frozen_dihedral = ("
		8 4 2 1
	")
}

ee,wfn = optimize('scf', return_wfn=True)
oeprop( wfn, 'DIPOLE', 'QUADRUPOLE', 'MULLIKEN_CHARGES')
f=open( 'psi4out.xyz', 'w' )
f.write( "14  " )
f.write( str(ee) + "\n" )
f.write( MOL.save_string_xyz() )
f.close()
--------------------------------------------------------------------------

    Molecular point group: c1
  Charge       = 0
  Multiplicity = 1
  Basis Set: CC-PVTZ
  Basis Set:
  @DF-RHF Final Energy:  -305.97152543953450
    Total Energy =                       -305.9715254395342185
    Molecular point group: c1
  Basis Set: CC-PVTZ
  Basis Set:
  Basis Set: CC-PVTZ
  Basis Set:
  @DF-RHF Final Energy:  -305.94420953903136
    Total Energy =                       -305.9442095390314194
  Basis Set: CC-PVTZ
  Basis Set:
  Basis Set: CC-PVTZ
  Basis Set:
  @DF-RHF Final Energy:  -305.95182230369528
    Total Energy =                       -305.9518223036953941
  Basis Set: CC-PVTZ
  Basis Set:
  Basis Set: CC-PVTZ
  Basis Set:
  @DF-RHF Final Energy:  -305.96475486295367
    Total Energy =                       -305.9647548629536118
  Basis Set: CC-PVTZ
  Basis Set:
  @DF-RHF Final Energy:  -305.96614023586380
    Total Energy =                       -305.9661402358638043
  @DF-RHF Final Energy:  -305.97080333552901
    Total Energy =                       -305.9708033355294674
  @DF-RHF Final Energy:  -305.97273357042621
    Total Energy =                       -305.9727335704262714
  Basis Set: CC-PVTZ
  Basis Set:
  @DF-RHF Final Energy:  -305.97274039187823
    Total Energy =                       -305.9727403918783466
  Basis Set: CC-PVTZ
  Basis Set:
  Basis Set: CC-PVTZ
  Basis Set:
  @DF-RHF Final Energy:  -305.97280164315157
    Total Energy =                       -305.9728016431514561
  Basis Set: CC-PVTZ
  Basis Set:
  Basis Set: CC-PVTZ
  Basis Set:
  @DF-RHF Final Energy:  -305.97280353882343
    Total Energy =                       -305.9728035388235412
  Basis Set: CC-PVTZ
  Basis Set:
  Charge       = 0
  Multiplicity = 1
  Basis Set: CC-PVTZ
  Basis Set:

    Orbital Energies (a.u.)
    -----------------------

    Doubly Occupied:

       1A    -20.575751     2A    -20.545176     3A    -11.370796
       4A    -11.293825     5A    -11.235382     6A    -11.215258
       7A     -1.461026     8A     -1.368853     9A     -1.048220
      10A     -1.005340    11A     -0.881316    12A     -0.771404
      13A     -0.695050    14A     -0.684246    15A     -0.665946
      16A     -0.608012    17A     -0.590241    18A     -0.581176
      19A     -0.558583    20A     -0.539434    21A     -0.513857
      22A     -0.491295    23A     -0.453620    24A     -0.439914

  @DF-RHF Final Energy:  -305.97280406365496

   => Energetics <=

    Nuclear Repulsion Energy =            247.9359671174380821
    One-Electron Energy =                -908.6300984299775791
    Two-Electron Energy =                 354.7213272488845064
    DFT Exchange-Correlation Energy =       0.0000000000000000
    Empirical Dispersion Energy =           0.0000000000000000
    PCM Polarization Energy =               0.0000000000000000
    EFP Energy =                            0.0000000000000000
    Total Energy =                       -305.9728040636550190
    Molecular point group: c1
  Basis Set: CC-PVTZ
  Basis Set:

  -Total Gradient:
     Atom            X                  Y                   Z
    ------   -----------------  -----------------  -----------------
       1        0.000511147741     0.002971364144     0.003014155276
       2       -0.001320518163    -0.005576131170    -0.003525426230
       3       -0.000044607694     0.000012907288    -0.000010939837
       4        0.002008813835     0.005249146076    -0.001338608389
       5       -0.000017966166     0.000002466952     0.000009529328
       6        0.000039741928    -0.000029310246     0.000009368972
       7       -0.000006898226    -0.000019108649    -0.000002508466
       8       -0.001186728152    -0.002634441741     0.001829049326
       9        0.000044812367    -0.000017204768    -0.000033093616
      10        0.000011965666     0.000007922346     0.000006405503
      11       -0.000017149413     0.000009100749     0.000004514750
      12       -0.000019753703     0.000043539748     0.000030418056
      13       -0.000006769045    -0.000013700630     0.000007592889
      14        0.000003909024    -0.000006550098    -0.000000457560

  **** Optimization is complete! (in 11 steps) ****
    Final optimized geometry and variables:
    Molecular point group: c1

    Geometry (in Angstrom), charge = 0, multiplicity = 1:

    O           -0.976165833074     1.230468056549    -0.375688494137
    C           -0.711144224399     0.380787295389     0.394785699541
    C           -1.703122821348    -0.265258939986     1.320060934594
    O            0.548000720794    -0.055309657680     0.586397850584
    H           -1.699461701579    -1.338437556285     1.170342320176
    H           -2.690649315951     0.130772215727     1.146882168573
    H           -1.399261019861    -0.081818129634     2.343041175361
    C            1.077628011141    -0.980730035100    -0.355126936284
    C            1.738063634016    -0.291411150217    -1.531246478081
    H            0.289358242793    -1.646813666166    -0.691133479813
    H            1.794087082319    -1.570261792651     0.197151344835
    H            2.166010038766    -1.034713246727    -2.195439877547
    H            1.024671175501     0.301876827108    -2.085685268413
    H            2.530842607054     0.360369586270    -1.186928791133

  Mulliken Charges: (a.u.)
   Center  Symbol    Alpha    Beta     Spin     Total
       1     O     4.17395  4.17395  0.00000 -0.34790
       2     C     2.80631  2.80631  0.00000  0.38739
       3     C     3.13622  3.13622  0.00000 -0.27244
       4     O     4.17517  4.17517  0.00000 -0.35035
       5     H     0.45079  0.45079  0.00000  0.09843
       6     H     0.43767  0.43767  0.00000  0.12466
       7     H     0.44294  0.44294  0.00000  0.11412
       8     C     2.98135  2.98135  0.00000  0.03730
       9     C     3.13431  3.13431  0.00000 -0.26862
      10     H     0.46692  0.46692  0.00000  0.06615
      11     H     0.44462  0.44462  0.00000  0.11076
      12     H     0.45552  0.45552  0.00000  0.08896
      13     H     0.44361  0.44361  0.00000  0.11278
      14     H     0.45062  0.45062  0.00000  0.09877

   Total alpha = 24.00000, Total beta = 24.00000, Total charge = -0.00000

*** Psi4 exiting successfully. Buy a developer a beer!
