  ==> Input File <==

--------------------------------------------------------------------------
set {
	reference rhf
	basis 6-31G*
}

set_num_threads( 4 )
memory 2 gb

molecule MOL {
0 1

O	 0.391030	 1.298905	 0.000133
C	 0.503002	 0.111612	 0.000005
C	 -0.702327	 -0.811998	 -0.000075
C	 1.863306	 -0.554493	 0.000030
C	 -0.851489	 -1.621296	 1.282477
H	 -1.587924	 -0.205241	 -0.179895
H	 -0.619940	 -1.468436	 -0.864405
H	 -0.958674	 -0.970564	 2.141708
H	 -1.726101	 -2.260924	 1.226036
H	 0.017891	 -2.244959	 1.451129
H	 1.974395	 -1.189404	 -0.874166
H	 2.638695	 0.198920	 -0.000196
H	 1.974487	 -1.188655	 0.874727

	symmetry c1
}
set optking {
	frozen_dihedral = ("
		6 3 2 1
	")
}

ee = optimize('scf')
oeprop('DIPOLE', 'QUADRUPOLE', 'MULLIKEN_CHARGES')
f=open( 'psi4out.xyz', 'w' )
f.write( "13  " )
f.write( str(ee) + "\n" )
f.write( MOL.save_string_xyz() )
f.close()
--------------------------------------------------------------------------

    Molecular point group: c1
  Charge       = 0
  Multiplicity = 1
  Basis Set: 6-31G*
  Basis Set:
  @DF-RHF Final Energy:  -230.99440298907066
    Total Energy =                       -230.9944029890706929
    Molecular point group: c1
  Basis Set: 6-31G*
  Basis Set:
  Basis Set: 6-31G*
  Basis Set:
  @DF-RHF Final Energy:  -230.99429561483996
    Total Energy =                       -230.9942956148397570
  Basis Set: 6-31G*
  Basis Set:
  Basis Set: 6-31G*
  Basis Set:
  @DF-RHF Final Energy:  -230.99358655873166
    Total Energy =                       -230.9935865587316641
  Basis Set: 6-31G*
  Basis Set:
  Basis Set: 6-31G*
  Basis Set:
  @DF-RHF Final Energy:  -230.99499734906576
    Total Energy =                       -230.9949973490660113
  Basis Set: 6-31G*
  Basis Set:
  @DF-RHF Final Energy:  -230.99501696720051
    Total Energy =                       -230.9950169672002005
  @DF-RHF Final Energy:  -230.99502169698576
    Total Energy =                       -230.9950216969855887
  Basis Set: 6-31G*
  Basis Set:
  @DF-RHF Final Energy:  -230.99502497024304
    Total Energy =                       -230.9950249702432075
  Basis Set: 6-31G*
  Basis Set:
  Basis Set: 6-31G*
  Basis Set:
  @DF-RHF Final Energy:  -230.99503072334099
    Total Energy =                       -230.9950307233410456
  Basis Set: 6-31G*
  Basis Set:
  Basis Set: 6-31G*
  Basis Set:
  @DF-RHF Final Energy:  -230.99503175931534
    Total Energy =                       -230.9950317593152818
  Basis Set: 6-31G*
  Basis Set:
  Charge       = 0
  Multiplicity = 1
  Basis Set: 6-31G*
  Basis Set:

    Orbital Energies (a.u.)
    -----------------------

    Doubly Occupied:

       1A    -20.549566     2A    -11.325480     3A    -11.233298
       4A    -11.230657     5A    -11.228454     6A     -1.394660
       7A     -1.067317     8A     -0.994964     9A     -0.887273
      10A     -0.733768    11A     -0.653946    12A     -0.647064
      13A     -0.611480    14A     -0.593362    15A     -0.562227
      16A     -0.541725    17A     -0.529221    18A     -0.502899
      19A     -0.483091    20A     -0.400091

  @DF-RHF Final Energy:  -230.99503195629023

   => Energetics <=

    Nuclear Repulsion Energy =            176.8295734649724977
    One-Electron Energy =                -663.3081265427172184
    Two-Electron Energy =                 255.4835211214546291
    DFT Exchange-Correlation Energy =       0.0000000000000000
    Empirical Dispersion Energy =           0.0000000000000000
    PCM Polarization Energy =               0.0000000000000000
    EFP Energy =                            0.0000000000000000
    Total Energy =                       -230.9950319562900916
    Molecular point group: c1
  Basis Set: 6-31G*
  Basis Set:

  -Total Gradient:
     Atom            X                  Y                   Z
    ------   -----------------  -----------------  -----------------
       1        0.000003037770    -0.000006830759     0.000039852650
       2       -0.000012524497     0.000003316861    -0.000059680074
       3       -0.000002925011     0.000010234770     0.000051451689
       4       -0.000000341452    -0.000005400186     0.000003246288
       5        0.000004053223    -0.000003156730     0.000009573921
       6        0.000004502383    -0.000004381542    -0.000037749207
       7        0.000002009516     0.000000542707    -0.000000999280
       8       -0.000000802648     0.000000206793    -0.000000246339
       9        0.000000296152     0.000000947090    -0.000001072551
      10       -0.000000941703     0.000001434475    -0.000000187299
      11        0.000001589891     0.000002148568    -0.000002134272
      12        0.000001170490    -0.000001466629    -0.000001801543
      13        0.000000875885     0.000002404580    -0.000000253984

  **** Optimization is complete! (in 10 steps) ****
    Final optimized geometry and variables:
    Molecular point group: c1

    Geometry (in Angstrom), charge = 0, multiplicity = 1:

    O            0.138022642717     1.614343190726    -0.213232177729
    C            0.261472443355     0.428498051877    -0.261303324321
    C           -0.949338850196    -0.487396290453    -0.294922473581
    C            1.632737515495    -0.216333565040    -0.277257299909
    C           -1.108457576871    -1.312049042928     0.989582220474
    H           -1.819044298351     0.139060318786    -0.447157494173
    H           -0.863602768489    -1.157610873250    -1.146793742700
    H           -1.169712544845    -0.667034905724     1.860011917663
    H           -2.019554568502    -1.898081663095     0.945787738955
    H           -0.282717673949    -2.000268786850     1.135115748777
    H            1.708986632993    -0.951745071037    -1.072091874758
    H            2.387010063979     0.546713166568    -0.409925765637
    H            1.815911708705    -0.732349009494     0.660557359996

  Mulliken Charges: (a.u.)
   Center  Symbol    Alpha    Beta     Spin     Total
       1     O     4.25933  4.25933  0.00000 -0.51866
       2     C     2.73636  2.73636  0.00000  0.52729
       3     C     3.20185  3.20185  0.00000 -0.40370
       4     C     3.29035  3.29035  0.00000 -0.58069
       5     C     3.25085  3.25085  0.00000 -0.50169
       6     H     0.39836  0.39836  0.00000  0.20328
       7     H     0.41347  0.41347  0.00000  0.17306
       8     H     0.40994  0.40994  0.00000  0.18011
       9     H     0.41020  0.41020  0.00000  0.17961
      10     H     0.41722  0.41722  0.00000  0.16556
      11     H     0.41085  0.41085  0.00000  0.17830
      12     H     0.39587  0.39587  0.00000  0.20826
      13     H     0.40536  0.40536  0.00000  0.18928

   Total alpha = 20.00000, Total beta = 20.00000, Total charge =  0.00000
