  ==> Input File <==

--------------------------------------------------------------------------
set {
	reference rhf
	basis 6-31G*
}

set_num_threads( 4 )
memory 2 gb

molecule MOL {
0 1

H	 -2.646374	 -0.642757	 1.268656
C	 -2.083525	 -0.384536	 0.393091
O	 -0.807605	 -0.127164	 0.768327
F	 -2.118945	 -1.383102	 -0.486752
F	 -2.621877	 0.670592	 -0.209486
C	 0.084052	 0.273579	 -0.209957
C	 1.353033	 -0.546803	 -0.018071
Cl	 0.433844	 2.004619	 -0.074457
H	 -0.288836	 0.092657	 -1.202930
F	 1.387342	 -1.064010	 1.191664
F	 2.396274	 0.247426	 -0.153302
F	 1.452797	 -1.516115	 -0.894686

	symmetry c1
}
set optking {
	frozen_dihedral = ("
		10 7 6 9
	")
}

ee = optimize('scf')
oeprop('DIPOLE', 'QUADRUPOLE', 'MULLIKEN_CHARGES')
f=open( 'psi4out.xyz', 'w' )
f.write( "12  " )
f.write( str(ee) + "\n" )
f.write( MOL.save_string_xyz() )
f.close()
--------------------------------------------------------------------------

    Molecular point group: c1
  Charge       = 0
  Multiplicity = 1
  Basis Set: 6-31G*
  Basis Set:
  @DF-RHF Final Energy: -1146.30333067836341
    Total Energy =                      -1146.3033306783634089
    Molecular point group: c1
  Basis Set: 6-31G*
  Basis Set:
  Basis Set: 6-31G*
  Basis Set:
  @DF-RHF Final Energy: -1146.30473452219712
    Total Energy =                      -1146.3047345221966680
  Basis Set: 6-31G*
  Basis Set:
  Basis Set: 6-31G*
  Basis Set:
  @DF-RHF Final Energy: -1146.30715522723312
    Total Energy =                      -1146.3071552272331246
  Basis Set: 6-31G*
  Basis Set:
  Basis Set: 6-31G*
  Basis Set:
  @DF-RHF Final Energy: -1146.30738629966777
    Total Energy =                      -1146.3073862996670869
  Basis Set: 6-31G*
  Basis Set:
  @DF-RHF Final Energy: -1146.30740485015986
    Total Energy =                      -1146.3074048501600828
  @DF-RHF Final Energy: -1146.30740899199145
    Total Energy =                      -1146.3074089919912240
  @DF-RHF Final Energy: -1146.30741109499422
    Total Energy =                      -1146.3074110949935402
  @DF-RHF Final Energy: -1146.30741241085843
    Total Energy =                      -1146.3074124108588876
  @DF-RHF Final Energy: -1146.30741176812421
    Total Energy =                      -1146.3074117681244388
  @DF-RHF Final Energy: -1146.30741213801184
    Total Energy =                      -1146.3074121380125234
  @DF-RHF Final Energy: -1146.30741045693276
    Total Energy =                      -1146.3074104569338942
  @DF-RHF Final Energy: -1146.30740667741748
    Total Energy =                      -1146.3074066774167932
  @DF-RHF Final Energy: -1146.30740399139063
    Total Energy =                      -1146.3074039913910838
  @DF-RHF Final Energy: -1146.30740939992893
    Total Energy =                      -1146.3074093999298384
  @DF-RHF Final Energy: -1146.30741011170517
    Total Energy =                      -1146.3074101117047121
  @DF-RHF Final Energy: -1146.30740914923786
    Total Energy =                      -1146.3074091492380830
  @DF-RHF Final Energy: -1146.30740862350376
    Total Energy =                      -1146.3074086235042159
  @DF-RHF Final Energy: -1146.30740997834187
    Total Energy =                      -1146.3074099783411839
  @DF-RHF Final Energy: -1146.30740703586480
    Total Energy =                      -1146.3074070358643439
  @DF-RHF Final Energy: -1146.30740983164765
    Total Energy =                      -1146.3074098316471918
  @DF-RHF Final Energy: -1146.30740920689755
    Total Energy =                      -1146.3074092068980008
  @DF-RHF Final Energy: -1146.30740898610475
    Total Energy =                      -1146.3074089861061111
  @DF-RHF Final Energy: -1146.30740902589559
    Total Energy =                      -1146.3074090258951401
  @DF-RHF Final Energy: -1146.30740871240801
    Total Energy =                      -1146.3074087124075504
  @DF-RHF Final Energy: -1146.30740849464905
    Total Energy =                      -1146.3074084946483708
  @DF-RHF Final Energy: -1146.30740849557492
    Total Energy =                      -1146.3074084955753733
  @DF-RHF Final Energy: -1146.30740861307095
    Total Energy =                      -1146.3074086130700380
  @DF-RHF Final Energy: -1146.30740857265118
    Total Energy =                      -1146.3074085726498197
  @DF-RHF Final Energy: -1146.30740839345367
    Total Energy =                      -1146.3074083934543523
  @DF-RHF Final Energy: -1146.30740807626808
    Total Energy =                      -1146.3074080762689846
  @DF-RHF Final Energy: -1146.30740841436636
    Total Energy =                      -1146.3074084143668188
  @DF-RHF Final Energy: -1146.30740814632554
    Total Energy =                      -1146.3074081463269067
  @DF-RHF Final Energy: -1146.30740837423014
    Total Energy =                      -1146.3074083742292260
  @DF-RHF Final Energy: -1146.30740829576052
    Total Energy =                      -1146.3074082957605242
  @DF-RHF Final Energy: -1146.30740827664977
    Total Energy =                      -1146.3074082766497668
  @DF-RHF Final Energy: -1146.30740826439387
    Total Energy =                      -1146.3074082643934162
  Basis Set: 6-31G*
  Basis Set:
  @DF-RHF Final Energy: -1146.30740827552199
    Total Energy =                      -1146.3074082755206291
  Basis Set: 6-31G*
  Basis Set:
  Basis Set: 6-31G*
  Basis Set:
  @DF-RHF Final Energy: -1146.30740811655437
    Total Energy =                      -1146.3074081165548250
  Basis Set: 6-31G*
  Basis Set:
  Basis Set: 6-31G*
  Basis Set:
  @DF-RHF Final Energy: -1146.30740837280518
    Total Energy =                      -1146.3074083728051846
  Basis Set: 6-31G*
  Basis Set:
  Charge       = 0
  Multiplicity = 1
  Basis Set: 6-31G*
  Basis Set:

    Orbital Energies (a.u.)
    -----------------------

    Doubly Occupied:

       1A   -104.844056     2A    -26.361110     3A    -26.356750
       4A    -26.355864     5A    -26.345594     6A    -26.345327
       7A    -20.647416     8A    -11.529373     9A    -11.488335
      10A    -11.401565    11A    -10.578709    12A     -8.048069
      13A     -8.044506    14A     -8.044455    15A     -1.761368
      16A     -1.716926    17A     -1.659017    18A     -1.652943
      19A     -1.637636    20A     -1.483950    21A     -1.177712
      22A     -1.049764    23A     -0.985432    24A     -0.918726
      25A     -0.857425    26A     -0.851186    27A     -0.845658
      28A     -0.823621    29A     -0.810739    30A     -0.790698
      31A     -0.726208    32A     -0.722516    33A     -0.704498
      34A     -0.701746    35A     -0.678310    36A     -0.673067
      37A     -0.657812    38A     -0.656419    39A     -0.646522
      40A     -0.630508    41A     -0.596327    42A     -0.579355
      43A     -0.522687    44A     -0.475558    45A     -0.468967

  @DF-RHF Final Energy: -1146.30740840734643

   => Energetics <=

    Nuclear Repulsion Energy =            735.8967547880333768
    One-Electron Energy =               -3054.6994603852740511
    Two-Electron Energy =                1172.4952971898956093
    DFT Exchange-Correlation Energy =       0.0000000000000000
    Empirical Dispersion Energy =           0.0000000000000000
    PCM Polarization Energy =               0.0000000000000000
    EFP Energy =                            0.0000000000000000
    Total Energy =                      -1146.3074084073450649
    Molecular point group: c1
  Basis Set: 6-31G*
  Basis Set:

  -Total Gradient:
     Atom            X                  Y                   Z
    ------   -----------------  -----------------  -----------------
       1        0.000058590503    -0.000174969623     0.000026967682
       2       -0.000021056696     0.000252725524    -0.000130626538
       3        0.000014940028     0.000089248638     0.000045403275
       4       -0.000033291917     0.000042361178     0.000052541092
       5        0.000261572999    -0.000176444281     0.000061419628
       6        0.003077165926     0.004932960743    -0.002835937882
       7        0.003546193329     0.004983143240     0.001895007847
       8       -0.000045424310     0.000086406504    -0.000085733783
       9       -0.003683532502    -0.004965759809     0.001813206277
      10       -0.002723027579    -0.004942385846    -0.001577463540
      11       -0.000240554463     0.000299134892     0.000322058089
      12       -0.000211575350    -0.000426421127     0.000413157846

    Molecular point group: c1

    Geometry (in Angstrom), charge = 0, multiplicity = 1:

    H           -2.656015178259    -0.684058620042     1.224323886947
    C           -2.082768440735    -0.401321092479     0.363094946179
    O           -0.814565906162    -0.146764443405     0.762492228524
    F           -2.099182865508    -1.382207367266    -0.538624216197
    F           -2.621341564509     0.661383528553    -0.224469354582
    C            0.089725261570     0.285634053066    -0.195269370019
    C            1.382798139859    -0.536341763140    -0.001843290660
    CL           0.362118178178     2.026236166282    -0.047927750623
    H           -0.287469728556     0.072440657052    -1.179982537964
    F            1.470950475891    -1.039733666329     1.205173850962
    F            2.467201771137     0.153474020715    -0.255290466479
    F            1.343235799342    -1.554599054157    -0.847713536704

  Mulliken Charges: (a.u.)
   Center  Symbol    Alpha    Beta     Spin     Total
       1     H     0.40135  0.40135  0.00000  0.19730
       2     C     2.56662  2.56662  0.00000  0.86676
       3     O     4.29543  4.29543  0.00000 -0.59085
       4     F     4.68713  4.68713  0.00000 -0.37427
       5     F     4.68395  4.68395  0.00000 -0.36790
       6     C     3.06484  3.06484  0.00000 -0.12969
       7     C     2.42723  2.42723  0.00000  1.14555
       8    CL     8.49524  8.49524  0.00000  0.00951
       9     H     0.36407  0.36407  0.00000  0.27185
      10     F     4.66688  4.66688  0.00000 -0.33375
      11     F     4.66774  4.66774  0.00000 -0.33547
      12     F     4.67952  4.67952  0.00000 -0.35904

   Total alpha = 45.00000, Total beta = 45.00000, Total charge = -0.00000
