  ==> Input File <==

--------------------------------------------------------------------------
set {
	reference rhf
	basis cc-pvtz
}

set_num_threads( 4 )
memory 2 gb

molecule MOL {
0 1

H	 -2.171709	 0.882708	 0.500286
C	 -2.016894	 0.001719	 -0.114152
O	 -0.775228	 0.000056	 -0.739966
H	 -2.760846	 0.003757	 -0.898169
H	 -2.174774	 -0.879864	 0.498643
C	 0.340550	 0.581363	 -0.094674
C	 1.483474	 0.379560	 -1.083554
C	 0.120564	 2.075787	 0.148108
C	 0.655559	 -0.137984	 1.218301
H	 1.254142	 0.865743	 -2.023307
H	 1.627789	 -0.675860	 -1.276856
H	 2.408450	 0.790820	 -0.697222
H	 -0.166243	 2.568145	 -0.773301
H	 1.033920	 2.533361	 0.509074
H	 -0.648505	 2.259534	 0.887927
H	 0.745401	 -1.204520	 1.050607
H	 1.592310	 0.223025	 1.625789
H	 -0.108950	 0.027406	 1.967127

	symmetry c1
}
set optking {
	frozen_dihedral = ("
		6 3 2 5
	")
}

ee = optimize('scf')
oeprop('DIPOLE', 'QUADRUPOLE', 'MULLIKEN_CHARGES')
f=open( 'psi4out.xyz', 'w' )
f.write( "18  " )
f.write( str(ee) + "\n" )
f.write( MOL.save_string_xyz() )
f.close()
--------------------------------------------------------------------------

    Molecular point group: c1
  Charge       = 0
  Multiplicity = 1
  Basis Set: CC-PVTZ
  Basis Set:
  @DF-RHF Final Energy:  -271.27545827093439
    Total Energy =                       -271.2754582709341094
    Molecular point group: c1
  Basis Set: CC-PVTZ
  Basis Set:
  Basis Set: CC-PVTZ
  Basis Set:
  @DF-RHF Final Energy:  -271.27497331410189
    Total Energy =                       -271.2749733141022261
  Basis Set: CC-PVTZ
  Basis Set:
  Basis Set: CC-PVTZ
  Basis Set:
  @DF-RHF Final Energy:  -271.27583449383360
    Total Energy =                       -271.2758344938336563
  Basis Set: CC-PVTZ
  Basis Set:
  Basis Set: CC-PVTZ
  Basis Set:
  @DF-RHF Final Energy:  -271.27586075502893
    Total Energy =                       -271.2758607550289298
  Basis Set: CC-PVTZ
  Basis Set:
  Basis Set: CC-PVTZ
  Basis Set:
  @DF-RHF Final Energy:  -271.27586581253831
    Total Energy =                       -271.2758658125383135
  Basis Set: CC-PVTZ
  Basis Set:
  Basis Set: CC-PVTZ
  Basis Set:
  @DF-RHF Final Energy:  -271.27587012311056
    Total Energy =                       -271.2758701231100531
  Basis Set: CC-PVTZ
  Basis Set:
  Charge       = 0
  Multiplicity = 1
  Basis Set: CC-PVTZ
  Basis Set:

    Orbital Energies (a.u.)
    -----------------------

    Doubly Occupied:

       1A    -20.539529     2A    -11.280362     3A    -11.258407
       4A    -11.207784     5A    -11.206415     6A    -11.201859
       7A     -1.372680     8A     -1.074315     9A     -0.946930
      10A     -0.940678    11A     -0.913360    12A     -0.753628
      13A     -0.656524    14A     -0.646554    15A     -0.640138
      16A     -0.591805    17A     -0.573410    18A     -0.553118
      19A     -0.536671    20A     -0.525112    21A     -0.515343
      22A     -0.490822    23A     -0.487853    24A     -0.440459
      25A     -0.405659

  @DF-RHF Final Energy:  -271.27587006120029

   => Energetics <=

    Nuclear Repulsion Energy =            272.6583521219797603
    One-Electron Energy =                -908.3496264019784121
    Two-Electron Energy =                 364.4154042187987557
    DFT Exchange-Correlation Energy =       0.0000000000000000
    Empirical Dispersion Energy =           0.0000000000000000
    PCM Polarization Energy =               0.0000000000000000
    EFP Energy =                            0.0000000000000000
    Total Energy =                       -271.2758700611998961
    Molecular point group: c1
  Basis Set: CC-PVTZ
  Basis Set:

  -Total Gradient:
     Atom            X                  Y                   Z
    ------   -----------------  -----------------  -----------------
       1        0.000019325801     0.000019701723     0.000007656829
       2        0.000877484427     0.001712905811     0.001775168619
       3        0.000374730959    -0.002412992055     0.000337664310
       4        0.000014032012     0.000005959808    -0.000007543664
       5       -0.000831797790    -0.000782238610    -0.001568650935
       6       -0.000416513428     0.001473424354    -0.000537482682
       7       -0.000009600331    -0.000002502744    -0.000012005357
       8        0.000004742796     0.000005117693     0.000004835880
       9       -0.000019482418    -0.000005230845     0.000010969198
      10       -0.000000855384    -0.000001806760    -0.000003406658
      11        0.000002724273    -0.000004535226    -0.000002951044
      12       -0.000008298967    -0.000003820065    -0.000000032209
      13        0.000010410140     0.000001725317    -0.000006336135
      14       -0.000002230465     0.000000129147     0.000008001334
      15       -0.000008236842    -0.000006026243    -0.000002943159
      16        0.000018981257     0.000003763357    -0.000011410259
      17       -0.000010255753     0.000009290622     0.000001152945
      18       -0.000015160288    -0.000012865285     0.000007312989

  **** Optimization is complete! (in 7 steps) ****
    Final optimized geometry and variables:
    Molecular point group: c1

    Geometry (in Angstrom), charge = 0, multiplicity = 1:

    H           -2.109191620122     0.277584384197     0.733950795092
    C           -1.950001172014    -0.526636908439     0.026151987162
    O           -0.735003939047    -0.432204419575    -0.647618080588
    H           -2.735541078147    -0.478389593462    -0.716255763799
    H           -2.042572974241    -1.475155252389     0.546724094518
    C            0.393424485138     0.112106772715     0.007631791738
    C            1.540064319376    -0.120145166569    -0.970013282686
    C            0.211061038452     1.612931800766     0.243156500267
    C            0.672557277660    -0.616657352073     1.323047357537
    H            1.329020457956     0.365377760770    -1.914347408360
    H            1.664427740825    -1.179323545462    -1.156184013626
    H            2.469970391488     0.274627999530    -0.578089554502
    H           -0.027470211059     2.109626983871    -0.689232523157
    H            1.123622271884     2.044641094211     0.637132427661
    H           -0.579045705277     1.823624479348     0.952770929394
    H            0.769603601574    -1.681877960566     1.150620436327
    H            1.595364704682    -0.257831641935     1.762848478053
    H           -0.117623668416    -0.459688883179     2.047234297776

  Mulliken Charges: (a.u.)
   Center  Symbol    Alpha    Beta     Spin     Total
       1     H     0.46877  0.46877  0.00000  0.06245
       2     C     3.04509  3.04509  0.00000 -0.09017
       3     O     4.19182  4.19182  0.00000 -0.38365
       4     H     0.44502  0.44502  0.00000  0.10997
       5     H     0.46289  0.46289  0.00000  0.07422
       6     C     2.87785  2.87785  0.00000  0.24429
       7     C     3.14226  3.14226  0.00000 -0.28453
       8     C     3.15959  3.15959  0.00000 -0.31918
       9     C     3.16410  3.16410  0.00000 -0.32819
      10     H     0.44845  0.44845  0.00000  0.10311
      11     H     0.44943  0.44943  0.00000  0.10114
      12     H     0.45925  0.45925  0.00000  0.08150
      13     H     0.44642  0.44642  0.00000  0.10716
      14     H     0.44965  0.44965  0.00000  0.10070
      15     H     0.44862  0.44862  0.00000  0.10276
      16     H     0.44575  0.44575  0.00000  0.10850
      17     H     0.44679  0.44679  0.00000  0.10642
      18     H     0.44826  0.44826  0.00000  0.10349

   Total alpha = 25.00000, Total beta = 25.00000, Total charge = -0.00000
