                              Psi4 1.0.54 Driver

  ==> Input File <==

--------------------------------------------------------------------------
set {
	reference rhf
	basis cc-pvtz
}

set_num_threads( 4 )
memory 2 gb

molecule MOL {
0 1

O	 -2.081319	 -0.951530	 -0.502732
N	 -1.613558	 0.006676	 0.014756
C	 -0.329345	 -0.171618	 0.743966
O	 -2.068523	 1.100482	 -0.024385
C	 0.835904	 0.041968	 -0.213982
H	 -0.346048	 -1.174374	 1.137184
H	 -0.333613	 0.555559	 1.538590
C	 1.434215	 -1.287270	 -0.667101
H	 0.487046	 0.603427	 -1.072830
H	 1.592844	 0.639675	 0.280513
C	 2.608177	 -1.101563	 -1.621986
H	 0.665598	 -1.882932	 -1.150685
H	 1.760759	 -1.850992	 0.201803
H	 2.303897	 -0.569658	 -2.516518
H	 3.406246	 -0.535505	 -1.154673
H	 3.014344	 -2.058278	 -1.926758

	symmetry c1
}
set optking {
	frozen_dihedral = ("
		9 5 3 2
	")
}

ee,wfn = optimize('scf', return_wfn=True)
oeprop( wfn, 'DIPOLE', 'QUADRUPOLE', 'MULLIKEN_CHARGES')
f=open( 'psi4out.xyz', 'w' )
f.write( "16  " )
f.write( str(ee) + "\n" )
f.write( MOL.save_string_xyz() )
f.close()
--------------------------------------------------------------------------

    Molecular point group: c1
  Charge       = 0
  Multiplicity = 1
  Basis Set: CC-PVTZ
  Basis Set:
  @DF-RHF Final Energy:  -360.90495408987977
    Total Energy =                       -360.9049540898799933
    Molecular point group: c1
  Basis Set: CC-PVTZ
  Basis Set:
  Basis Set: CC-PVTZ
  Basis Set:
  @DF-RHF Final Energy:  -360.90357702101045
    Total Energy =                       -360.9035770210104488
  Basis Set: CC-PVTZ
  Basis Set:
  Basis Set: CC-PVTZ
  Basis Set:
  @DF-RHF Final Energy:  -360.90142382090352
    Total Energy =                       -360.9014238209035739
  Basis Set: CC-PVTZ
  Basis Set:
  Basis Set: CC-PVTZ
  Basis Set:
  @DF-RHF Final Energy:  -360.90525431760977
    Total Energy =                       -360.9052543176100016
  Basis Set: CC-PVTZ
  Basis Set:
  @DF-RHF Final Energy:  -360.90530737077648
    Total Energy =                       -360.9053073707763701
  @DF-RHF Final Energy:  -360.90537470336943
    Total Energy =                       -360.9053747033697164
  @DF-RHF Final Energy:  -360.90538173958186
    Total Energy =                       -360.9053817395819124
  Basis Set: CC-PVTZ
  Basis Set:
  @DF-RHF Final Energy:  -360.90538334816210
    Total Energy =                       -360.9053833481619904
  Basis Set: CC-PVTZ
  Basis Set:
  Basis Set: CC-PVTZ
  Basis Set:
  @DF-RHF Final Energy:  -360.90538517665851
    Total Energy =                       -360.9053851766586831
  Basis Set: CC-PVTZ
  Basis Set:
  Basis Set: CC-PVTZ
  Basis Set:
  @DF-RHF Final Energy:  -360.90538711636361
    Total Energy =                       -360.9053871163637837
  Basis Set: CC-PVTZ
  Basis Set:
  Charge       = 0
  Multiplicity = 1
  Basis Set: CC-PVTZ
  Basis Set:

    Orbital Energies (a.u.)
    -----------------------

    Doubly Occupied:

       1A    -20.590895     2A    -20.589502     3A    -15.836584
       4A    -11.296794     5A    -11.252044     6A    -11.234589
       7A    -11.221970     8A     -1.635746     9A     -1.419868
      10A     -1.134021    11A     -1.056773    12A     -0.947312
      13A     -0.847072    14A     -0.824744    15A     -0.762899
      16A     -0.736550    17A     -0.727778    18A     -0.653123
      19A     -0.634756    20A     -0.603042    21A     -0.560594
      22A     -0.555118    23A     -0.507299    24A     -0.499405
      25A     -0.496992    26A     -0.478382    27A     -0.471413
      28A     -0.453635

  @DF-RHF Final Energy:  -360.90538726998210

   => Energetics <=

    Nuclear Repulsion Energy =            316.7169617653258342
    One-Electron Energy =               -1119.1869030866814683
    Two-Electron Energy =                 441.5645540513734204
    DFT Exchange-Correlation Energy =       0.0000000000000000
    Empirical Dispersion Energy =           0.0000000000000000
    PCM Polarization Energy =               0.0000000000000000
    EFP Energy =                            0.0000000000000000
    Total Energy =                       -360.9053872699822705
    Molecular point group: c1
  Basis Set: CC-PVTZ
  Basis Set:

  -Total Gradient:
     Atom            X                  Y                   Z
    ------   -----------------  -----------------  -----------------
       1        0.000081237984     0.000177833999     0.000099139395
       2        0.000117855806     0.001924881886     0.000475677504
       3       -0.000446305163    -0.003580834875    -0.001138251282
       4       -0.000021540787     0.000088315699    -0.000000762138
       5        0.001052943535     0.003759412323     0.002011636202
       6        0.000068310042     0.000025190210     0.000077726938
       7       -0.000033227650     0.000047778999    -0.000050917432
       8        0.000049929319    -0.000044057359    -0.000050458216
       9       -0.000816409354    -0.002455286912    -0.001458372242
      10       -0.000003193269    -0.000000893328     0.000003612704
      11       -0.000055939799     0.000033461180     0.000028329594
      12        0.000004890873     0.000017310683     0.000023068443
      13       -0.000021472109     0.000026295873    -0.000001893402
      14        0.000023806951    -0.000004994700     0.000002892792
      15       -0.000000399489    -0.000009688195    -0.000018713941
      16       -0.000000486890    -0.000004725480    -0.000002714916

  **** Optimization is complete! (in 11 steps) ****
    Final optimized geometry and variables:
    Molecular point group: c1

    Geometry (in Angstrom), charge = 0, multiplicity = 1:

    O           -1.857077206264    -0.492170495934    -0.265111039744
    N           -1.393727300301     0.396801640141     0.369125837281
    C           -0.119776948988     0.127790435387     1.087930000748
    O           -1.845585015512     1.488912894615     0.451047342417
    C            1.068606360647     0.293484448880     0.127510988133
    H           -0.197233025809    -0.875256418462     1.472847824791
    H           -0.092641809571     0.842240776671     1.891535055111
    C            1.624769869343    -1.035395557783    -0.380751068201
    H            0.757568368074     0.893149972623    -0.719836760401
    H            1.844929614343     0.847571197838     0.640053581458
    C            2.783907982431    -0.848290785195    -1.352285416766
    H            0.828923577947    -1.592856588134    -0.861794444158
    H            1.953926704080    -1.631259310037     0.465933591581
    H            2.474238993869    -0.287277873289    -2.227198680749
    H            3.604348874590    -0.311417178510    -0.887830680087
    H            3.163889249414    -1.804538035109    -1.690496318535

  Mulliken Charges: (a.u.)
   Center  Symbol    Alpha    Beta     Spin     Total
       1     O     4.17504  4.17504  0.00000 -0.35008
       2     N     3.27698  3.27698  0.00000  0.44604
       3     C     3.04957  3.04957  0.00000 -0.09913
       4     O     4.17100  4.17100  0.00000 -0.34200
       5     C     3.09799  3.09799  0.00000 -0.19599
       6     H     0.43518  0.43518  0.00000  0.12964
       7     H     0.42620  0.42620  0.00000  0.14760
       8     C     3.08748  3.08748  0.00000 -0.17497
       9     H     0.44102  0.44102  0.00000  0.11796
      10     H     0.44299  0.44299  0.00000  0.11402
      11     C     3.15048  3.15048  0.00000 -0.30097
      12     H     0.44055  0.44055  0.00000  0.11890
      13     H     0.45394  0.45394  0.00000  0.09212
      14     H     0.45157  0.45157  0.00000  0.09686
      15     H     0.45510  0.45510  0.00000  0.08979
      16     H     0.44490  0.44490  0.00000  0.11020

   Total alpha = 28.00000, Total beta = 28.00000, Total charge = -0.00000

*** Psi4 exiting successfully. Buy a developer a beer!
