  ==> Input File <==

--------------------------------------------------------------------------
set {
	reference rhf
	basis 6-31G*
}

set_num_threads( 4 )
memory 2 gb

molecule MOL {
0 1

H	 2.176868	 -0.646004	 -0.217325
O	 1.337496	 -0.537251	 0.205931
C	 0.702312	 0.627605	 -0.264544
C	 -0.714990	 0.596302	 0.266387
H	 0.682322	 0.642550	 -1.350929
H	 1.215941	 1.520383	 0.085680
O	 -1.405996	 -0.526611	 -0.195820
H	 -1.257453	 1.468809	 -0.075599
H	 -0.688972	 0.618407	 1.353696
H	 -2.334126	 -0.350779	 -0.108228

	symmetry c1
}
set optking {
	frozen_dihedral = ("
		10 7 4 3
	")
}

ee = optimize('scf')
oeprop('DIPOLE', 'QUADRUPOLE', 'MULLIKEN_CHARGES')
f=open( 'psi4out.xyz', 'w' )
f.write( "10  " )
f.write( str(ee) + "\n" )
f.write( MOL.save_string_xyz() )
f.close()
--------------------------------------------------------------------------

    Molecular point group: c1
  Charge       = 0
  Multiplicity = 1
  Basis Set: 6-31G*
  Basis Set:
  @DF-RHF Final Energy:  -228.91661757629089
    Total Energy =                       -228.9166175762910029
    Molecular point group: c1
  Basis Set: 6-31G*
  Basis Set:
  Basis Set: 6-31G*
  Basis Set:
  @DF-RHF Final Energy:  -228.91833835468816
    Total Energy =                       -228.9183383546881316
  Basis Set: 6-31G*
  Basis Set:
  Basis Set: 6-31G*
  Basis Set:
  @DF-RHF Final Energy:  -228.91854771772194
    Total Energy =                       -228.9185477177220207
  Basis Set: 6-31G*
  Basis Set:
  Basis Set: 6-31G*
  Basis Set:
  @DF-RHF Final Energy:  -228.91857479881872
    Total Energy =                       -228.9185747988187245
  Basis Set: 6-31G*
  Basis Set:
  Basis Set: 6-31G*
  Basis Set:
  @DF-RHF Final Energy:  -228.91857842485487
    Total Energy =                       -228.9185784248550135
  Basis Set: 6-31G*
  Basis Set:
  Charge       = 0
  Multiplicity = 1
  Basis Set: 6-31G*
  Basis Set:

    Orbital Energies (a.u.)
    -----------------------

    Doubly Occupied:

       1A    -20.552311     2A    -20.551906     3A    -11.270297
       4A    -11.269554     5A     -1.370350     6A     -1.350041
       7A     -1.001999     8A     -0.830589     9A     -0.717514
      10A     -0.701203    11A     -0.621055    12A     -0.598322
      13A     -0.582158    14A     -0.520856    15A     -0.478909
      16A     -0.443201    17A     -0.433408

  @DF-RHF Final Energy:  -228.91857919350755

   => Energetics <=

    Nuclear Repulsion Energy =            133.3499018755929058
    One-Electron Energy =                -577.9496127205318317
    Two-Electron Energy =                 215.6811316514313717
    DFT Exchange-Correlation Energy =       0.0000000000000000
    Empirical Dispersion Energy =           0.0000000000000000
    PCM Polarization Energy =               0.0000000000000000
    EFP Energy =                            0.0000000000000000
    Total Energy =                       -228.9185791935075827
    Molecular point group: c1
  Basis Set: 6-31G*
  Basis Set:

  -Total Gradient:
     Atom            X                  Y                   Z
    ------   -----------------  -----------------  -----------------
       1        0.000011929948     0.000013203835     0.000005181526
       2       -0.000023720855     0.000005863025    -0.000008829467
       3       -0.000286749441     0.000688255336    -0.000906810459
       4        0.000463241414    -0.000720628431     0.000892793212
       5        0.000010708064    -0.000003650848    -0.000023057574
       6       -0.000002789453    -0.000022034739    -0.000021297204
       7       -0.000136439788    -0.000807051929     0.001760429452
       8       -0.000013667185    -0.000003729023     0.000007266169
       9        0.000000357315     0.000005275788     0.000019007698
      10       -0.000022870019     0.000844496986    -0.001724683351

  **** Optimization is complete! (in 6 steps) ****
    Final optimized geometry and variables:
    Molecular point group: c1

    Geometry (in Angstrom), charge = 0, multiplicity = 1:

    H            2.220455755481    -0.640747908892    -0.202448463353
    O            1.413610556415    -0.513041020924     0.274933307995
    C            0.704935427249     0.563725709522    -0.272528892005
    C           -0.699830081308     0.560055981146     0.284006178787
    H            0.650219428665     0.492200664642    -1.355338845004
    H            1.182295720753     1.508767824457    -0.015883316273
    O           -1.410255116126    -0.518653439030    -0.260983395852
    H           -1.172091745779     1.505845515860     0.023122710812
    H           -0.655417356465     0.491204708010     1.367606610952
    H           -2.339503554518    -0.364207111045    -0.175112013519

  Mulliken Charges: (a.u.)
   Center  Symbol    Alpha    Beta     Spin     Total
       1     H     0.27980  0.27980  0.00000  0.44039
       2     O     4.36566  4.36566  0.00000 -0.73132
       3     C     2.99855  2.99855  0.00000  0.00289
       4     C     3.00048  3.00048  0.00000 -0.00096
       5     H     0.42373  0.42373  0.00000  0.15254
       6     H     0.43232  0.43232  0.00000  0.13535
       7     O     4.36592  4.36592  0.00000 -0.73184
       8     H     0.43336  0.43336  0.00000  0.13327
       9     H     0.41991  0.41991  0.00000  0.16018
      10     H     0.28025  0.28025  0.00000  0.43949

   Total alpha = 17.00000, Total beta = 17.00000, Total charge = -0.00000
