  ==> Input File <==

--------------------------------------------------------------------------
set {
	reference rhf
	basis 6-31G*
}

set_num_threads( 1 )
memory 2 gb

molecule MOL {
0 1

H	 3.696259	 -0.884115	 0.393834
O	 2.826016	 -1.159218	 0.122261
C	 2.077727	 -0.067559	 -0.035091
C	 0.624473	 -0.343591	 0.253101
O	 2.542965	 0.974826	 -0.363729
C	 -0.265902	 0.883932	 0.072916
H	 0.324016	 -1.163849	 -0.390541
H	 0.565024	 -0.726111	 1.268924
C	 -1.728698	 0.646073	 0.462102
H	 -0.209144	 1.219470	 -0.958188
H	 0.135059	 1.692851	 0.673903
C	 -2.482460	 -0.343073	 -0.431425
H	 -2.245265	 1.602650	 0.432430
H	 -1.779332	 0.308348	 1.496285
C	 -3.960546	 -0.461025	 -0.060175
H	 -2.395034	 -0.026811	 -1.468912
H	 -2.024850	 -1.327147	 -0.371646
H	 -4.472726	 -1.168004	 -0.705284
H	 -4.465146	 0.496508	 -0.151489
H	 -4.081218	 -0.800940	 0.964585

	symmetry c1
}
set optking {
	frozen_dihedral = ("
		16 12 9 6,
		7 4 6 10,
		12 9 6 10,
		5 3 4 7
	")
}

ee = energy('scf')
oeprop('DIPOLE', 'QUADRUPOLE', 'MULLIKEN_CHARGES')
f=open( 'psi4out.xyz', 'w' )
f.write( "20  " )
f.write( str(ee) + "\n" )
f.write( MOL.save_string_xyz() )
f.close()
--------------------------------------------------------------------------

    Molecular point group: c1

    Geometry (in Angstrom), charge = 0, multiplicity = 1:

       Center              X                  Y                   Z               Mass
    ------------   -----------------  -----------------  -----------------  -----------------
           H          3.696547490456    -0.884498503183     0.389802073894     1.007825032070
           O          2.826304490456    -1.159601503183     0.118229073894    15.994914619560
           C          2.078015490456    -0.067942503183    -0.039122926106    12.000000000000
           C          0.624761490456    -0.343974503183     0.249069073894    12.000000000000
           O          2.543253490456     0.974442496817    -0.367760926106    15.994914619560
           C         -0.265613509544     0.883548496817     0.068884073894    12.000000000000
           H          0.324304490456    -1.164232503183    -0.394572926106     1.007825032070
           H          0.565312490456    -0.726494503183     1.264892073894     1.007825032070
           C         -1.728409509544     0.645689496817     0.458070073894    12.000000000000
           H         -0.208855509544     1.219086496817    -0.962219926106     1.007825032070
           H          0.135347490456     1.692467496817     0.669871073894     1.007825032070
           C         -2.482171509544    -0.343456503183    -0.435456926106    12.000000000000
           H         -2.244976509544     1.602266496817     0.428398073894     1.007825032070
           H         -1.779043509544     0.307964496817     1.492253073894     1.007825032070
           C         -3.960257509544    -0.461408503183    -0.064206926106    12.000000000000
           H         -2.394745509544    -0.027194503183    -1.472943926106     1.007825032070
           H         -2.024561509544    -1.327530503183    -0.375677926106     1.007825032070
           H         -4.472437509544    -1.168387503183    -0.709315926106     1.007825032070
           H         -4.464857509544     0.496124496817    -0.155520926106     1.007825032070
           H         -4.080929509544    -0.801323503183     0.960553073894     1.007825032070

  Charge       = 0
  Multiplicity = 1
  Basis Set: 6-31G*
  Basis Set:

    Orbital Energies (a.u.)
    -----------------------

    Doubly Occupied:

       1A    -20.609016     2A    -20.553036     3A    -11.380839
       4A    -11.239963     5A    -11.222652     6A    -11.220610
       7A    -11.220015     8A    -11.212341     9A     -1.473306
      10A     -1.365897    11A     -1.096004    12A     -1.040575
      13A     -0.960603    14A     -0.868175    15A     -0.816087
      16A     -0.777705    17A     -0.701919    18A     -0.688878
      19A     -0.661753    20A     -0.638954    21A     -0.605997
      22A     -0.587228    23A     -0.576012    24A     -0.556198
      25A     -0.533512    26A     -0.514593    27A     -0.494478
      28A     -0.483414    29A     -0.469973    30A     -0.465709
      31A     -0.457316    32A     -0.443359

  @DF-RHF Final Energy:  -383.94332976913012

   => Energetics <=

    Nuclear Repulsion Energy =            375.9138379705320290
    One-Electron Energy =               -1267.8421145212191732
    Two-Electron Energy =                 507.9849467815585058
    DFT Exchange-Correlation Energy =       0.0000000000000000
    Empirical Dispersion Energy =           0.0000000000000000
    PCM Polarization Energy =               0.0000000000000000
    EFP Energy =                            0.0000000000000000
    Total Energy =                       -383.9433297691285816

  Mulliken Charges: (a.u.)
   Center  Symbol    Alpha    Beta     Spin     Total
       1     H     0.26691  0.26691  0.00000  0.46617
       2     O     4.35315  4.35315  0.00000 -0.70629
       3     C     2.62534  2.62534  0.00000  0.74932
       4     C     3.21248  3.21248  0.00000 -0.42495
       5     O     4.27358  4.27358  0.00000 -0.54716
       6     C     3.15460  3.15460  0.00000 -0.30920
       7     H     0.39648  0.39648  0.00000  0.20703
       8     H     0.40095  0.40095  0.00000  0.19811
       9     C     3.15545  3.15545  0.00000 -0.31089
      10     H     0.41182  0.41182  0.00000  0.17636
      11     H     0.40880  0.40880  0.00000  0.18240
      12     C     3.15483  3.15483  0.00000 -0.30966
      13     H     0.41794  0.41794  0.00000  0.16412
      14     H     0.42410  0.42410  0.00000  0.15180
      15     C     3.23922  3.23922  0.00000 -0.47844
      16     H     0.42124  0.42124  0.00000  0.15751
      17     H     0.42272  0.42272  0.00000  0.15457
      18     H     0.41827  0.41827  0.00000  0.16346
      19     H     0.42066  0.42066  0.00000  0.15868
      20     H     0.42147  0.42147  0.00000  0.15707

   Total alpha = 32.00000, Total beta = 32.00000, Total charge = -0.00000
