  ==> Input File <==

--------------------------------------------------------------------------
set {
	reference rhf
	basis cc-pvtz
}

set_num_threads( 4 )
memory 2 gb

molecule MOL {
0 1

H	 0.987490	 -1.018840	 -0.959513
O	 1.675515	 -0.612943	 -0.465627
C	 1.135873	 0.113391	 0.608264
C	 0.027642	 1.012027	 0.090274
H	 1.902972	 0.727968	 1.072615
H	 0.756163	 -0.561896	 1.370018
C	 -1.138737	 0.285728	 -0.581921
H	 0.464661	 1.708096	 -0.618252
H	 -0.340737	 1.603071	 0.925246
C	 -1.933983	 -0.631436	 0.343653
H	 -0.763151	 -0.285569	 -1.422081
H	 -1.808359	 1.035291	 -0.992333
H	 -2.789188	 -1.049673	 -0.174718
H	 -1.335629	 -1.461368	 0.700418
H	 -2.305435	 -0.092167	 1.209725

	symmetry c1
}
set optking {
	frozen_dihedral = ("
		1 2 3 4
	")
}

ee = optimize('scf')
oeprop('DIPOLE', 'QUADRUPOLE', 'MULLIKEN_CHARGES')
f=open( 'psi4out.xyz', 'w' )
f.write( "15  " )
f.write( str(ee) + "\n" )
f.write( MOL.save_string_xyz() )
f.close()
--------------------------------------------------------------------------

    Molecular point group: c1
  Charge       = 0
  Multiplicity = 1
  Basis Set: CC-PVTZ
  Basis Set:
  @DF-RHF Final Energy:  -232.23382894696147
    Total Energy =                       -232.2338289469616939
    Molecular point group: c1
  Basis Set: CC-PVTZ
  Basis Set:
  Basis Set: CC-PVTZ
  Basis Set:
  @DF-RHF Final Energy:  -232.23549380261647
    Total Energy =                       -232.2354938026166451
  Basis Set: CC-PVTZ
  Basis Set:
  Basis Set: CC-PVTZ
  Basis Set:
  @DF-RHF Final Energy:  -232.23614544888503
    Total Energy =                       -232.2361454488850541
  Basis Set: CC-PVTZ
  Basis Set:
  Basis Set: CC-PVTZ
  Basis Set:
  @DF-RHF Final Energy:  -232.23617400769299
    Total Energy =                       -232.2361740076931369
  Basis Set: CC-PVTZ
  Basis Set:
  Basis Set: CC-PVTZ
  Basis Set:
  @DF-RHF Final Energy:  -232.23618122387114
    Total Energy =                       -232.2361812238713128
  Basis Set: CC-PVTZ
  Basis Set:
  Charge       = 0
  Multiplicity = 1
  Basis Set: CC-PVTZ
  Basis Set:

    Orbital Energies (a.u.)
    -----------------------

    Doubly Occupied:

       1A    -20.544642     2A    -11.264332     3A    -11.224429
       4A    -11.217737     5A    -11.214748     6A     -1.362920
       7A     -1.074108     8A     -0.977753     9A     -0.882928
      10A     -0.790566    11A     -0.691109    12A     -0.646676
      13A     -0.621458    14A     -0.588006    15A     -0.577603
      16A     -0.548496    17A     -0.506349    18A     -0.490585
      19A     -0.480529    20A     -0.460892    21A     -0.430312

  @DF-RHF Final Energy:  -232.23618158639704

   => Energetics <=

    Nuclear Repulsion Energy =            191.6383656967017259
    One-Electron Energy =                -694.5567361162369480
    Two-Electron Energy =                 270.6821888331380137
    DFT Exchange-Correlation Energy =       0.0000000000000000
    Empirical Dispersion Energy =           0.0000000000000000
    PCM Polarization Energy =               0.0000000000000000
    EFP Energy =                            0.0000000000000000
    Total Energy =                       -232.2361815863972083
    Molecular point group: c1
  Basis Set: CC-PVTZ
  Basis Set:

  -Total Gradient:
     Atom            X                  Y                   Z
    ------   -----------------  -----------------  -----------------
       1       -0.000039318640     0.001150565582    -0.000875015575
       2       -0.000218446744    -0.001745214774     0.001077578565
       3        0.000877323091     0.001263676115    -0.000339219229
       4       -0.000616039352    -0.000676245969     0.000127110065
       5       -0.000012214804     0.000013057359     0.000017419072
       6       -0.000004354158     0.000009942314     0.000002641174
       7        0.000024208993    -0.000020854715    -0.000015875851
       8        0.000013191434    -0.000003777695     0.000010902542
       9        0.000006439149     0.000017282416     0.000004444127
      10       -0.000013230392     0.000006184231    -0.000000860662
      11       -0.000015174934    -0.000005431567    -0.000016839927
      12        0.000002273608    -0.000015247114     0.000010604210
      13       -0.000002526561    -0.000001532855     0.000005084418
      14        0.000000129601     0.000008224122    -0.000010688127
      15       -0.000002260287    -0.000000627452     0.000002715198

  **** Optimization is complete! (in 6 steps) ****
    Final optimized geometry and variables:
    Molecular point group: c1

    Geometry (in Angstrom), charge = 0, multiplicity = 1:

    H            1.154479665611    -1.058997480159    -0.957148826336
    O            1.784820276748    -0.624028384382    -0.413832416202
    C            1.139273757743     0.105123366690     0.595918908234
    C            0.024920874186     1.007955560574     0.083845341496
    H            1.905336558160     0.712400083948     1.058499312657
    H            0.761508372325    -0.568046155439     1.360891809493
    C           -1.160705098247     0.296582498980    -0.574440845498
    H            0.453959916452     1.707853291339    -0.626139533457
    H           -0.337988633576     1.595696187503     0.923344417639
    C           -1.947226587073    -0.627500700888     0.352350944188
    H           -0.825285739491    -0.262571086296    -1.444649345125
    H           -1.830986656089     1.055030385976    -0.964773804908
    H           -2.811982845225    -1.036083907527    -0.157225739547
    H           -1.350103608961    -1.462845537230     0.698886832893
    H           -2.301585932484    -0.091706235669     1.226685573044

  Mulliken Charges: (a.u.)
   Center  Symbol    Alpha    Beta     Spin     Total
       1     H     0.39190  0.39190  0.00000  0.21620
       2     O     4.20651  4.20651  0.00000 -0.41303
       3     C     2.97343  2.97343  0.00000  0.05315
       4     C     3.10201  3.10201  0.00000 -0.20403
       5     H     0.44921  0.44921  0.00000  0.10159
       6     H     0.47115  0.47115  0.00000  0.05770
       7     C     3.10073  3.10073  0.00000 -0.20146
       8     H     0.44524  0.44524  0.00000  0.10953
       9     H     0.45526  0.45526  0.00000  0.08949
      10     C     3.15104  3.15104  0.00000 -0.30207
      11     H     0.45874  0.45874  0.00000  0.08253
      12     H     0.44370  0.44370  0.00000  0.11260
      13     H     0.44501  0.44501  0.00000  0.10997
      14     H     0.45323  0.45323  0.00000  0.09354
      15     H     0.45285  0.45285  0.00000  0.09430

   Total alpha = 21.00000, Total beta = 21.00000, Total charge = -0.00000
