  ==> Input File <==

--------------------------------------------------------------------------
set {
	reference rhf
	basis 6-31G*
}

set_num_threads( 1 )
memory 2 gb

molecule MOL {
0 1

H	 -3.881361	 0.686036	 -0.112494
O	 -3.032409	 1.013790	 -0.372560
C	 -2.026376	 0.340750	 0.341611
C	 -0.673256	 0.843270	 -0.132153
H	 -2.132423	 0.523541	 1.409449
H	 -2.099787	 -0.734576	 0.183693
C	 0.486613	 -0.083066	 0.235839
H	 -0.715586	 0.970948	 -1.210718
H	 -0.508072	 1.829858	 0.297090
C	 1.840406	 0.433480	 -0.254303
H	 0.300215	 -1.068318	 -0.178947
H	 0.519509	 -0.203625	 1.318070
C	 3.000220	 -0.489290	 0.118523
H	 1.809207	 0.553576	 -1.335192
H	 2.021860	 1.424500	 0.157276
H	 2.864959	 -1.479103	 -0.307933
H	 3.946603	 -0.099227	 -0.243630
H	 3.080049	 -0.602997	 1.196117

	symmetry c1
}
set optking {
	frozen_dihedral = ("
		14 10 7 11,
		10 7 4 8,
		1 2 3 4
	")
}

ee = energy('scf')
oeprop('DIPOLE', 'QUADRUPOLE', 'MULLIKEN_CHARGES')
f=open( 'psi4out.xyz', 'w' )
f.write( "18  " )
f.write( str(ee) + "\n" )
f.write( MOL.save_string_xyz() )
f.close()
--------------------------------------------------------------------------

    Molecular point group: c1

    Geometry (in Angstrom), charge = 0, multiplicity = 1:

       Center              X                  Y                   Z               Mass
    ------------   -----------------  -----------------  -----------------  -----------------
           H         -3.748246081831     0.338978143164    -0.100427730955     1.007825032070
           O         -2.899294081831     0.666732143164    -0.360493730955    15.994914619560
           C         -1.893261081831    -0.006307856836     0.353677269045    12.000000000000
           C         -0.540141081831     0.496212143164    -0.120086730955    12.000000000000
           H         -1.999308081831     0.176483143164     1.421515269045     1.007825032070
           H         -1.966672081831    -1.081633856836     0.195759269045     1.007825032070
           C          0.619727918169    -0.430123856836     0.247905269045    12.000000000000
           H         -0.582471081831     0.623890143164    -1.198651730955     1.007825032070
           H         -0.374957081831     1.482800143164     0.309156269045     1.007825032070
           C          1.973520918169     0.086422143164    -0.242236730955    12.000000000000
           H          0.433329918169    -1.415375856836    -0.166880730955     1.007825032070
           H          0.652623918169    -0.550682856836     1.330136269045     1.007825032070
           C          3.133334918169    -0.836347856836     0.130589269045    12.000000000000
           H          1.942321918169     0.206518143164    -1.323125730955     1.007825032070
           H          2.154974918169     1.077442143164     0.169342269045     1.007825032070
           H          2.998073918169    -1.826160856836    -0.295866730955     1.007825032070
           H          4.079717918169    -0.446284856836    -0.231563730955     1.007825032070
           H          3.213163918169    -0.950054856836     1.208183269045     1.007825032070

  Charge       = 0
  Multiplicity = 1
  Basis Set: 6-31G*
  Basis Set:

    Orbital Energies (a.u.)
    -----------------------

    Doubly Occupied:

       1A    -20.551946     2A    -11.267194     3A    -11.216276
       4A    -11.215677     5A    -11.210683     6A    -11.208813
       7A     -1.358384     8A     -1.080493     9A     -1.011035
      10A     -0.913680    11A     -0.819597    12A     -0.792336
      13A     -0.693457    14A     -0.660829    15A     -0.621898
      16A     -0.586960    17A     -0.571922    18A     -0.556445
      19A     -0.530650    20A     -0.493072    21A     -0.489907
      22A     -0.468802    23A     -0.464458    24A     -0.452540
      25A     -0.432349

  @DF-RHF Final Energy:  -271.17839330499413

   => Energetics <=

    Nuclear Repulsion Energy =            245.1944598934699684
    One-Electron Energy =                -853.4069866761177536
    Two-Electron Energy =                 337.0341334776537678
    DFT Exchange-Correlation Energy =       0.0000000000000000
    Empirical Dispersion Energy =           0.0000000000000000
    PCM Polarization Energy =               0.0000000000000000
    EFP Energy =                            0.0000000000000000
    Total Energy =                       -271.1783933049939606

  Mulliken Charges: (a.u.)
   Center  Symbol    Alpha    Beta     Spin     Total
       1     H     0.28117  0.28117  0.00000  0.43766
       2     O     4.37182  4.37182  0.00000 -0.74364
       3     C     2.98997  2.98997  0.00000  0.02006
       4     C     3.16095  3.16095  0.00000 -0.32191
       5     H     0.43188  0.43188  0.00000  0.13625
       6     H     0.43306  0.43306  0.00000  0.13387
       7     C     3.15852  3.15852  0.00000 -0.31703
       8     H     0.41146  0.41146  0.00000  0.17708
       9     H     0.41769  0.41769  0.00000  0.16461
      10     C     3.15122  3.15122  0.00000 -0.30245
      11     H     0.42236  0.42236  0.00000  0.15527
      12     H     0.42472  0.42472  0.00000  0.15056
      13     C     3.23937  3.23937  0.00000 -0.47874
      14     H     0.42128  0.42128  0.00000  0.15744
      15     H     0.42181  0.42181  0.00000  0.15638
      16     H     0.42180  0.42180  0.00000  0.15641
      17     H     0.41888  0.41888  0.00000  0.16225
      18     H     0.42204  0.42204  0.00000  0.15593

   Total alpha = 25.00000, Total beta = 25.00000, Total charge = -0.00000
