  ==> Input File <==

--------------------------------------------------------------------------
set {
	reference rhf
	basis cc-pvtz
}

set_num_threads( 4 )
memory 2 gb

molecule MOL {
0 1

H	 -3.642953	 0.223825	 0.000000
C	 -2.571844	 0.155001	 0.000000
C	 -1.957580	 -1.086132	 0.000000
C	 -1.807160	 1.303787	 0.000000
H	 -2.551493	 -1.979629	 0.000000
C	 -0.582719	 -1.174294	 0.000000
H	 -2.279934	 2.266806	 0.000000
C	 -0.427220	 1.213406	 0.000000
H	 -0.094904	 -2.127556	 0.000000
C	 0.196908	 -0.024061	 0.000000
H	 0.151409	 2.115254	 0.000000
C	 1.690041	 -0.173233	 0.000000
C	 2.289490	 -1.560792	 -0.000000
O	 2.392993	 0.786569	 0.000000
H	 1.973448	 -2.115299	 0.875568
H	 3.363973	 -1.470140	 -0.000000
H	 1.973448	 -2.115299	 -0.875568

	symmetry c1
}
set optking {
	frozen_dihedral = ("
		13 12 10 8
	")
}

ee = optimize('scf')
oeprop('DIPOLE', 'QUADRUPOLE', 'MULLIKEN_CHARGES')
f=open( 'psi4out.xyz', 'w' )
f.write( "17  " )
f.write( str(ee) + "\n" )
f.write( MOL.save_string_xyz() )
f.close()
--------------------------------------------------------------------------

    Molecular point group: c1
  Charge       = 0
  Multiplicity = 1
  Basis Set: CC-PVTZ
  Basis Set:
  @DF-RHF Final Energy:  -382.60407420214642
    Total Energy =                       -382.6040742021465348
    Molecular point group: c1
  Basis Set: CC-PVTZ
  Basis Set:
  Basis Set: CC-PVTZ
  Basis Set:
  @DF-RHF Final Energy:  -382.60554979146025
    Total Energy =                       -382.6055497914602483
  Basis Set: CC-PVTZ
  Basis Set:
  Basis Set: CC-PVTZ
  Basis Set:
  @DF-RHF Final Energy:  -382.60580768391594
    Total Energy =                       -382.6058076839159412
  Basis Set: CC-PVTZ
  Basis Set:
  Basis Set: CC-PVTZ
  Basis Set:
  @DF-RHF Final Energy:  -382.60582207491069
    Total Energy =                       -382.6058220749107477
  Basis Set: CC-PVTZ
  Basis Set:
  Charge       = 0
  Multiplicity = 1
  Basis Set: CC-PVTZ
  Basis Set:

    Orbital Energies (a.u.)
    -----------------------

    Doubly Occupied:

       1A    -20.540365     2A    -11.327787     3A    -11.246939
       4A    -11.244541     5A    -11.242555     6A    -11.238930
       7A    -11.238857     8A    -11.236581     9A    -11.228851
      10A     -1.401877    11A     -1.171172    12A     -1.053429
      13A     -1.030721    14A     -0.998786    15A     -0.864603
      16A     -0.838803    17A     -0.763508    18A     -0.713630
      19A     -0.658480    20A     -0.651980    21A     -0.628792
      22A     -0.609422    23A     -0.602718    24A     -0.601586
      25A     -0.554979    26A     -0.529095    27A     -0.522424
      28A     -0.503523    29A     -0.497864    30A     -0.414398
      31A     -0.351063    32A     -0.346764

  @DF-RHF Final Energy:  -382.60582462121238

   => Energetics <=

    Nuclear Repulsion Energy =            404.5097434946408157
    One-Electron Energy =               -1320.5210823669426645
    Two-Electron Energy =                 533.4055142510895848
    DFT Exchange-Correlation Energy =       0.0000000000000000
    Empirical Dispersion Energy =           0.0000000000000000
    PCM Polarization Energy =               0.0000000000000000
    EFP Energy =                            0.0000000000000000
    Total Energy =                       -382.6058246212122640
    Molecular point group: c1
  Basis Set: CC-PVTZ
  Basis Set:

  -Total Gradient:
     Atom            X                  Y                   Z
    ------   -----------------  -----------------  -----------------
       1       -0.000002024196    -0.000033554908    -0.000000000542
       2        0.000056637574     0.000245226313     0.000000000203
       3        0.000187315967    -0.000133434177     0.000000006572
       4       -0.000201957109    -0.000101709690     0.000000002176
       5       -0.000022152439     0.000011269936     0.000000001255
       6       -0.000163018410    -0.000080013513    -0.000000008543
       7        0.000016397681     0.000001886967    -0.000000000199
       8        0.000084387380    -0.000066057150     0.000000001562
       9       -0.000011520972     0.000014329237    -0.000000002919
      10        0.000017445425     0.000138527095    -0.000000081431
      11        0.000026843613    -0.000006377939     0.000000000695
      12        0.000110176472     0.000073309247     0.000000251192
      13        0.000023240194     0.000015218064    -0.000000077098
      14       -0.000081734168    -0.000039619449    -0.000000089945
      15       -0.000009735095    -0.000004158725     0.000010922451
      16       -0.000020572822    -0.000030653046    -0.000000001684
      17       -0.000009729092    -0.000004188261    -0.000010923745

  **** Optimization is complete! (in 5 steps) ****
    Final optimized geometry and variables:
    Molecular point group: c1

    Geometry (in Angstrom), charge = 0, multiplicity = 1:

    H           -3.633626132709     0.343612478006    -0.000000125876
    C           -2.564739654594     0.245740184966    -0.000000044758
    C           -1.987336516453    -1.007836435503    -0.000000124375
    C           -1.765561323173     1.376553598840     0.000000150015
    H           -2.603804257728    -1.885903923262    -0.000000259292
    C           -0.610165297754    -1.132629505526    -0.000000022306
    H           -2.213619842606     2.351425992521     0.000000227311
    C           -0.393530182329     1.250343690142     0.000000266745
    H           -0.178530688874    -2.113400984455    -0.000000073430
    C            0.198242589582    -0.006809546857     0.000000162727
    H            0.236297218639     2.116447453721     0.000000448558
    C            1.696866495559    -0.090583391509     0.000000411555
    C            2.355057224723    -1.451333792431     0.000000247057
    O            2.357239177049     0.898704918852    -0.000000839312
    H            2.062610190673    -2.018586749527     0.875648222961
    H            3.424823367817    -1.315523560137    -0.000000425937
    H            2.062609131251    -2.018587091245    -0.875647156215

  Mulliken Charges: (a.u.)
   Center  Symbol    Alpha    Beta     Spin     Total
       1     H     0.42019  0.42019  0.00000  0.15962
       2     C     3.07203  3.07203  0.00000 -0.14405
       3     C     3.07821  3.07821  0.00000 -0.15643
       4     C     3.07507  3.07507  0.00000 -0.15014
       5     H     0.42242  0.42242  0.00000  0.15516
       6     C     3.08629  3.08629  0.00000 -0.17258
       7     H     0.42023  0.42023  0.00000  0.15953
       8     C     3.07340  3.07340  0.00000 -0.14679
       9     H     0.42141  0.42141  0.00000  0.15717
      10     C     3.01386  3.01386  0.00000 -0.02772
      11     H     0.40672  0.40672  0.00000  0.18655
      12     C     2.83163  2.83163  0.00000  0.33673
      13     C     3.16798  3.16798  0.00000 -0.33596
      14     O     4.18435  4.18435  0.00000 -0.36870
      15     H     0.44721  0.44721  0.00000  0.10558
      16     H     0.43178  0.43178  0.00000  0.13644
      17     H     0.44721  0.44721  0.00000  0.10558

   Total alpha = 32.00000, Total beta = 32.00000, Total charge =  0.00000
