                              Psi4 1.0.54 Driver

  ==> Input File <==

--------------------------------------------------------------------------
set {
	reference rhf
	basis cc-pvtz
}

set_num_threads( 4 )
memory 2 gb

molecule MOL {
0 1

O	 3.219313	 0.959291	 -0.614106
C	 2.698710	 0.058177	 -0.050237
C	 1.246364	 -0.005813	 0.348416
O	 3.344101	 -1.038700	 0.312317
C	 0.453207	 1.232821	 -0.049003
H	 0.839270	 -0.907818	 -0.092281
H	 1.216683	 -0.160521	 1.422434
C	 -0.998367	 1.217982	 0.432195
H	 0.481498	 1.345443	 -1.127236
H	 0.951413	 2.105557	 0.354893
C	 -1.882951	 0.151251	 -0.211235
H	 -1.429490	 2.193659	 0.228843
H	 -1.019755	 1.099323	 1.513279
C	 -1.482650	 -0.167888	 -1.649184
H	 -1.835327	 -0.757625	 0.384204
H	 -2.921304	 0.469408	 -0.199613
C	 -2.363368	 -1.228114	 -2.304188
H	 -0.447808	 -0.501184	 -1.668046
H	 -1.518554	 0.742888	 -2.242533
C	 -1.956132	 -1.542762	 -3.739783
H	 -2.328349	 -2.138849	 -1.712533
H	 -3.397695	 -0.895272	 -2.288656
H	 -2.600761	 -2.297892	 -4.174773
H	 -0.936995	 -1.912067	 -3.785396
H	 -2.013840	 -0.658436	 -4.365759
C	 4.720529	 -1.114346	 0.001449
H	 4.874321	 -1.055557	 -1.065852
H	 5.057824	 -2.067950	 0.373977
H	 5.264321	 -0.313596	 0.480350

	symmetry c1
}
set optking {
	frozen_dihedral = ("
		15 11 8 5
	")
}

ee,wfn = optimize('scf', return_wfn=True)
oeprop( wfn, 'DIPOLE', 'QUADRUPOLE', 'MULLIKEN_CHARGES')
f=open( 'psi4out.xyz', 'w' )
f.write( "29  " )
f.write( str(ee) + "\n" )
f.write( MOL.save_string_xyz() )
f.close()
--------------------------------------------------------------------------

    Molecular point group: c1
  Charge       = 0
  Multiplicity = 1
  Basis Set: CC-PVTZ
  Basis Set:
  @DF-RHF Final Energy:  -501.21670397841740
    Total Energy =                       -501.2167039784181952
    Molecular point group: c1
  Basis Set: CC-PVTZ
  Basis Set:
  Basis Set: CC-PVTZ
  Basis Set:
  @DF-RHF Final Energy:  -501.21901581054169
    Total Energy =                       -501.2190158105408955
  Basis Set: CC-PVTZ
  Basis Set:
  Basis Set: CC-PVTZ
  Basis Set:
  @DF-RHF Final Energy:  -501.21986558933202
    Total Energy =                       -501.2198655893322439
  Basis Set: CC-PVTZ
  Basis Set:
  Basis Set: CC-PVTZ
  Basis Set:
  @DF-RHF Final Energy:  -501.21922551843397
    Total Energy =                       -501.2192255184336318
  Basis Set: CC-PVTZ
  Basis Set:
  Basis Set: CC-PVTZ
  Basis Set:
  @DF-RHF Final Energy:  -501.22000040634441
    Total Energy =                       -501.2200004063438428
  Basis Set: CC-PVTZ
  Basis Set:
  Basis Set: CC-PVTZ
  Basis Set:
  @DF-RHF Final Energy:  -501.22008158465053
    Total Energy =                       -501.2200815846516662
  Basis Set: CC-PVTZ
  Basis Set:
  Basis Set: CC-PVTZ
  Basis Set:
  @DF-RHF Final Energy:  -501.22008389685277
    Total Energy =                       -501.2200838968526568
  Basis Set: CC-PVTZ
  Basis Set:
  Charge       = 0
  Multiplicity = 1
  Basis Set: CC-PVTZ
  Basis Set:

    Orbital Energies (a.u.)
    -----------------------

    Doubly Occupied:

       1A    -20.595952     2A    -20.533771     3A    -11.364069
       4A    -11.278244     5A    -11.232523     6A    -11.216262
       7A    -11.215645     8A    -11.214281     9A    -11.214078
      10A    -11.213061    11A    -11.207012    12A     -1.471773
      13A     -1.365329    14A     -1.098935    15A     -1.066162
      16A     -1.019380    17A     -0.976669    18A     -0.930790
      19A     -0.868249    20A     -0.808977    21A     -0.780176
      22A     -0.759638    23A     -0.703254    24A     -0.685697
      25A     -0.675533    26A     -0.647938    27A     -0.635385
      28A     -0.603936    29A     -0.595703    30A     -0.580444
      31A     -0.565616    32A     -0.554467    33A     -0.539654
      34A     -0.528113    35A     -0.523535    36A     -0.508131
      37A     -0.492903    38A     -0.481710    39A     -0.472199
      40A     -0.460365    41A     -0.456660    42A     -0.453998
      43A     -0.443605    44A     -0.438296

  @DF-RHF Final Energy:  -501.22008431845575

   => Energetics <=

    Nuclear Repulsion Energy =            629.2924880633884186
    One-Electron Energy =               -1930.0689139063802031
    Two-Electron Energy =                 799.5563415245358101
    DFT Exchange-Correlation Energy =       0.0000000000000000
    Empirical Dispersion Energy =           0.0000000000000000
    PCM Polarization Energy =               0.0000000000000000
    EFP Energy =                            0.0000000000000000
    Total Energy =                       -501.2200843184559744
    Molecular point group: c1
  Basis Set: CC-PVTZ
  Basis Set:

  -Total Gradient:
     Atom            X                  Y                   Z
    ------   -----------------  -----------------  -----------------
       1        0.000022510018     0.000029756065    -0.000014230504
       2        0.000008454762    -0.000043558929     0.000046408373
       3       -0.000012371794    -0.000010195501    -0.000052433036
       4       -0.000051999626     0.000019966250    -0.000020281538
       5       -0.001187075153     0.003140251767    -0.003594947642
       6       -0.000010069030    -0.000009622090     0.000013739896
       7        0.000001302693     0.000009628686     0.000030980455
       8        0.000440392093    -0.004083449318     0.006092680565
       9       -0.000004997274     0.000002515779    -0.000016400319
      10        0.000002141886     0.000002503093    -0.000000050859
      11        0.005985463578    -0.001029466995    -0.005919680937
      12       -0.000001833546    -0.000000688690    -0.000001168963
      13        0.000001282234    -0.000000490415     0.000002576403
      14        0.000015558976    -0.000014541197     0.000006580079
      15       -0.005240039819     0.001985171669     0.003425807131
      16       -0.000004895991    -0.000003303531    -0.000005011306
      17       -0.000003048415    -0.000000859739     0.000002456675
      18       -0.000010258594    -0.000000056362     0.000003581513
      19        0.000005116095     0.000002327689     0.000003518192
      20       -0.000004185451     0.000003857991     0.000001158592
      21        0.000002801773     0.000001939831    -0.000002629863
      22        0.000001194545    -0.000003717717    -0.000000662329
      23        0.000001550774     0.000002908047     0.000000920913
      24       -0.000005693262     0.000001148874     0.000003865722
      25        0.000001053791     0.000000369770    -0.000000933665
      26        0.000028094932    -0.000005344571    -0.000002266398
      27        0.000003824714    -0.000000530523    -0.000015767398
      28        0.000005344029    -0.000010185398     0.000004694168
      29        0.000010381070     0.000013665467     0.000007496083

  **** Optimization is complete! (in 8 steps) ****
    Final optimized geometry and variables:
    Molecular point group: c1

    Geometry (in Angstrom), charge = 0, multiplicity = 1:

    O            2.592612087908     1.138241668561     0.117120814718
    C            2.091795230988     0.253197415138     0.723035236358
    C            0.636529270785     0.167429959956     1.105982253854
    O            2.765154793665    -0.802041694086     1.152092384704
    C           -0.188011994413     1.364054117607     0.646877750456
    H            0.256821801544    -0.764888201391     0.703869246348
    H            0.595621335688     0.059245510157     2.185153276064
    C           -1.661096125671     1.276374186860     1.051396420289
    H           -0.095383802784     1.479773203934    -0.424452400171
    H            0.237227985090     2.261778343152     1.079316029718
    C           -2.513035530471     0.182473203881     0.381330824009
    H           -2.107271010892     2.237980429280     0.815618542202
    H           -1.738496557968     1.170196265576     2.129293425371
    C           -2.231451463473    -0.100862579446    -1.090974551133
    H           -2.476549218970    -0.732870098234     0.966534892595
    H           -3.549722616741     0.499310994202     0.465894441460
    C           -3.221895650200    -1.089860362587    -1.700679094610
    H           -1.226179959841    -0.489002272698    -1.220057911436
    H           -2.269419549470     0.831089664198    -1.650182803514
    C           -2.946778762554    -1.383128762083    -3.171731418168
    H           -3.193963043669    -2.018624468409    -1.137126198670
    H           -4.230307976989    -0.700111440377    -1.593887082864
    H           -3.667642879571    -2.085921155454    -3.573494816954
    H           -1.958412589380    -1.809290352625    -3.308343573920
    H           -2.999780558203    -0.478144560911    -3.767770765474
    C            4.147366690339    -0.851727850188     0.862040370541
    H            4.313711694898    -0.845488599309    -0.205014270371
    H            4.508346874349    -1.773117172188     1.289470134385
    H            4.660231390798    -0.010007508439     1.303384317766

  Mulliken Charges: (a.u.)
   Center  Symbol    Alpha    Beta     Spin     Total
       1     O     4.19684  4.19684  0.00000 -0.39368
       2     C     2.80452  2.80452  0.00000  0.39097
       3     C     3.10264  3.10264  0.00000 -0.20529
       4     O     4.14740  4.14740  0.00000 -0.29481
       5     C     3.10205  3.10205  0.00000 -0.20409
       6     H     0.43937  0.43937  0.00000  0.12125
       7     H     0.43713  0.43713  0.00000  0.12574
       8     C     3.10775  3.10775  0.00000 -0.21551
       9     H     0.44160  0.44160  0.00000  0.11680
      10     H     0.43630  0.43630  0.00000  0.12740
      11     C     3.10917  3.10917  0.00000 -0.21835
      12     H     0.44492  0.44492  0.00000  0.11017
      13     H     0.44797  0.44797  0.00000  0.10405
      14     C     3.08996  3.08996  0.00000 -0.17991
      15     H     0.44878  0.44878  0.00000  0.10244
      16     H     0.44649  0.44649  0.00000  0.10703
      17     C     3.08520  3.08520  0.00000 -0.17039
      18     H     0.45308  0.45308  0.00000  0.09384
      19     H     0.45098  0.45098  0.00000  0.09803
      20     C     3.14999  3.14999  0.00000 -0.29998
      21     H     0.45476  0.45476  0.00000  0.09047
      22     H     0.45317  0.45317  0.00000  0.09366
      23     H     0.44820  0.44820  0.00000  0.10360
      24     H     0.45524  0.45524  0.00000  0.08953
      25     H     0.45464  0.45464  0.00000  0.09073
      26     C     3.03792  3.03792  0.00000 -0.07583
      27     H     0.45437  0.45437  0.00000  0.09126
      28     H     0.44531  0.44531  0.00000  0.10938
      29     H     0.45426  0.45426  0.00000  0.09148

   Total alpha = 44.00000, Total beta = 44.00000, Total charge =  0.00000

*** Psi4 exiting successfully. Buy a developer a beer!
