  ==> Input File <==

--------------------------------------------------------------------------
set {
	reference rhf
	basis 6-31G*
}

set_num_threads( 1 )
memory 2 gb

molecule MOL {
0 1

H	 2.511345	 -1.624651	 0.891098
O	 2.826016	 -1.159218	 0.122261
C	 2.077727	 -0.067559	 -0.035091
C	 0.624473	 -0.343591	 0.253101
O	 2.542965	 0.974826	 -0.363729
C	 -0.265902	 0.883932	 0.072916
H	 0.324016	 -1.163849	 -0.390541
H	 0.565024	 -0.726111	 1.268924
C	 -1.728698	 0.646073	 0.462102
H	 -0.209144	 1.219470	 -0.958188
H	 0.135059	 1.692851	 0.673903
C	 -2.482460	 -0.343073	 -0.431425
H	 -2.245265	 1.602650	 0.432430
H	 -1.779332	 0.308348	 1.496285
C	 -3.960546	 -0.461025	 -0.060175
H	 -2.395034	 -0.026811	 -1.468912
H	 -2.024850	 -1.327147	 -0.371646
H	 -4.472726	 -1.168004	 -0.705284
H	 -4.465146	 0.496508	 -0.151489
H	 -4.081218	 -0.800940	 0.964585

	symmetry c1
}
set optking {
	frozen_dihedral = ("
		16 12 9 6,
		7 4 6 10,
		12 9 6 10,
		5 3 4 7
	")
}

ee = energy('scf')
oeprop('DIPOLE', 'QUADRUPOLE', 'MULLIKEN_CHARGES')
f=open( 'psi4out.xyz', 'w' )
f.write( "20  " )
f.write( str(ee) + "\n" )
f.write( MOL.save_string_xyz() )
f.close()
--------------------------------------------------------------------------

    Molecular point group: c1

    Geometry (in Angstrom), charge = 0, multiplicity = 1:

       Center              X                  Y                   Z               Mass
    ------------   -----------------  -----------------  -----------------  -----------------
           H          2.521920771834    -1.618605258358     0.882748887426     1.007825032070
           O          2.836591771834    -1.153172258358     0.113911887426    15.994914619560
           C          2.088302771834    -0.061513258358    -0.043440112574    12.000000000000
           C          0.635048771834    -0.337545258358     0.244751887426    12.000000000000
           O          2.553540771834     0.980871741642    -0.372078112574    15.994914619560
           C         -0.255326228166     0.889977741642     0.064566887426    12.000000000000
           H          0.334591771834    -1.157803258358    -0.398890112574     1.007825032070
           H          0.575599771834    -0.720065258358     1.260574887426     1.007825032070
           C         -1.718122228166     0.652118741642     0.453752887426    12.000000000000
           H         -0.198568228166     1.225515741642    -0.966537112574     1.007825032070
           H          0.145634771834     1.698896741642     0.665553887426     1.007825032070
           C         -2.471884228166    -0.337027258358    -0.439774112574    12.000000000000
           H         -2.234689228166     1.608695741642     0.424080887426     1.007825032070
           H         -1.768756228166     0.314393741642     1.487935887426     1.007825032070
           C         -3.949970228166    -0.454979258358    -0.068524112574    12.000000000000
           H         -2.384458228166    -0.020765258358    -1.477261112574     1.007825032070
           H         -2.014274228166    -1.321101258358    -0.379995112574     1.007825032070
           H         -4.462150228166    -1.161958258358    -0.713633112574     1.007825032070
           H         -4.454570228166     0.502553741642    -0.159838112574     1.007825032070
           H         -4.070642228166    -0.794894258358     0.956235887426     1.007825032070

  Charge       = 0
  Multiplicity = 1
  Basis Set: 6-31G*
  Basis Set:

    Orbital Energies (a.u.)
    -----------------------

    Doubly Occupied:

       1A    -20.608843     2A    -20.553674     3A    -11.380506
       4A    -11.249201     5A    -11.228135     6A    -11.225132
       7A    -11.224524     8A    -11.216056     9A     -1.469658
      10A     -1.370635    11A     -1.101261    12A     -1.044608
      13A     -0.961624    14A     -0.865975    15A     -0.826221
      16A     -0.792797    17A     -0.719908    18A     -0.673354
      19A     -0.661701    20A     -0.636798    21A     -0.621366
      22A     -0.595172    23A     -0.564929    24A     -0.557199
      25A     -0.550143    26A     -0.514132    27A     -0.502459
      28A     -0.482382    29A     -0.473487    30A     -0.470217
      31A     -0.462141    32A     -0.441227

  @DF-RHF Final Energy:  -383.93125586825352

   => Energetics <=

    Nuclear Repulsion Energy =            376.4624868076126631
    One-Electron Energy =               -1268.6965190792384419
    Two-Electron Energy =                 508.3027764033718086
    DFT Exchange-Correlation Energy =       0.0000000000000000
    Empirical Dispersion Energy =           0.0000000000000000
    PCM Polarization Energy =               0.0000000000000000
    EFP Energy =                            0.0000000000000000
    Total Energy =                       -383.9312558682539702

  Mulliken Charges: (a.u.)
   Center  Symbol    Alpha    Beta     Spin     Total
       1     H     0.26900  0.26900  0.00000  0.46199
       2     O     4.35075  4.35075  0.00000 -0.70150
       3     C     2.61366  2.61366  0.00000  0.77269
       4     C     3.23168  3.23168  0.00000 -0.46337
       5     O     4.26166  4.26166  0.00000 -0.52331
       6     C     3.15384  3.15384  0.00000 -0.30768
       7     H     0.39467  0.39467  0.00000  0.21067
       8     H     0.41346  0.41346  0.00000  0.17309
       9     C     3.15601  3.15601  0.00000 -0.31202
      10     H     0.40900  0.40900  0.00000  0.18201
      11     H     0.40670  0.40670  0.00000  0.18661
      12     C     3.15474  3.15474  0.00000 -0.30947
      13     H     0.41668  0.41668  0.00000  0.16663
      14     H     0.42487  0.42487  0.00000  0.15027
      15     C     3.23929  3.23929  0.00000 -0.47857
      16     H     0.42017  0.42017  0.00000  0.15966
      17     H     0.42463  0.42463  0.00000  0.15075
      18     H     0.41775  0.41775  0.00000  0.16450
      19     H     0.41982  0.41982  0.00000  0.16037
      20     H     0.42166  0.42166  0.00000  0.15668

   Total alpha = 32.00000, Total beta = 32.00000, Total charge =  0.00000
