  ==> Input File <==

--------------------------------------------------------------------------
set {
	reference rhf
	basis 6-31G*
}

set_num_threads( 4 )
memory 2 gb

molecule MOL {
0 1

H	 -2.234725	 -0.520944	 -0.701537
O	 -2.035884	 -0.060112	 0.102722
C	 -0.955155	 0.788182	 -0.092531
C	 0.353668	 0.040312	 -0.004810
H	 -0.985057	 1.290372	 -1.054184
H	 -0.974469	 1.533190	 0.688632
F	 0.394464	 -0.937475	 -0.903053
F	 1.368604	 0.853376	 -0.249821
F	 0.546173	 -0.502608	 1.179981

	symmetry c1
}
set optking {
	frozen_dihedral = ("
		1 2 3 5
	")
}

ee = optimize('scf')
oeprop('DIPOLE', 'QUADRUPOLE', 'MULLIKEN_CHARGES')
f=open( 'psi4out.xyz', 'w' )
f.write( "9  " )
f.write( str(ee) + "\n" )
f.write( MOL.save_string_xyz() )
f.close()
--------------------------------------------------------------------------

    Molecular point group: c1
  Charge       = 0
  Multiplicity = 1
  Basis Set: 6-31G*
  Basis Set:
  @DF-RHF Final Energy:  -450.66244188714040
    Total Energy =                       -450.6624418871406306
    Molecular point group: c1
  Basis Set: 6-31G*
  Basis Set:
  Basis Set: 6-31G*
  Basis Set:
  @DF-RHF Final Energy:  -450.66248079670584
    Total Energy =                       -450.6624807967060633
  Basis Set: 6-31G*
  Basis Set:
  Basis Set: 6-31G*
  Basis Set:
  @DF-RHF Final Energy:  -450.66249059260241
    Total Energy =                       -450.6624905926030920
  Basis Set: 6-31G*
  Basis Set:
  Charge       = 0
  Multiplicity = 1
  Basis Set: 6-31G*
  Basis Set:

    Orbital Energies (a.u.)
    -----------------------

    Doubly Occupied:

       1A    -26.340986     2A    -26.340480     3A    -26.336761
       4A    -20.590694     5A    -11.497512     6A    -11.309947
       7A     -1.737531     8A     -1.636222     9A     -1.634285
      10A     -1.402612    11A     -1.047441    12A     -0.921707
      13A     -0.828154    14A     -0.826412    15A     -0.800522
      16A     -0.730442    17A     -0.709366    18A     -0.697414
      19A     -0.662888    20A     -0.655975    21A     -0.639936
      22A     -0.629421    23A     -0.608487    24A     -0.533084
      25A     -0.480053

  @DF-RHF Final Energy:  -450.66249102142791

   => Energetics <=

    Nuclear Repulsion Energy =            276.9585981848353526
    One-Electron Energy =               -1176.0455122567507260
    Two-Electron Energy =                 448.4244230504873485
    DFT Exchange-Correlation Energy =       0.0000000000000000
    Empirical Dispersion Energy =           0.0000000000000000
    PCM Polarization Energy =               0.0000000000000000
    EFP Energy =                            0.0000000000000000
    Total Energy =                       -450.6624910214279680
    Molecular point group: c1
  Basis Set: 6-31G*
  Basis Set:

  -Total Gradient:
     Atom            X                  Y                   Z
    ------   -----------------  -----------------  -----------------
       1       -0.000991840722     0.001159281019    -0.000438019599
       2        0.001478425922    -0.001723521289     0.000353194266
       3       -0.001217955253     0.001663522619     0.000678269314
       4        0.000109017967     0.000052312431    -0.000008611478
       5        0.000727662784    -0.001086871348    -0.000559244184
       6       -0.000016409079     0.000007965615    -0.000004018567
       7       -0.000024349875    -0.000085162135    -0.000098677076
       8       -0.000060811157    -0.000027334698     0.000051456649
       9       -0.000003740576     0.000039807787     0.000025650672

  **** Optimization is complete! (in 4 steps) ****
    Final optimized geometry and variables:
    Molecular point group: c1

    Geometry (in Angstrom), charge = 0, multiplicity = 1:

    H           -2.225755845004    -0.534355184181    -0.685876893595
    O           -2.030897481060    -0.060049014985     0.110521409595
    C           -0.952570687430     0.790537252960    -0.092606605119
    C            0.353454433150     0.036724670907    -0.006011508923
    H           -0.979209390604     1.278727210579    -1.060939318323
    H           -0.964176294722     1.543025085959     0.681775331531
    F            0.401509836014    -0.928268258684    -0.915435396269
    F            1.371171038597     0.853470653700    -0.233251475968
    F            0.536733845205    -0.518513325095     1.174426494250

  Mulliken Charges: (a.u.)
   Center  Symbol    Alpha    Beta     Spin     Total
       1     H     0.27198  0.27198  0.00000  0.45604
       2     O     4.36098  4.36098  0.00000 -0.72196
       3     C     3.05688  3.05688  0.00000 -0.11377
       4     C     2.46075  2.46075  0.00000  1.07851
       5     H     0.40974  0.40974  0.00000  0.18053
       6     H     0.39593  0.39593  0.00000  0.20814
       7     F     4.68549  4.68549  0.00000 -0.37099
       8     F     4.68290  4.68290  0.00000 -0.36580
       9     F     4.67536  4.67536  0.00000 -0.35071

   Total alpha = 25.00000, Total beta = 25.00000, Total charge = -0.00000
