                              Psi4 1.0.54 Driver

  ==> Input File <==

--------------------------------------------------------------------------
set {
	reference rhf
	basis cc-pvtz
}

set_num_threads( 4 )
memory 2 gb

molecule MOL {
0 1

H	 2.890233	 -0.244633	 -0.959558
N	 2.433987	 -0.362316	 -0.080024
C	 1.263552	 0.494993	 0.021953
H	 3.100804	 -0.140935	 0.629681
C	 -0.016533	 -0.325589	 -0.026925
H	 1.280915	 1.180773	 -0.818522
H	 1.263064	 1.106893	 0.925038
C	 -1.280353	 0.525521	 0.047747
H	 -0.016686	 -0.912532	 -0.939714
H	 -0.014099	 -1.037598	 0.796369
C	 -2.560681	 -0.301323	 -0.007747
H	 -1.279957	 1.241025	 -0.770189
H	 -1.270445	 1.110526	 0.963468
H	 -2.617064	 -0.872870	 -0.928010
H	 -3.439525	 0.331102	 0.043462
H	 -2.609427	 -1.002736	 0.818585

	symmetry c1
}
set optking {
	frozen_dihedral = ("
		1 2 3 6
	")
}

ee,wfn = optimize('scf', return_wfn=True)
oeprop( wfn, 'DIPOLE', 'QUADRUPOLE', 'MULLIKEN_CHARGES')
f=open( 'psi4out.xyz', 'w' )
f.write( "16  " )
f.write( str(ee) + "\n" )
f.write( MOL.save_string_xyz() )
f.close()
--------------------------------------------------------------------------

    Molecular point group: c1
  Charge       = 0
  Multiplicity = 1
  Basis Set: CC-PVTZ
  Basis Set:
  @DF-RHF Final Energy:  -212.39660845402503
    Total Energy =                       -212.3966084540249994
    Molecular point group: c1
  Basis Set: CC-PVTZ
  Basis Set:
  Basis Set: CC-PVTZ
  Basis Set:
  @DF-RHF Final Energy:  -212.39734171833297
    Total Energy =                       -212.3973417183330525
  Basis Set: CC-PVTZ
  Basis Set:
  Basis Set: CC-PVTZ
  Basis Set:
  @DF-RHF Final Energy:  -212.39752437154928
    Total Energy =                       -212.3975243715493093
  Basis Set: CC-PVTZ
  Basis Set:
  Basis Set: CC-PVTZ
  Basis Set:
  @DF-RHF Final Energy:  -212.39752665050801
    Total Energy =                       -212.3975266505080413
  Basis Set: CC-PVTZ
  Basis Set:
  Charge       = 0
  Multiplicity = 1
  Basis Set: CC-PVTZ
  Basis Set:

    Orbital Energies (a.u.)
    -----------------------

    Doubly Occupied:

       1A    -15.525637     2A    -11.239032     3A    -11.210227
       4A    -11.203841     5A    -11.201818     6A     -1.175317
       7A     -1.058456     8A     -0.958929     9A     -0.842918
      10A     -0.787330    11A     -0.676827    12A     -0.623360
      13A     -0.611538    14A     -0.577790    15A     -0.551823
      16A     -0.533355    17A     -0.488129    18A     -0.476295
      19A     -0.465768    20A     -0.458978    21A     -0.380633

  @DF-RHF Final Energy:  -212.39752713688003

   => Energetics <=

    Nuclear Repulsion Energy =            186.0969974161555740
    One-Electron Energy =                -654.8930413076416244
    Two-Electron Energy =                 256.3985167546060779
    DFT Exchange-Correlation Energy =       0.0000000000000000
    Empirical Dispersion Energy =           0.0000000000000000
    PCM Polarization Energy =               0.0000000000000000
    EFP Energy =                            0.0000000000000000
    Total Energy =                       -212.3975271368800009
    Molecular point group: c1
  Basis Set: CC-PVTZ
  Basis Set:

  -Total Gradient:
     Atom            X                  Y                   Z
    ------   -----------------  -----------------  -----------------
       1        0.000653459330     0.000861628770     0.000443418880
       2       -0.000965874220    -0.001299057359    -0.000729713193
       3        0.000844764102     0.001107561327     0.000823568798
       4        0.000020025954     0.000008621970     0.000011335438
       5        0.000044900232     0.000025329989     0.000016246890
       6       -0.000560488709    -0.000707890115    -0.000575500570
       7       -0.000025561886    -0.000011179076     0.000003866556
       8       -0.000003872296    -0.000002765285    -0.000001561021
       9        0.000010360959     0.000017093690     0.000008726697
      10        0.000002424011     0.000004431166     0.000001304306
      11       -0.000017713154     0.000009238791    -0.000000484861
      12        0.000004114093    -0.000003993107     0.000008158880
      13       -0.000000712430    -0.000008011434    -0.000005470370
      14        0.000001846258     0.000001218192     0.000002726032
      15       -0.000009158645    -0.000007852864    -0.000002972826
      16        0.000001486399     0.000005625344    -0.000003649638

  **** Optimization is complete! (in 5 steps) ****
    Final optimized geometry and variables:
    Molecular point group: c1

    Geometry (in Angstrom), charge = 0, multiplicity = 1:

    H            2.882217823138    -0.241232229361    -1.062970259700
    N            2.439659522772    -0.359676012591    -0.178560624827
    C            1.257329649405     0.488869972185    -0.045534333983
    H            3.120266495448    -0.153790181872     0.518634750529
    C           -0.024984175184    -0.333405351519    -0.016879333327
    H            1.198837454996     1.202925645712    -0.863000379743
    H            1.326525963659     1.072696159071     0.866716206371
    C           -1.283837425936     0.517476895790     0.116806265895
    H           -0.077345788084    -0.928272642026    -0.924677197994
    H            0.034887368084    -1.039896956021     0.805561517569
    C           -2.564661633404    -0.310146749527     0.144593695991
    H           -1.332467071961     1.224888177948    -0.707247163775
    H           -1.222908567008     1.113343867555     1.024117985909
    H           -2.673559919815    -0.891427504258    -0.764906526450
    H           -3.440377567227     0.321698542690     0.240297657950
    H           -2.563467587853    -1.003203514552     0.979161554890

  Mulliken Charges: (a.u.)
   Center  Symbol    Alpha    Beta     Spin     Total
       1     H     0.42740  0.42740  0.00000  0.14520
       2     N     3.69569  3.69569  0.00000 -0.39138
       3     C     3.04565  3.04565  0.00000 -0.09131
       4     H     0.42599  0.42599  0.00000  0.14802
       5     C     3.06191  3.06191  0.00000 -0.12382
       6     H     0.45946  0.45946  0.00000  0.08108
       7     H     0.45709  0.45709  0.00000  0.08582
       8     C     3.09161  3.09161  0.00000 -0.18323
       9     H     0.45795  0.45795  0.00000  0.08410
      10     H     0.45577  0.45577  0.00000  0.08846
      11     C     3.14892  3.14892  0.00000 -0.29784
      12     H     0.45692  0.45692  0.00000  0.08616
      13     H     0.45677  0.45677  0.00000  0.08647
      14     H     0.45487  0.45487  0.00000  0.09026
      15     H     0.44939  0.44939  0.00000  0.10123
      16     H     0.45461  0.45461  0.00000  0.09078

   Total alpha = 21.00000, Total beta = 21.00000, Total charge = -0.00000

*** Psi4 exiting successfully. Buy a developer a beer!
