                              Psi4 1.0.54 Driver

  ==> Input File <==

--------------------------------------------------------------------------
set {
	reference rhf
	basis cc-pvtz
}

set_num_threads( 4 )
memory 2 gb

molecule MOL {
0 1

O	 -2.081319	 -0.951530	 -0.502732
N	 -1.613558	 0.006676	 0.014756
C	 -0.329345	 -0.171618	 0.743966
O	 -2.068523	 1.100482	 -0.024385
C	 0.835904	 0.041968	 -0.213982
H	 -0.346048	 -1.174374	 1.137184
H	 -0.333613	 0.555559	 1.538590
C	 2.047229	 0.629086	 0.505845
H	 1.097839	 -0.907247	 -0.666684
H	 0.519821	 0.706376	 -1.009841
C	 3.226419	 0.859713	 -0.432666
H	 2.348745	 -0.037996	 1.308047
H	 1.768604	 1.568658	 0.973798
H	 3.549045	 -0.068845	 -0.890257
H	 2.963828	 1.548009	 -1.228286
H	 4.070828	 1.277137	 0.102021

	symmetry c1
}
set optking {
	frozen_dihedral = ("
		9 5 3 2
	")
}

ee,wfn = optimize('scf', return_wfn=True)
oeprop( wfn, 'DIPOLE', 'QUADRUPOLE', 'MULLIKEN_CHARGES')
f=open( 'psi4out.xyz', 'w' )
f.write( "16  " )
f.write( str(ee) + "\n" )
f.write( MOL.save_string_xyz() )
f.close()
--------------------------------------------------------------------------

    Molecular point group: c1
  Charge       = 0
  Multiplicity = 1
  Basis Set: CC-PVTZ
  Basis Set:
  @DF-RHF Final Energy:  -360.90650086841811
    Total Energy =                       -360.9065008684182203
    Molecular point group: c1
  Basis Set: CC-PVTZ
  Basis Set:
  Basis Set: CC-PVTZ
  Basis Set:
  @DF-RHF Final Energy:  -360.90539202905006
    Total Energy =                       -360.9053920290500628
  Basis Set: CC-PVTZ
  Basis Set:
  Basis Set: CC-PVTZ
  Basis Set:
  @DF-RHF Final Energy:  -360.90363372671476
    Total Energy =                       -360.9036337267146450
  Basis Set: CC-PVTZ
  Basis Set:
  Basis Set: CC-PVTZ
  Basis Set:
  @DF-RHF Final Energy:  -360.90645894098600
    Total Energy =                       -360.9064589409861696
  Basis Set: CC-PVTZ
  Basis Set:
  @DF-RHF Final Energy:  -360.51929939739443
    Total Energy =                       -360.5192993973945477
  @DF-RHF Final Energy:  -360.70713063189987
    Total Energy =                       -360.7071306319001565
  @DF-RHF Final Energy:  -360.86693300163830
    Total Energy =                       -360.8669330016384720
  @DF-RHF Final Energy:  -360.89431384107803
    Total Energy =                       -360.8943138410776328
  @DF-RHF Final Energy:  -360.90335961053444
    Total Energy =                       -360.9033596105341530
  @DF-RHF Final Energy:  -360.90665017195323
    Total Energy =                       -360.9066501719534017
  Basis Set: CC-PVTZ
  Basis Set:
  @DF-RHF Final Energy:  -360.90675612055855
    Total Energy =                       -360.9067561205587253
  Basis Set: CC-PVTZ
  Basis Set:
  Basis Set: CC-PVTZ
  Basis Set:
  @DF-RHF Final Energy:  -360.90675750689212
    Total Energy =                       -360.9067575068921769
  Basis Set: CC-PVTZ
  Basis Set:
  Basis Set: CC-PVTZ
  Basis Set:
  @DF-RHF Final Energy:  -360.90677189873298
    Total Energy =                       -360.9067718987328703
  Basis Set: CC-PVTZ
  Basis Set:
  Charge       = 0
  Multiplicity = 1
  Basis Set: CC-PVTZ
  Basis Set:

    Orbital Energies (a.u.)
    -----------------------

    Doubly Occupied:

       1A    -20.589781     2A    -20.589372     3A    -15.836088
       4A    -11.296350     5A    -11.251481     6A    -11.240853
       7A    -11.225325     8A     -1.635159     9A     -1.419373
      10A     -1.135412    11A     -1.059886    12A     -0.948589
      13A     -0.843815    14A     -0.828768    15A     -0.759184
      16A     -0.737265    17A     -0.728130    18A     -0.673967
      19A     -0.620343    20A     -0.606699    21A     -0.565259
      22A     -0.546951    23A     -0.514480    24A     -0.502929
      25A     -0.496011    26A     -0.484773    27A     -0.469976
      28A     -0.452738

  @DF-RHF Final Energy:  -360.90677234161342

   => Energetics <=

    Nuclear Repulsion Energy =            313.3058363559939608
    One-Electron Energy =               -1112.3072981109464763
    Two-Electron Energy =                 438.0946894133390970
    DFT Exchange-Correlation Energy =       0.0000000000000000
    Empirical Dispersion Energy =           0.0000000000000000
    PCM Polarization Energy =               0.0000000000000000
    EFP Energy =                            0.0000000000000000
    Total Energy =                       -360.9067723416134186
    Molecular point group: c1
  Basis Set: CC-PVTZ
  Basis Set:

  -Total Gradient:
     Atom            X                  Y                   Z
    ------   -----------------  -----------------  -----------------
       1       -0.000017028471     0.000075066857     0.000029569017
       2        0.001152934158     0.001907029283     0.002073878923
       3       -0.000813827096    -0.003278466202    -0.002335587473
       4       -0.000082398396    -0.000010023241    -0.000042900762
       5       -0.002687261472     0.004252176473    -0.001284873108
       6        0.000007256522     0.000010296222    -0.000003504645
       7        0.000010505786    -0.000020648663    -0.000036977770
       8       -0.000026443187     0.000006921347     0.000034090711
       9        0.002470530513    -0.002934536563     0.001596025271
      10       -0.000007375153    -0.000016375579    -0.000000583500
      11        0.000005369609     0.000002608131    -0.000029839554
      12       -0.000000424815     0.000032735726    -0.000008698355
      13        0.000003997923    -0.000020254833    -0.000022547605
      14       -0.000001165365     0.000018812990     0.000025324115
      15        0.000000532169    -0.000025969254     0.000010056914
      16       -0.000015202724     0.000000627304    -0.000003432179

  **** Optimization is complete! (in 14 steps) ****
    Final optimized geometry and variables:
    Molecular point group: c1

    Geometry (in Angstrom), charge = 0, multiplicity = 1:

    O           -2.341746427728    -0.130088949717    -0.536724044833
    N           -1.558730424419     0.225592675160     0.279050376270
    C           -0.359333254576    -0.626962218041     0.491771558569
    O           -1.635992157090     1.221351997466     0.917494140182
    C            0.756944715192    -0.203563121481    -0.467764772728
    H           -0.673383531280    -1.644458264571     0.334909943392
    H           -0.077389723555    -0.467070053817     1.518720563211
    C            2.136395211161    -0.462656406256     0.136888752580
    H            0.668347342580    -0.768225238699    -1.387300504232
    H            0.654925006460     0.848000396848    -0.704397191582
    C            3.268115887133    -0.127537861973    -0.827526144288
    H            2.211162654342    -1.505532203771     0.433111218533
    H            2.244963756476     0.124168122213     1.043470458288
    H            3.206479646224    -0.727710280565    -1.728572849372
    H            3.234107339291     0.915757509594    -1.121264739668
    H            4.233052604328    -0.312265134678    -0.371541880835

  Mulliken Charges: (a.u.)
   Center  Symbol    Alpha    Beta     Spin     Total
       1     O     4.17308  4.17308  0.00000 -0.34617
       2     N     3.27890  3.27890  0.00000  0.44220
       3     C     3.03901  3.03901  0.00000 -0.07803
       4     O     4.17328  4.17328  0.00000 -0.34655
       5     C     3.09677  3.09677  0.00000 -0.19355
       6     H     0.43235  0.43235  0.00000  0.13530
       7     H     0.43620  0.43620  0.00000  0.12760
       8     C     3.09294  3.09294  0.00000 -0.18587
       9     H     0.44209  0.44209  0.00000  0.11582
      10     H     0.43754  0.43754  0.00000  0.12491
      11     C     3.14920  3.14920  0.00000 -0.29839
      12     H     0.45117  0.45117  0.00000  0.09766
      13     H     0.44828  0.44828  0.00000  0.10345
      14     H     0.45272  0.45272  0.00000  0.09457
      15     H     0.45130  0.45130  0.00000  0.09739
      16     H     0.44517  0.44517  0.00000  0.10966

   Total alpha = 28.00000, Total beta = 28.00000, Total charge = -0.00000

*** Psi4 exiting successfully. Buy a developer a beer!
