  ==> Input File <==

--------------------------------------------------------------------------
set {
	reference rhf
	basis cc-pvtz
}

set_num_threads( 4 )
memory 2 gb

molecule MOL {
0 1

H	 3.721907	 -0.933076	 -0.066039
O	 2.824271	 -1.154299	 0.131461
C	 2.076458	 -0.067370	 -0.038225
C	 0.626018	 -0.337582	 0.258241
O	 2.538288	 0.965419	 -0.381593
C	 -0.267326	 0.883135	 0.076490
H	 0.325620	 -1.161483	 -0.378003
H	 0.574537	 -0.713685	 1.275261
C	 -1.726822	 0.642622	 0.463839
H	 -0.210803	 1.217591	 -0.953497
H	 0.129920	 1.693110	 0.675679
C	 -2.480891	 -0.340606	 -0.429852
H	 -2.243098	 1.597649	 0.438609
H	 -1.776542	 0.301208	 1.495542
C	 -3.716961	 0.278287	 -1.074504
H	 -1.811989	 -0.701097	 -1.206801
H	 -2.782445	 -1.212011	 0.142577
H	 -4.231756	 -0.438187	 -1.704054
H	 -3.451318	 1.130298	 -1.691116
H	 -4.419362	 0.622278	 -0.322535

	symmetry c1
}
set optking {
	frozen_dihedral = ("
		16 12 9 6
	")
}

ee = optimize('scf')
oeprop('DIPOLE', 'QUADRUPOLE', 'MULLIKEN_CHARGES')
f=open( 'psi4out.xyz', 'w' )
f.write( "20  " )
f.write( str(ee) + "\n" )
f.write( MOL.save_string_xyz() )
f.close()
--------------------------------------------------------------------------

    Molecular point group: c1
  Charge       = 0
  Multiplicity = 1
  Basis Set: CC-PVTZ
  Basis Set:
  @DF-RHF Final Energy:  -384.08947692496480
    Total Energy =                       -384.0894769249646288
    Molecular point group: c1
  Basis Set: CC-PVTZ
  Basis Set:
  Basis Set: CC-PVTZ
  Basis Set:
  @DF-RHF Final Energy:  -384.08975788798210
    Total Energy =                       -384.0897578879819321
  Basis Set: CC-PVTZ
  Basis Set:
  Basis Set: CC-PVTZ
  Basis Set:
  @DF-RHF Final Energy:  -384.08981317017009
    Total Energy =                       -384.0898131701694638
  Basis Set: CC-PVTZ
  Basis Set:
  Basis Set: CC-PVTZ
  Basis Set:
  @DF-RHF Final Energy:  -384.08987660707265
    Total Energy =                       -384.0898766070732222
  Basis Set: CC-PVTZ
  Basis Set:
  Basis Set: CC-PVTZ
  Basis Set:
  @DF-RHF Final Energy:  -384.08965150495999
    Total Energy =                       -384.0896515049603295
  Basis Set: CC-PVTZ
  Basis Set:
  Basis Set: CC-PVTZ
  Basis Set:
  @DF-RHF Final Energy:  -384.08990332050092
    Total Energy =                       -384.0899033205006390
  Basis Set: CC-PVTZ
  Basis Set:
  Charge       = 0
  Multiplicity = 1
  Basis Set: CC-PVTZ
  Basis Set:

    Orbital Energies (a.u.)
    -----------------------

    Doubly Occupied:

       1A    -20.603863     2A    -20.540476     3A    -11.373385
       4A    -11.238561     5A    -11.221397     6A    -11.218656
       7A    -11.217960     8A    -11.210640     9A     -1.477432
      10A     -1.368945    11A     -1.096506    12A     -1.040492
      13A     -0.961895    14A     -0.871104    15A     -0.818577
      16A     -0.776901    17A     -0.703654    18A     -0.692398
      19A     -0.668760    20A     -0.632445    21A     -0.606679
      22A     -0.594993    23A     -0.575600    24A     -0.566919
      25A     -0.528101    26A     -0.514590    27A     -0.503684
      28A     -0.484411    29A     -0.470029    30A     -0.462583
      31A     -0.458182    32A     -0.445961

  @DF-RHF Final Energy:  -384.08990399534554

   => Energetics <=

    Nuclear Repulsion Energy =            377.2449593323406702
    One-Electron Energy =               -1270.7781662719357882
    Two-Electron Energy =                 509.4433029442491261
    DFT Exchange-Correlation Energy =       0.0000000000000000
    Empirical Dispersion Energy =           0.0000000000000000
    PCM Polarization Energy =               0.0000000000000000
    EFP Energy =                            0.0000000000000000
    Total Energy =                       -384.0899039953460488
    Molecular point group: c1
  Basis Set: CC-PVTZ
  Basis Set:

  -Total Gradient:
     Atom            X                  Y                   Z
    ------   -----------------  -----------------  -----------------
       1        0.000000207903     0.000001514914     0.000001651372
       2       -0.000001273837    -0.000012653160    -0.000008316318
       3        0.000004926817     0.000022611870     0.000011613358
       4       -0.000009173129    -0.000011147432    -0.000021944619
       5       -0.000004812822    -0.000007299071     0.000009654092
       6       -0.000268277441     0.000703267227    -0.000554619189
       7        0.000000315729     0.000009524036     0.000011852265
       8        0.000010816474    -0.000000573041     0.000009996301
       9        0.000462208353    -0.001244423642     0.000912082187
      10       -0.000002186755     0.000009922440     0.000001283699
      11        0.000000073627    -0.000005899690     0.000000898121
      12       -0.000544953713     0.001494698159    -0.001084162836
      13       -0.000000489461    -0.000006534022    -0.000009218546
      14       -0.000004518064     0.000001528197     0.000013265543
      15        0.000003289366     0.000000166048    -0.000003319265
      16        0.000358495461    -0.000960530474     0.000703749003
      17       -0.000004283787     0.000007018294     0.000005451816
      18       -0.000000857703     0.000002386922    -0.000001214879
      19       -0.000001352184    -0.000000003598     0.000002185447
      20        0.000001845171    -0.000003573977    -0.000000887553

  **** Optimization is complete! (in 7 steps) ****
    Final optimized geometry and variables:
    Molecular point group: c1

    Geometry (in Angstrom), charge = 0, multiplicity = 1:

    H            3.679068269787    -1.047542162769     0.034927105097
    O            2.790411935860    -1.248912884885     0.286866035954
    C            2.039450684796    -0.171236860450     0.077006447442
    C            0.602857905819    -0.410493150505     0.455153011039
    O            2.488403564013     0.833092109829    -0.356370525833
    C           -0.293597029889     0.803170414847     0.245741542522
    H            0.264929299247    -1.268062332304    -0.115708227972
    H            0.595083976205    -0.726188990514     1.493582725576
    C           -1.752661780472     0.543014225221     0.623068191136
    H           -0.233297502860     1.122031881050    -0.788764559906
    H            0.091867205952     1.624966299941     0.837178496597
    C           -2.500368369626    -0.425755303980    -0.318782398640
    H           -2.267647503189     1.497523132617     0.627933186436
    H           -1.798201311469     0.178585937609     1.644888113208
    C           -3.747129444290     0.187301316823    -0.949192128800
    H           -1.835510651564    -0.761578806530    -1.108096978019
    H           -2.785619950340    -1.321780409186     0.222197563493
    H           -4.245426561167    -0.519246923325    -1.603197339794
    H           -3.495549796903     1.064038118204    -1.536731794467
    H           -4.457504647099     0.493632177758    -0.188666286137

  Mulliken Charges: (a.u.)
   Center  Symbol    Alpha    Beta     Spin     Total
       1     H     0.38241  0.38241  0.00000  0.23519
       2     O     4.16041  4.16041  0.00000 -0.32083
       3     C     2.80372  2.80372  0.00000  0.39257
       4     C     3.11153  3.11153  0.00000 -0.22305
       5     O     4.19113  4.19113  0.00000 -0.38226
       6     C     3.09234  3.09234  0.00000 -0.18467
       7     H     0.43647  0.43647  0.00000  0.12707
       8     H     0.43735  0.43735  0.00000  0.12531
       9     C     3.10554  3.10554  0.00000 -0.21107
      10     H     0.44485  0.44485  0.00000  0.11030
      11     H     0.44091  0.44091  0.00000  0.11818
      12     C     3.09125  3.09125  0.00000 -0.18251
      13     H     0.44567  0.44567  0.00000  0.10866
      14     H     0.44933  0.44933  0.00000  0.10134
      15     C     3.14699  3.14699  0.00000 -0.29397
      16     H     0.45459  0.45459  0.00000  0.09082
      17     H     0.44844  0.44844  0.00000  0.10311
      18     H     0.44929  0.44929  0.00000  0.10142
      19     H     0.45412  0.45412  0.00000  0.09176
      20     H     0.45368  0.45368  0.00000  0.09264

   Total alpha = 32.00000, Total beta = 32.00000, Total charge =  0.00000
