  ==> Input File <==

--------------------------------------------------------------------------
set {
	reference rhf
	basis 6-31G*
}

set_num_threads( 1 )
memory 2 gb

molecule MOL {
0 1

H	 1.136379	 0.211822	 1.465562
C	 1.135357	 0.094285	 0.374742
C	 0.065331	 0.871482	 -0.349150
O	 1.941633	 -0.601957	 -0.151457
C	 -1.259870	 0.101066	 -0.437378
H	 0.438470	 1.132387	 -1.332821
H	 -0.092907	 1.795277	 0.205579
C	 -1.176001	 -1.147144	 -1.316786
H	 -2.020849	 0.768873	 -0.828471
H	 -1.584504	 -0.175390	 0.563535
H	 -0.886840	 -0.889046	 -2.330836
H	 -2.134953	 -1.652819	 -1.361751
H	 -0.446316	 -1.857441	 -0.939390

	symmetry c1
}
set optking {
	frozen_dihedral = ("
		6 3 5 9
	")
}

ee = energy('scf')
oeprop('DIPOLE', 'QUADRUPOLE', 'MULLIKEN_CHARGES')
f=open( 'psi4out.xyz', 'w' )
f.write( "13  " )
f.write( str(ee) + "\n" )
f.write( MOL.save_string_xyz() )
f.close()
--------------------------------------------------------------------------

    Molecular point group: c1

    Geometry (in Angstrom), charge = 0, multiplicity = 1:

       Center              X                  Y                   Z               Mass
    ------------   -----------------  -----------------  -----------------  -----------------
           H          0.989291159788     0.368135105544     1.850805231989     1.007825032070
           C          0.988269159788     0.250598105544     0.759985231989    12.000000000000
           C         -0.081756840212     1.027795105544     0.036093231989    12.000000000000
           O          1.794545159788    -0.445643894456     0.233786231989    15.994914619560
           C         -1.406957840212     0.257379105544    -0.052134768011    12.000000000000
           H          0.291382159788     1.288700105544    -0.947577768011     1.007825032070
           H         -0.239994840212     1.951590105544     0.590822231989     1.007825032070
           C         -1.323088840212    -0.990830894456    -0.931542768011    12.000000000000
           H         -2.167936840212     0.925186105544    -0.443227768011     1.007825032070
           H         -1.731591840212    -0.019076894456     0.948778231989     1.007825032070
           H         -1.033927840212    -0.732732894456    -1.945592768011     1.007825032070
           H         -2.282040840212    -1.496505894456    -0.976507768011     1.007825032070
           H         -0.593403840212    -1.701127894456    -0.554146768011     1.007825032070

  Charge       = 0
  Multiplicity = 1
  Basis Set: 6-31G*
  Basis Set:

    Orbital Energies (a.u.)
    -----------------------

    Doubly Occupied:

       1A    -20.563989     2A    -11.327294     3A    -11.238443
       4A    -11.235503     5A    -11.215226     6A     -1.404012
       7A     -1.083878     8A     -0.971799     9A     -0.846550
      10A     -0.783694    11A     -0.673690    12A     -0.650477
      13A     -0.613290    14A     -0.593829    15A     -0.561060
      16A     -0.527909    17A     -0.504571    18A     -0.491064
      19A     -0.480531    20A     -0.409453

  @DF-RHF Final Energy:  -230.98348305554728

   => Energetics <=

    Nuclear Repulsion Energy =            175.2355279313080985
    One-Electron Energy =                -660.0854683879994127
    Two-Electron Energy =                 253.8664574011431796
    DFT Exchange-Correlation Energy =       0.0000000000000000
    Empirical Dispersion Energy =           0.0000000000000000
    PCM Polarization Energy =               0.0000000000000000
    EFP Energy =                            0.0000000000000000
    Total Energy =                       -230.9834830555481631

  Mulliken Charges: (a.u.)
   Center  Symbol    Alpha    Beta     Spin     Total
       1     H     0.43027  0.43027  0.00000  0.13946
       2     C     2.83894  2.83894  0.00000  0.32212
       3     C     3.20174  3.20174  0.00000 -0.40348
       4     O     4.23529  4.23529  0.00000 -0.47058
       5     C     3.16335  3.16335  0.00000 -0.32670
       6     H     0.40029  0.40029  0.00000  0.19942
       7     H     0.41409  0.41409  0.00000  0.17183
       8     C     3.24208  3.24208  0.00000 -0.48416
       9     H     0.41194  0.41194  0.00000  0.17612
      10     H     0.41811  0.41811  0.00000  0.16379
      11     H     0.41701  0.41701  0.00000  0.16598
      12     H     0.41787  0.41787  0.00000  0.16425
      13     H     0.40903  0.40903  0.00000  0.18195

   Total alpha = 20.00000, Total beta = 20.00000, Total charge = -0.00000
