                              Psi4 1.0.54 Driver

  ==> Input File <==

--------------------------------------------------------------------------
set {
	reference rhf
	basis cc-pvtz
}

set_num_threads( 4 )
memory 2 gb

molecule MOL {
0 1

H	 -0.366580	 2.045936	 -0.305741
C	 0.351829	 1.335402	 0.083179
N	 -0.000018	 0.000080	 -0.334836
H	 1.327156	 1.599860	 -0.305475
H	 0.380566	 1.445403	 1.171445
C	 -1.424639	 -0.154432	 -0.505016
C	 0.731385	 -0.408270	 -1.509800
H	 -1.658296	 -1.182815	 -0.749813
H	 -1.936204	 0.094114	 0.416240
H	 -1.828482	 0.481947	 -1.298112
H	 1.796000	 -0.345473	 -1.323157
H	 0.495254	 -1.436318	 -1.753692
H	 0.505177	 0.207436	 -2.385498

	symmetry c1
}
set optking {
	frozen_dihedral = ("
		6 3 2 1
	")
}

ee,wfn = optimize('scf', return_wfn=True)
oeprop( wfn, 'DIPOLE', 'QUADRUPOLE', 'MULLIKEN_CHARGES')
f=open( 'psi4out.xyz', 'w' )
f.write( "13  " )
f.write( str(ee) + "\n" )
f.write( MOL.save_string_xyz() )
f.close()
--------------------------------------------------------------------------

    Molecular point group: c1
  Charge       = 0
  Multiplicity = 1
  Basis Set: CC-PVTZ
  Basis Set:
  @DF-RHF Final Energy:  -173.32941854365893
    Total Energy =                       -173.3294185436588464
    Molecular point group: c1
  Basis Set: CC-PVTZ
  Basis Set:
  Basis Set: CC-PVTZ
  Basis Set:
  @DF-RHF Final Energy:  -173.33015270394279
    Total Energy =                       -173.3301527039428152
  Basis Set: CC-PVTZ
  Basis Set:
  Basis Set: CC-PVTZ
  Basis Set:
  @DF-RHF Final Energy:  -173.33024839017256
    Total Energy =                       -173.3302483901724429
  Basis Set: CC-PVTZ
  Basis Set:
  Basis Set: CC-PVTZ
  Basis Set:
  @DF-RHF Final Energy:  -173.33025237396041
    Total Energy =                       -173.3302523739604339
  Basis Set: CC-PVTZ
  Basis Set:
  Charge       = 0
  Multiplicity = 1
  Basis Set: CC-PVTZ
  Basis Set:

    Orbital Energies (a.u.)
    -----------------------

    Doubly Occupied:

       1A    -15.538785     2A    -11.234104     3A    -11.233989
       4A    -11.233921     5A     -1.224349     6A     -0.952016
       7A     -0.950845     8A     -0.807848     9A     -0.640872
      10A     -0.631038    11A     -0.628590    12A     -0.549288
      13A     -0.543740    14A     -0.516208    15A     -0.500904
      16A     -0.499540    17A     -0.348256

  @DF-RHF Final Energy:  -173.33025273282149

   => Energetics <=

    Nuclear Repulsion Energy =            139.2708343972322780
    One-Electron Energy =                -509.1335845365208570
    Two-Electron Energy =                 196.5324974064671153
    DFT Exchange-Correlation Energy =       0.0000000000000000
    Empirical Dispersion Energy =           0.0000000000000000
    PCM Polarization Energy =               0.0000000000000000
    EFP Energy =                            0.0000000000000000
    Total Energy =                       -173.3302527328214353
    Molecular point group: c1
  Basis Set: CC-PVTZ
  Basis Set:

  -Total Gradient:
     Atom            X                  Y                   Z
    ------   -----------------  -----------------  -----------------
       1       -0.003022140805    -0.000550207697     0.004341371541
       2        0.004037925153     0.001105360891    -0.007014751813
       3       -0.001397469163    -0.001614905347     0.006420579850
       4       -0.000015994486    -0.000022383524    -0.000002589590
       5       -0.000005631476     0.000003669339     0.000017008321
       6        0.000418500610     0.001067548828    -0.003789681729
       7       -0.000000616775     0.000015894615     0.000065746044
       8       -0.000006713947    -0.000005847860    -0.000001675715
       9       -0.000020844597    -0.000001749839     0.000001104917
      10        0.000004136618     0.000005274828    -0.000008309497
      11        0.000012995384    -0.000003406242    -0.000017842246
      12        0.000000876061    -0.000002972378    -0.000005119195
      13       -0.000005022577     0.000003724387    -0.000005840888

  **** Optimization is complete! (in 5 steps) ****
    Final optimized geometry and variables:
    Molecular point group: c1

    Geometry (in Angstrom), charge = 0, multiplicity = 1:

    H           -0.268338396872     1.886330306368     0.275355289455
    C            0.431106183028     1.145721121763     0.664498011555
    N            0.095870891307    -0.205743207819     0.254270153596
    H            1.431416133178     1.407369767949     0.349646082148
    H            0.393254408784     1.226836598935     1.746091870812
    C           -1.326326569951    -0.368037451015     0.066158606862
    C            0.825205922051    -0.624160370777    -0.921784659348
    H           -1.558668865628    -1.404768460214    -0.142476531124
    H           -1.854988122784    -0.085469848889     0.968623955362
    H           -1.714047863566     0.240916818424    -0.755530060616
    H            1.890328547750    -0.576348363037    -0.735876676092
    H            0.576578585839    -1.650814525714    -1.160168902395
    H            0.606052067539    -0.013359730773    -1.802854764382

  Mulliken Charges: (a.u.)
   Center  Symbol    Alpha    Beta     Spin     Total
       1     H     0.46946  0.46946  0.00000  0.06108
       2     C     3.08820  3.08820  0.00000 -0.17640
       3     N     3.59848  3.59848  0.00000 -0.19696
       4     H     0.45540  0.45540  0.00000  0.08921
       5     H     0.45075  0.45075  0.00000  0.09849
       6     C     3.09112  3.09112  0.00000 -0.18224
       7     C     3.08918  3.08918  0.00000 -0.17836
       8     H     0.45298  0.45298  0.00000  0.09404
       9     H     0.45212  0.45212  0.00000  0.09577
      10     H     0.47297  0.47297  0.00000  0.05407
      11     H     0.45229  0.45229  0.00000  0.09541
      12     H     0.45310  0.45310  0.00000  0.09381
      13     H     0.47396  0.47396  0.00000  0.05208

   Total alpha = 17.00000, Total beta = 17.00000, Total charge = -0.00000

*** Psi4 exiting successfully. Buy a developer a beer!
