  ==> Input File <==

--------------------------------------------------------------------------
set {
	reference rhf
	basis 6-31G*
}

set_num_threads( 4 )
memory 2 gb

molecule MOL {
0 1

O	 3.225979	 0.970355	 -0.599647
C	 2.701189	 0.057885	 -0.047330
C	 1.245376	 -0.013843	 0.345420
O	 3.347903	 -1.046386	 0.304773
C	 0.989645	 -0.937286	 1.534525
H	 0.918193	 1.001897	 0.541412
H	 0.690294	 -0.340752	 -0.530202
C	 -0.494322	 -1.102890	 1.879361
H	 1.529119	 -0.564966	 2.400241
H	 1.413759	 -1.910823	 1.313674
C	 -1.182967	 0.164909	 2.392747
H	 -0.579240	 -1.876275	 2.639221
H	 -1.029547	 -1.476800	 1.007733
C	 -2.630057	 -0.078023	 2.826238
H	 -0.617771	 0.563310	 3.233965
H	 -1.171159	 0.934918	 1.624685
C	 -3.329863	 1.183067	 3.336196
H	 -2.649472	 -0.838572	 3.604969
H	 -3.193167	 -0.486493	 1.988527
C	 -4.773283	 0.931112	 3.770657
H	 -2.767916	 1.593112	 4.172689
H	 -3.315310	 1.942957	 2.557649
H	 -5.242211	 1.843177	 4.126819
H	 -4.819213	 0.200494	 4.573330
H	 -5.370574	 0.552461	 2.945951
C	 4.728119	 -1.109107	 -0.004993
H	 4.882018	 -1.033965	 -1.071845
H	 5.068212	 -2.067527	 0.355250
H	 5.265056	 -0.311663	 0.488280

	symmetry c1
}
set optking {
	frozen_dihedral = ("
		6 3 2 1
	")
}

ee = optimize('scf')
oeprop('DIPOLE', 'QUADRUPOLE', 'MULLIKEN_CHARGES')
f=open( 'psi4out.xyz', 'w' )
f.write( "29  " )
f.write( str(ee) + "\n" )
f.write( MOL.save_string_xyz() )
f.close()
--------------------------------------------------------------------------

    Molecular point group: c1
  Charge       = 0
  Multiplicity = 1
  Basis Set: 6-31G*
  Basis Set:
  @DF-RHF Final Energy:  -501.04061987178102
    Total Energy =                       -501.0406198717818143
    Molecular point group: c1
  Basis Set: 6-31G*
  Basis Set:
  Basis Set: 6-31G*
  Basis Set:
  @DF-RHF Final Energy:  -501.04025315804006
    Total Energy =                       -501.0402531580411960
  Basis Set: 6-31G*
  Basis Set:
  Basis Set: 6-31G*
  Basis Set:
  @DF-RHF Final Energy:  -501.04091416919869
    Total Energy =                       -501.0409141691991408
  Basis Set: 6-31G*
  Basis Set:
  Basis Set: 6-31G*
  Basis Set:
  @DF-RHF Final Energy:  -501.04179220616049
    Total Energy =                       -501.0417922061601530
  Basis Set: 6-31G*
  Basis Set:
  Basis Set: 6-31G*
  Basis Set:
  @DF-RHF Final Energy:  -501.04182303816697
    Total Energy =                       -501.0418230381668536
  Basis Set: 6-31G*
  Basis Set:
  Basis Set: 6-31G*
  Basis Set:
  @DF-RHF Final Energy:  -501.04181832810445
    Total Energy =                       -501.0418183281041138
  Basis Set: 6-31G*
  Basis Set:
  Basis Set: 6-31G*
  Basis Set:
  @DF-RHF Final Energy:  -501.04183260633158
    Total Energy =                       -501.0418326063319228
  Basis Set: 6-31G*
  Basis Set:
  Charge       = 0
  Multiplicity = 1
  Basis Set: 6-31G*
  Basis Set:

    Orbital Energies (a.u.)
    -----------------------

    Doubly Occupied:

       1A    -20.605619     2A    -20.541179     3A    -11.371769
       4A    -11.281286     5A    -11.234590     6A    -11.223865
       7A    -11.220066     8A    -11.216890     9A    -11.216079
      10A    -11.215128    11A    -11.209212    12A     -1.469660
      13A     -1.360669    14A     -1.099856    15A     -1.067839
      16A     -1.018639    17A     -0.973642    18A     -0.932136
      19A     -0.864857    20A     -0.799465    21A     -0.790855
      22A     -0.773222    23A     -0.697412    24A     -0.681208
      25A     -0.671028    26A     -0.651303    27A     -0.628652
      28A     -0.605390    29A     -0.592191    30A     -0.578349
      31A     -0.562572    32A     -0.552372    33A     -0.536651
      34A     -0.531294    35A     -0.519950    36A     -0.512621
      37A     -0.497577    38A     -0.482464    39A     -0.472640
      40A     -0.464667    41A     -0.462890    42A     -0.453154
      43A     -0.443317    44A     -0.426022

  @DF-RHF Final Energy:  -501.04183229700732

   => Energetics <=

    Nuclear Repulsion Energy =            612.0838790750557337
    One-Electron Energy =               -1895.2309315400982541
    Two-Electron Energy =                 782.1052201680349754
    DFT Exchange-Correlation Energy =       0.0000000000000000
    Empirical Dispersion Energy =           0.0000000000000000
    PCM Polarization Energy =               0.0000000000000000
    EFP Energy =                            0.0000000000000000
    Total Energy =                       -501.0418322970076588
    Molecular point group: c1
  Basis Set: 6-31G*
  Basis Set:

  -Total Gradient:
     Atom            X                  Y                   Z
    ------   -----------------  -----------------  -----------------
       1       -0.000210093838    -0.000410077418    -0.000860551913
       2        0.000324394053     0.000665829486     0.001379176362
       3       -0.000388686496    -0.000128583748    -0.001431108273
       4        0.000057176475    -0.000056468680     0.000021004057
       5       -0.000026302682    -0.000064585805    -0.000025368493
       6        0.000256293772    -0.000054831162     0.000887789428
       7       -0.000010304713     0.000013006010    -0.000004555354
       8        0.000008431278     0.000013091651    -0.000039140808
       9       -0.000005023142     0.000018975492     0.000002451938
      10       -0.000024651040    -0.000005837945     0.000023039261
      11        0.000005704133    -0.000005396127     0.000047335609
      12        0.000037287776     0.000009318046    -0.000007289790
      13       -0.000004012422    -0.000015568818    -0.000002129237
      14       -0.000001776662     0.000009949853    -0.000001710785
      15       -0.000003462660    -0.000001869717     0.000023814369
      16        0.000007012905     0.000004543866     0.000003732317
      17       -0.000007591375     0.000006516408    -0.000024019921
      18        0.000006699992     0.000014107828     0.000009202847
      19        0.000000826464    -0.000015376456     0.000003072717
      20       -0.000001780618     0.000000832247    -0.000007319894
      21       -0.000001320980    -0.000008493526    -0.000002373414
      22        0.000000870473     0.000008786605     0.000000521398
      23        0.000000690627    -0.000000151826     0.000000342699
      24        0.000001336925    -0.000000707128    -0.000000335747
      25       -0.000001674073     0.000000515476     0.000000655742
      26       -0.000016086455     0.000010066209     0.000006116473
      27        0.000000376893    -0.000000785020    -0.000000746009
      28       -0.000006725216    -0.000003772618     0.000001232754
      29        0.000002390580    -0.000003033182    -0.000002838328

  **** Optimization is complete! (in 8 steps) ****
    Final optimized geometry and variables:
    Molecular point group: c1

    Geometry (in Angstrom), charge = 0, multiplicity = 1:

    O            2.755224563382     1.061975142958    -2.011075497835
    C            2.314854217182     0.117209536829    -1.437717482548
    C            0.860594085398    -0.021194817168    -1.045814364318
    O            3.048176338288    -0.939810004458    -1.120604011097
    C            0.574409619292    -0.929285240088     0.153201093327
    H            0.502442447510     0.986031142083    -0.879764451894
    H            0.343024651022    -0.395406918495    -1.926949836599
    C           -0.917537196736    -1.051457094617     0.484360409181
    H            1.108842277425    -0.558243598140     1.024525244967
    H            0.971648712205    -1.916578831368    -0.050373494470
    C           -1.574581795151     0.232599877817     0.998844799834
    H           -1.031981854555    -1.826129501339     1.239110122324
    H           -1.454005892458    -1.405581177515    -0.394676129576
    C           -3.034674226657     0.029330268778     1.408647801531
    H           -1.010401159276     0.605970051186     1.852144331117
    H           -1.528100288110     1.008776916433     0.238924621128
    C           -3.705079380892     1.307652985864     1.915164343567
    H           -3.088601895198    -0.734684391570     2.182432353140
    H           -3.596300731344    -0.357677964978     0.559851312327
    C           -5.162325170119     1.096021835509     2.324206232935
    H           -3.145171930293     1.695782439523     2.763383089542
    H           -3.654996308721     2.071312858166     1.141937094018
    H           -5.609743254881     2.019498909919     2.678535408117
    H           -5.243308668737     0.362245155161     3.121246993431
    H           -5.756815326986     0.740419233778     1.487320486360
    C            4.414668792488    -0.906883615127    -1.491930821314
    H            4.513905031534    -0.824066858810    -2.564538386278
    H            4.836115447370    -1.838229059430    -1.147094944384
    H            4.914891019716    -0.071952828531    -1.023231202756

  Mulliken Charges: (a.u.)
   Center  Symbol    Alpha    Beta     Spin     Total
       1     O     4.28879  4.28879  0.00000 -0.57758
       2     C     2.60557  2.60557  0.00000  0.78887
       3     C     3.21082  3.21082  0.00000 -0.42164
       4     O     4.30339  4.30339  0.00000 -0.60679
       5     C     3.15631  3.15631  0.00000 -0.31262
       6     H     0.39563  0.39563  0.00000  0.20874
       7     H     0.40111  0.40111  0.00000  0.19778
       8     C     3.15677  3.15677  0.00000 -0.31354
       9     H     0.41821  0.41821  0.00000  0.16358
      10     H     0.40720  0.40720  0.00000  0.18559
      11     C     3.15519  3.15519  0.00000 -0.31038
      12     H     0.41863  0.41863  0.00000  0.16274
      13     H     0.42304  0.42304  0.00000  0.15391
      14     C     3.15044  3.15044  0.00000 -0.30088
      15     H     0.42284  0.42284  0.00000  0.15433
      16     H     0.42165  0.42165  0.00000  0.15669
      17     C     3.15159  3.15159  0.00000 -0.30318
      18     H     0.42375  0.42375  0.00000  0.15250
      19     H     0.42377  0.42377  0.00000  0.15246
      20     C     3.23940  3.23940  0.00000 -0.47880
      21     H     0.42280  0.42280  0.00000  0.15439
      22     H     0.42262  0.42262  0.00000  0.15476
      23     H     0.41898  0.41898  0.00000  0.16205
      24     H     0.42181  0.42181  0.00000  0.15638
      25     H     0.42172  0.42172  0.00000  0.15655
      26     C     3.09242  3.09242  0.00000 -0.18484
      27     H     0.40856  0.40856  0.00000  0.18288
      28     H     0.40876  0.40876  0.00000  0.18248
      29     H     0.40822  0.40822  0.00000  0.18356

   Total alpha = 44.00000, Total beta = 44.00000, Total charge =  0.00000
