  ==> Input File <==

--------------------------------------------------------------------------
set {
	reference rhf
	basis 6-31G*
}

set_num_threads( 4 )
memory 2 gb

molecule MOL {
0 1

O	 3.225979	 0.970355	 -0.599647
C	 2.701189	 0.057885	 -0.047330
C	 1.245376	 -0.013843	 0.345420
O	 3.347903	 -1.046386	 0.304773
C	 0.733578	 -1.445106	 0.492612
H	 1.135004	 0.554077	 1.263285
H	 0.680267	 0.528052	 -0.408702
C	 -0.767382	 -1.536493	 0.788016
H	 1.293790	 -1.947558	 1.275442
H	 0.948884	 -1.985122	 -0.423056
C	 -1.192717	 -0.976107	 2.148224
H	 -1.057424	 -2.583420	 0.737584
H	 -1.323480	 -1.031449	 -0.000460
C	 -2.679117	 -1.189894	 2.441325
H	 -0.600495	 -1.448272	 2.930626
H	 -0.974250	 0.088117	 2.199921
C	 -3.116598	 -0.629237	 3.795727
H	 -2.903529	 -2.254567	 2.404649
H	 -3.271663	 -0.727198	 1.653606
C	 -4.601419	 -0.850224	 4.082386
H	 -2.524782	 -1.089802	 4.583938
H	 -2.897079	 0.435765	 3.832654
H	 -4.880879	 -0.442133	 5.048807
H	 -4.846501	 -1.908576	 4.087000
H	 -5.221552	 -0.371747	 3.329546
C	 4.728119	 -1.109107	 -0.004993
H	 4.882018	 -1.033965	 -1.071845
H	 5.068212	 -2.067527	 0.355250
H	 5.265056	 -0.311663	 0.488280

	symmetry c1
}
set optking {
	frozen_dihedral = ("
		6 3 2 1
	")
}

ee = optimize('scf')
oeprop('DIPOLE', 'QUADRUPOLE', 'MULLIKEN_CHARGES')
f=open( 'psi4out.xyz', 'w' )
f.write( "29  " )
f.write( str(ee) + "\n" )
f.write( MOL.save_string_xyz() )
f.close()
--------------------------------------------------------------------------

    Molecular point group: c1
  Charge       = 0
  Multiplicity = 1
  Basis Set: 6-31G*
  Basis Set:
  @DF-RHF Final Energy:  -501.04076109763469
    Total Energy =                       -501.0407610976346859
    Molecular point group: c1
  Basis Set: 6-31G*
  Basis Set:
  Basis Set: 6-31G*
  Basis Set:
  @DF-RHF Final Energy:  -501.04053453390782
    Total Energy =                       -501.0405345339074756
  Basis Set: 6-31G*
  Basis Set:
  Basis Set: 6-31G*
  Basis Set:
  @DF-RHF Final Energy:  -501.04085996334777
    Total Energy =                       -501.0408599633479980
  Basis Set: 6-31G*
  Basis Set:
  Basis Set: 6-31G*
  Basis Set:
  @DF-RHF Final Energy:  -501.04181156625691
    Total Energy =                       -501.0418115662573655
  Basis Set: 6-31G*
  Basis Set:
  Basis Set: 6-31G*
  Basis Set:
  @DF-RHF Final Energy:  -501.04183587886814
    Total Energy =                       -501.0418358788676869
  Basis Set: 6-31G*
  Basis Set:
  Basis Set: 6-31G*
  Basis Set:
  @DF-RHF Final Energy:  -501.04184439283279
    Total Energy =                       -501.0418443928328998
  Basis Set: 6-31G*
  Basis Set:
  Basis Set: 6-31G*
  Basis Set:
  @DF-RHF Final Energy:  -501.04184718800343
    Total Energy =                       -501.0418471880030893
  Basis Set: 6-31G*
  Basis Set:
  Charge       = 0
  Multiplicity = 1
  Basis Set: 6-31G*
  Basis Set:

    Orbital Energies (a.u.)
    -----------------------

    Doubly Occupied:

       1A    -20.605581     2A    -20.540818     3A    -11.371719
       4A    -11.281223     5A    -11.234648     6A    -11.224029
       7A    -11.220040     8A    -11.217560     9A    -11.216646
      10A    -11.215575    11A    -11.209630    12A     -1.469546
      13A     -1.360526    14A     -1.100245    15A     -1.068142
      16A     -1.018878    17A     -0.973800    18A     -0.932360
      19A     -0.865355    20A     -0.799773    21A     -0.791187
      22A     -0.773189    23A     -0.697046    24A     -0.682057
      25A     -0.669879    26A     -0.652140    27A     -0.629524
      28A     -0.605622    29A     -0.590106    30A     -0.576870
      31A     -0.569157    32A     -0.544003    33A     -0.540724
      34A     -0.531848    35A     -0.519916    36A     -0.513815
      37A     -0.500817    38A     -0.480291    39A     -0.472490
      40A     -0.463676    41A     -0.463217    42A     -0.454098
      43A     -0.444309    44A     -0.425764

  @DF-RHF Final Energy:  -501.04184692953470

   => Energetics <=

    Nuclear Repulsion Energy =            612.7049151707386727
    One-Electron Energy =               -1896.4578510676660699
    Two-Electron Energy =                 782.7110889673928114
    DFT Exchange-Correlation Energy =       0.0000000000000000
    Empirical Dispersion Energy =           0.0000000000000000
    PCM Polarization Energy =               0.0000000000000000
    EFP Energy =                            0.0000000000000000
    Total Energy =                       -501.0418469295344721
    Molecular point group: c1
  Basis Set: 6-31G*
  Basis Set:

  -Total Gradient:
     Atom            X                  Y                   Z
    ------   -----------------  -----------------  -----------------
       1        0.000236607019     0.000382251047     0.000812560361
       2       -0.000340285640    -0.000432817193    -0.001325212370
       3        0.000291160425    -0.000789666507     0.000881510809
       4       -0.000000143895     0.000003278253    -0.000026275041
       5        0.000021682779     0.000043509781     0.000079546647
       6       -0.000230883002     0.000723341813    -0.000385989183
       7       -0.000017184842    -0.000003423819     0.000006613078
       8       -0.000001967527     0.000011008915    -0.000029320054
       9       -0.000016276016     0.000008790216    -0.000010562044
      10        0.000027962340     0.000043698329    -0.000035930940
      11        0.000026683371    -0.000020302944     0.000006331538
      12        0.000025228159     0.000000105240     0.000004881813
      13       -0.000032678353    -0.000019665387    -0.000003072379
      14       -0.000011857401     0.000020089344    -0.000007565527
      15       -0.000015448432    -0.000003670139     0.000005249967
      16        0.000027009380     0.000009346368    -0.000000681990
      17       -0.000004343667     0.000004247986    -0.000002442953
      18        0.000007205640     0.000006522007     0.000002943522
      19       -0.000005646925    -0.000000773600    -0.000005295759
      20       -0.000000582215     0.000000851168     0.000002959659
      21        0.000001508768    -0.000000013240    -0.000000868808
      22       -0.000001613887    -0.000000471621     0.000000848122
      23       -0.000001519777    -0.000000529182     0.000000728006
      24       -0.000000220210    -0.000000067365     0.000000117702
      25        0.000000298383    -0.000000098901    -0.000000166695
      26        0.000026762019     0.000030796149     0.000053015760
      27       -0.000012332654    -0.000001075405    -0.000006552886
      28       -0.000009325028    -0.000004050946    -0.000006635422
      29        0.000010201180    -0.000011210371    -0.000010734934

  **** Optimization is complete! (in 8 steps) ****
    Final optimized geometry and variables:
    Molecular point group: c1

    Geometry (in Angstrom), charge = 0, multiplicity = 1:

    O            2.799081340291     1.689617651560    -1.798762935247
    C            2.339127709770     0.723166868616    -1.279471366222
    C            0.892359270697     0.608197308126    -0.855461717425
    O            3.061287614315    -0.344897705657    -0.974448904968
    C            0.337903976693    -0.813443708402    -0.738653113197
    H            0.819240627038     1.136348883818     0.091321872036
    H            0.321734677466     1.192048542120    -1.568901859171
    C           -1.167357975592    -0.858717497458    -0.452398094142
    H            0.874583779560    -1.351671987489     0.035189039814
    H            0.531378083891    -1.342732794430    -1.667358893243
    C           -1.579703741897    -0.302295969403     0.913375251686
    H           -1.491545217383    -1.894802657615    -0.518183840470
    H           -1.701564766294    -0.324721925334    -1.236488907275
    C           -3.074547919499    -0.467121984180     1.195289351221
    H           -1.009151444221    -0.805745703738     1.692417817047
    H           -1.324242408540     0.752638258632     0.980494230300
    C           -3.499958780383     0.091833316060     2.554229515294
    H           -3.336257314930    -1.522654232399     1.143882200379
    H           -3.645387231302     0.026162956088     0.410208560907
    C           -4.993395186570    -0.079851304218     2.829647933762
    H           -2.929615451634    -0.399234150947     3.339884105554
    H           -3.243082270266     1.147767204070     2.605732994843
    H           -5.264013687395     0.326050693572     3.799473314759
    H           -5.275900044834    -1.128813343470     2.819687954713
    H           -5.591520483730     0.429616092728     2.079386699559
    C            4.439175005066    -0.301796631261    -1.299943821687
    H            4.573385881936    -0.170854380849    -2.363845399921
    H            4.846136819236    -1.249839923315    -0.984486517706
    H            4.926708707986     0.508669712379    -0.777810075085

  Mulliken Charges: (a.u.)
   Center  Symbol    Alpha    Beta     Spin     Total
       1     O     4.28911  4.28911  0.00000 -0.57823
       2     C     2.60625  2.60625  0.00000  0.78749
       3     C     3.21014  3.21014  0.00000 -0.42028
       4     O     4.30332  4.30332  0.00000 -0.60664
       5     C     3.15497  3.15497  0.00000 -0.30993
       6     H     0.39830  0.39830  0.00000  0.20339
       7     H     0.39844  0.39844  0.00000  0.20311
       8     C     3.15657  3.15657  0.00000 -0.31315
       9     H     0.41109  0.41109  0.00000  0.17782
      10     H     0.41553  0.41553  0.00000  0.16894
      11     C     3.15554  3.15554  0.00000 -0.31107
      12     H     0.41866  0.41866  0.00000  0.16267
      13     H     0.42219  0.42219  0.00000  0.15563
      14     C     3.15041  3.15041  0.00000 -0.30081
      15     H     0.42292  0.42292  0.00000  0.15417
      16     H     0.42240  0.42240  0.00000  0.15521
      17     C     3.15159  3.15159  0.00000 -0.30317
      18     H     0.42360  0.42360  0.00000  0.15280
      19     H     0.42340  0.42340  0.00000  0.15320
      20     C     3.23941  3.23941  0.00000 -0.47882
      21     H     0.42299  0.42299  0.00000  0.15402
      22     H     0.42288  0.42288  0.00000  0.15425
      23     H     0.41903  0.41903  0.00000  0.16194
      24     H     0.42172  0.42172  0.00000  0.15657
      25     H     0.42154  0.42154  0.00000  0.15691
      26     C     3.09247  3.09247  0.00000 -0.18494
      27     H     0.40823  0.40823  0.00000  0.18354
      28     H     0.40873  0.40873  0.00000  0.18253
      29     H     0.40856  0.40856  0.00000  0.18287

   Total alpha = 44.00000, Total beta = 44.00000, Total charge =  0.00000
