                              Psi4 1.0.54 Driver

  ==> Input File <==

--------------------------------------------------------------------------
set {
	reference rhf
	basis cc-pvtz
}

set_num_threads( 4 )
memory 2 gb

molecule MOL {
0 1

H	 0.978375	 2.303130	 -0.954584
O	 1.243501	 1.918385	 -0.138416
C	 0.706474	 0.636793	 -0.025501
C	 -0.793473	 0.591216	 0.050087
H	 1.122272	 0.208623	 0.878980
H	 1.036284	 0.004291	 -0.847611
C	 -1.534243	 -0.493009	 -0.013340
H	 -1.266611	 1.552628	 0.164437
H	 -1.101195	 -1.466332	 -0.144046
H	 -2.604242	 -0.437780	 0.050785

	symmetry c1
}
set optking {
	frozen_dihedral = ("
		5 3 4 7
	")
}

ee,wfn = optimize('scf', return_wfn=True)
oeprop( wfn, 'DIPOLE', 'QUADRUPOLE', 'MULLIKEN_CHARGES')
f=open( 'psi4out.xyz', 'w' )
f.write( "10  " )
f.write( str(ee) + "\n" )
f.write( MOL.save_string_xyz() )
f.close()
--------------------------------------------------------------------------

    Molecular point group: c1
  Charge       = 0
  Multiplicity = 1
  Basis Set: CC-PVTZ
  Basis Set:
  @DF-RHF Final Energy:  -191.99499988813642
    Total Energy =                       -191.9949998881364763
    Molecular point group: c1
  Basis Set: CC-PVTZ
  Basis Set:
  Basis Set: CC-PVTZ
  Basis Set:
  @DF-RHF Final Energy:  -191.99536257030968
    Total Energy =                       -191.9953625703096520
  Basis Set: CC-PVTZ
  Basis Set:
  Basis Set: CC-PVTZ
  Basis Set:
  @DF-RHF Final Energy:  -191.99542150342376
    Total Energy =                       -191.9954215034237279
  Basis Set: CC-PVTZ
  Basis Set:
  Basis Set: CC-PVTZ
  Basis Set:
  @DF-RHF Final Energy:  -191.99542545487492
    Total Energy =                       -191.9954254548748622
  Basis Set: CC-PVTZ
  Basis Set:
  Charge       = 0
  Multiplicity = 1
  Basis Set: CC-PVTZ
  Basis Set:

    Orbital Energies (a.u.)
    -----------------------

    Doubly Occupied:

       1A    -20.554321     2A    -11.276930     3A    -11.230209
       4A    -11.219160     5A     -1.373590     6A     -1.065315
       7A     -0.923407     8A     -0.778350     9A     -0.706327
      10A     -0.633012    11A     -0.626492    12A     -0.594609
      13A     -0.527553    14A     -0.504304    15A     -0.450706
      16A     -0.368458

  @DF-RHF Final Energy:  -191.99542594522973

   => Energetics <=

    Nuclear Repulsion Energy =            117.1196192891130607
    One-Electron Energy =                -492.5645990121130353
    Two-Electron Energy =                 183.4495537777702623
    DFT Exchange-Correlation Energy =       0.0000000000000000
    Empirical Dispersion Energy =           0.0000000000000000
    PCM Polarization Energy =               0.0000000000000000
    EFP Energy =                            0.0000000000000000
    Total Energy =                       -191.9954259452296981
    Molecular point group: c1
  Basis Set: CC-PVTZ
  Basis Set:

  -Total Gradient:
     Atom            X                  Y                   Z
    ------   -----------------  -----------------  -----------------
       1       -0.000010439008    -0.000000987820     0.000000008626
       2        0.000023110525     0.000011193099    -0.000004152843
       3        0.000138615736     0.002941062343     0.002468355032
       4       -0.000174190872    -0.000419275886    -0.003933280293
       5       -0.000096503335    -0.002425071627    -0.000994187276
       6       -0.000001092199     0.000009610276     0.000002310364
       7        0.000133313635    -0.000097156738     0.002458196822
       8        0.000008320941    -0.000005908979    -0.000005767769
       9       -0.000012959559     0.000000123558     0.000002844659
      10       -0.000008175862    -0.000013588228     0.000005672677

  **** Optimization is complete! (in 5 steps) ****
    Final optimized geometry and variables:
    Molecular point group: c1

    Geometry (in Angstrom), charge = 0, multiplicity = 1:

    H            1.089319638267     1.486294633515    -0.989536394571
    O            1.293969064986     1.154795383078    -0.133955059563
    C            0.735143322390    -0.116323650270     0.032836086015
    C           -0.773278251785    -0.089685230711     0.097115219479
    H            1.134588323259    -0.511316413611     0.957145121836
    H            1.060288896817    -0.787603898353    -0.757212125708
    C           -1.545469186601    -1.153273012536     0.083908889921
    H           -1.208467409898     0.888041344391     0.214451196235
    H           -1.144470742540    -2.146645973819    -0.018430414499
    H           -2.611783865484    -1.071473796979     0.173149911697

  Mulliken Charges: (a.u.)
   Center  Symbol    Alpha    Beta     Spin     Total
       1     H     0.39245  0.39245  0.00000  0.21510
       2     O     4.20251  4.20251  0.00000 -0.40502
       3     C     2.94971  2.94971  0.00000  0.10058
       4     C     3.08756  3.08756  0.00000 -0.17513
       5     H     0.44962  0.44962  0.00000  0.10076
       6     H     0.46625  0.46625  0.00000  0.06750
       7     C     3.17493  3.17493  0.00000 -0.34985
       8     H     0.41698  0.41698  0.00000  0.16604
       9     H     0.43277  0.43277  0.00000  0.13446
      10     H     0.42721  0.42721  0.00000  0.14557

   Total alpha = 16.00000, Total beta = 16.00000, Total charge = -0.00000

*** Psi4 exiting successfully. Buy a developer a beer!
