  ==> Input File <==

--------------------------------------------------------------------------
set {
	reference rhf
	basis cc-pvtz
}

set_num_threads( 4 )
memory 2 gb

molecule MOL {
0 1

H	 -3.547847	 0.322501	 0.497368
O	 -3.097602	 -0.291129	 -0.054985
C	 -1.770543	 -0.100993	 -0.015462
C	 -1.190304	 0.893518	 0.762166
C	 -0.980709	 -0.938712	 -0.785249
H	 -1.809688	 1.539517	 1.356705
C	 0.175969	 1.045095	 0.765999
H	 -1.448243	 -1.699213	 -1.377762
C	 0.385890	 -0.773761	 -0.770287
H	 0.635828	 1.808533	 1.361652
C	 0.981121	 0.213562	 0.000000
H	 0.999617	 -1.423111	 -1.367113
C	 2.447402	 0.371303	 0.000000
O	 3.227427	 -0.521847	 0.000000
H	 2.796538	 1.409525	 0.000000

	symmetry c1
}
set optking {
	frozen_dihedral = ("
		7 11 13 14
	")
}

ee = optimize('scf')
oeprop('DIPOLE', 'QUADRUPOLE', 'MULLIKEN_CHARGES')
f=open( 'psi4out.xyz', 'w' )
f.write( "15  " )
f.write( str(ee) + "\n" )
f.write( MOL.save_string_xyz() )
f.close()
--------------------------------------------------------------------------

    Molecular point group: c1
  Charge       = 0
  Multiplicity = 1
  Basis Set: CC-PVTZ
  Basis Set:
  @DF-RHF Final Energy:  -418.43605167583723
    Total Energy =                       -418.4360516758373478
    Molecular point group: c1
  Basis Set: CC-PVTZ
  Basis Set:
  Basis Set: CC-PVTZ
  Basis Set:
  @DF-RHF Final Energy:  -418.43550307817605
    Total Energy =                       -418.4355030781757705
  Basis Set: CC-PVTZ
  Basis Set:
  Basis Set: CC-PVTZ
  Basis Set:
  @DF-RHF Final Energy:  -418.43687255226757
    Total Energy =                       -418.4368725522675732
  Basis Set: CC-PVTZ
  Basis Set:
  Basis Set: CC-PVTZ
  Basis Set:
  @DF-RHF Final Energy:  -418.43717602182625
    Total Energy =                       -418.4371760218263034
  Basis Set: CC-PVTZ
  Basis Set:
  Basis Set: CC-PVTZ
  Basis Set:
  @DF-RHF Final Energy:  -418.43718448454626
    Total Energy =                       -418.4371844845459236
  Basis Set: CC-PVTZ
  Basis Set:
  Basis Set: CC-PVTZ
  Basis Set:
  @DF-RHF Final Energy:  -418.43718689496552
    Total Energy =                       -418.4371868949656346
  Basis Set: CC-PVTZ
  Basis Set:
  Charge       = 0
  Multiplicity = 1
  Basis Set: CC-PVTZ
  Basis Set:

    Orbital Energies (a.u.)
    -----------------------

    Doubly Occupied:

       1A    -20.602255     2A    -20.550719     3A    -11.325229
       4A    -11.319118     5A    -11.258718     6A    -11.251396
       7A    -11.241767     8A    -11.238517     9A    -11.235332
      10A     -1.435012    11A     -1.406241    12A     -1.174313
      13A     -1.045199    14A     -1.039444    15A     -0.895560
      16A     -0.861253    17A     -0.806011    18A     -0.760139
      19A     -0.700730    20A     -0.690009    21A     -0.645876
      22A     -0.630821    23A     -0.612845    24A     -0.610368
      25A     -0.591496    26A     -0.562681    27A     -0.546847
      28A     -0.508255    29A     -0.492300    30A     -0.423217
      31A     -0.360398    32A     -0.330670

  @DF-RHF Final Energy:  -418.43718707055268

   => Energetics <=

    Nuclear Repulsion Energy =            402.2488604638692777
    One-Electron Energy =               -1367.0666254214552282
    Two-Electron Energy =                 546.3805778870328140
    DFT Exchange-Correlation Energy =       0.0000000000000000
    Empirical Dispersion Energy =           0.0000000000000000
    PCM Polarization Energy =               0.0000000000000000
    EFP Energy =                            0.0000000000000000
    Total Energy =                       -418.4371870705531364
    Molecular point group: c1
  Basis Set: CC-PVTZ
  Basis Set:

  -Total Gradient:
     Atom            X                  Y                   Z
    ------   -----------------  -----------------  -----------------
       1        0.000011757245    -0.000003960276    -0.000000643138
       2        0.000001038727    -0.000027900253     0.000029204669
       3       -0.000013591291     0.000078906097    -0.000099778084
       4        0.000024728657     0.000000565960     0.000023115260
       5       -0.000010567417    -0.000034238147     0.000065786112
       6       -0.000003216939    -0.000002863376     0.000000806881
       7        0.000069802048    -0.004314045492     0.004617531860
       8        0.000004108928     0.000002380343    -0.000006777781
       9       -0.000002429971     0.000052581595    -0.000061342101
      10       -0.000001408616     0.000027449518    -0.000004558902
      11       -0.000311877955     0.005969789975    -0.003185877320
      12       -0.000001207709    -0.000000127445     0.000001356204
      13        0.000601193280    -0.001326452666    -0.009130732760
      14       -0.000383959932    -0.000424372504     0.007743546132
      15        0.000015630948     0.000002286669     0.000008362968

  **** Optimization is complete! (in 7 steps) ****
    Final optimized geometry and variables:
    Molecular point group: c1

    Geometry (in Angstrom), charge = 0, multiplicity = 1:

    H           -3.544138954092     0.312957553324     0.556628348704
    O           -3.094969577148    -0.293510958725    -0.004469319342
    C           -1.769346696344    -0.081343833199     0.010577249237
    C           -1.186932092902     0.917363142515     0.768788519472
    C           -0.981091991062    -0.916387019071    -0.772303171253
    H           -1.795289463441     1.553505748501     1.384726118634
    C            0.183330559672     1.090194554198     0.727591205202
    H           -1.453407545876    -1.688351887501    -1.346447809307
    C            0.380612481370    -0.748760896679    -0.782590443322
    H            0.630803848494     1.872233624039     1.313328618051
    C            0.978107853134     0.273835689760    -0.052430423694
    H            0.999001501263    -1.408680489105    -1.358926893095
    C            2.452788013849     0.390118197323     0.028138364974
    O            3.198664458476    -0.529524509280     0.012729149271
    H            2.833054445959     1.406452887552     0.179616871656

  Mulliken Charges: (a.u.)
   Center  Symbol    Alpha    Beta     Spin     Total
       1     H     0.38603  0.38603  0.00000  0.22795
       2     O     4.16725  4.16725  0.00000 -0.33450
       3     C     2.84810  2.84810  0.00000  0.30380
       4     C     3.13312  3.13312  0.00000 -0.26625
       5     C     3.10195  3.10195  0.00000 -0.20391
       6     H     0.43215  0.43215  0.00000  0.13571
       7     C     3.07781  3.07781  0.00000 -0.15562
       8     H     0.41613  0.41613  0.00000  0.16774
       9     C     3.06542  3.06542  0.00000 -0.13083
      10     H     0.42190  0.42190  0.00000  0.15619
      11     C     2.98589  2.98589  0.00000  0.02821
      12     H     0.41205  0.41205  0.00000  0.17590
      13     C     2.92357  2.92357  0.00000  0.15286
      14     O     4.16925  4.16925  0.00000 -0.33851
      15     H     0.45937  0.45937  0.00000  0.08125

   Total alpha = 32.00000, Total beta = 32.00000, Total charge = -0.00000
