                              Psi4 1.0.54 Driver

  ==> Input File <==

--------------------------------------------------------------------------
set {
	reference rhf
	basis cc-pvtz
}

set_num_threads( 4 )
memory 2 gb

molecule MOL {
0 1

O	 1.623282	 -0.405975	 -0.117407
C	 0.576499	 0.134701	 -0.003900
C	 -0.765656	 -0.550508	 -0.002152
O	 0.447441	 1.444383	 0.130449
C	 -1.945526	 0.411052	 0.000603
H	 -0.794329	 -1.203792	 -0.868145
H	 -0.791555	 -1.205429	 0.862701
C	 -3.282915	 -0.321280	 0.002596
H	 -1.880300	 1.059126	 -0.864925
H	 -1.877207	 1.057892	 0.866807
H	 -3.388495	 -0.952755	 -0.873419
H	 -4.107811	 0.380864	 0.004116
H	 -3.385717	 -0.953283	 0.878571
C	 1.632001	 2.215569	 0.140429
H	 2.269341	 1.924338	 0.962036
H	 1.318390	 3.240096	 0.257404
H	 2.173398	 2.094565	 -0.786010

	symmetry c1
}
set optking {
	frozen_dihedral = ("
		1 2 3 6
	")
}

ee,wfn = optimize('scf', return_wfn=True)
oeprop( wfn, 'DIPOLE', 'QUADRUPOLE', 'MULLIKEN_CHARGES')
f=open( 'psi4out.xyz', 'w' )
f.write( "17  " )
f.write( str(ee) + "\n" )
f.write( MOL.save_string_xyz() )
f.close()
--------------------------------------------------------------------------

    Molecular point group: c1
  Charge       = 0
  Multiplicity = 1
  Basis Set: CC-PVTZ
  Basis Set:
  @DF-RHF Final Energy:  -345.03139434010899
    Total Energy =                       -345.0313943401086476
    Molecular point group: c1
  Basis Set: CC-PVTZ
  Basis Set:
  Basis Set: CC-PVTZ
  Basis Set:
  @DF-RHF Final Energy:  -345.03191209958055
    Total Energy =                       -345.0319120995804383
  Basis Set: CC-PVTZ
  Basis Set:
  Basis Set: CC-PVTZ
  Basis Set:
  @DF-RHF Final Energy:  -345.03277834091443
    Total Energy =                       -345.0327783409144899
  Basis Set: CC-PVTZ
  Basis Set:
  Basis Set: CC-PVTZ
  Basis Set:
  @DF-RHF Final Energy:  -345.03281927751323
    Total Energy =                       -345.0328192775132834
  Basis Set: CC-PVTZ
  Basis Set:
  Basis Set: CC-PVTZ
  Basis Set:
  @DF-RHF Final Energy:  -345.03279827229392
    Total Energy =                       -345.0327982722940305
  Basis Set: CC-PVTZ
  Basis Set:
  Charge       = 0
  Multiplicity = 1
  Basis Set: CC-PVTZ
  Basis Set:

    Orbital Energies (a.u.)
    -----------------------

    Doubly Occupied:

       1A    -20.599763     2A    -20.529644     3A    -11.365306
       4A    -11.279728     5A    -11.234580     6A    -11.224411
       7A    -11.215072     8A     -1.473838     9A     -1.364460
      10A     -1.084089    11A     -0.998444    12A     -0.944210
      13A     -0.832238    14A     -0.777240    15A     -0.698919
      16A     -0.687363    17A     -0.674319    18A     -0.639115
      19A     -0.597250    20A     -0.572962    21A     -0.559991
      22A     -0.531039    23A     -0.523666    24A     -0.519742
      25A     -0.490309    26A     -0.485316    27A     -0.455698
      28A     -0.433980

  @DF-RHF Final Energy:  -345.03283199255850

   => Energetics <=

    Nuclear Repulsion Energy =            314.8454079110603061
    One-Electron Energy =               -1094.1710987487567763
    Two-Electron Energy =                 434.2928588451378005
    DFT Exchange-Correlation Energy =       0.0000000000000000
    Empirical Dispersion Energy =           0.0000000000000000
    PCM Polarization Energy =               0.0000000000000000
    EFP Energy =                            0.0000000000000000
    Total Energy =                       -345.0328319925586698
    Molecular point group: c1
  Basis Set: CC-PVTZ
  Basis Set:

  -Total Gradient:
     Atom            X                  Y                   Z
    ------   -----------------  -----------------  -----------------
       1       -0.000111260174     0.000095454859     0.000272003258
       2        0.000136299112    -0.000180630278    -0.000416784680
       3        0.000110516347    -0.000178144472     0.000326489603
       4        0.000025911177     0.000146652201     0.000001943052
       5        0.000032752441    -0.000002325074    -0.000041811757
       6       -0.000116286067     0.000208858919    -0.000145721894
       7        0.000001722297    -0.000002002235     0.000000737843
       8       -0.000010066014    -0.000001502174    -0.000003720810
       9       -0.000005643453     0.000008449612     0.000006523592
      10        0.000022206452    -0.000018297345    -0.000007184810
      11       -0.000000972005     0.000004087129     0.000007549544
      12        0.000005113474    -0.000016745742     0.000003081368
      13        0.000001546067     0.000007756157    -0.000004586547
      14       -0.000050917964    -0.000045471049     0.000012354249
      15       -0.000019809515    -0.000001797522     0.000008974361
      16       -0.000003513236    -0.000016666018     0.000000544671
      17       -0.000017598937    -0.000007676969    -0.000020391042

  **** Optimization is complete! (in 6 steps) ****
    Final optimized geometry and variables:
    Molecular point group: c1

    Geometry (in Angstrom), charge = 0, multiplicity = 1:

    O            1.794791353358    -0.887731561036    -0.073034337539
    C            0.784284471635    -0.273238724220    -0.005438556213
    C           -0.578736122424    -0.926454811918    -0.015310039792
    O            0.746270266006     1.041922143089     0.097704803074
    C           -1.793527166218    -0.006580269394    -0.059612170516
    H           -0.577175546344    -1.602837420486    -0.862180922471
    H           -0.609596931762    -1.557538366575     0.866931917206
    C           -3.098767512275    -0.795232110079    -0.080001791907
    H           -1.737444216114     0.628105550364    -0.936445214313
    H           -1.780441069806     0.656077866313     0.797016383752
    H           -3.153303728507    -1.444752375111    -0.947216589140
    H           -3.952831054968    -0.129484529372    -0.111683553464
    H           -3.196704400093    -1.416793165015     0.803820307497
    C            1.984145312414     1.724489608244     0.126334207414
    H            2.574357222317     1.405775274525     0.972377964033
    H            1.743805266855     2.771735371588     0.211753748948
    H            2.540249864348     1.540981077659    -0.780742487098

  Mulliken Charges: (a.u.)
   Center  Symbol    Alpha    Beta     Spin     Total
       1     O     4.20483  4.20483  0.00000 -0.40967
       2     C     2.81232  2.81232  0.00000  0.37537
       3     C     3.08911  3.08911  0.00000 -0.17822
       4     O     4.14022  4.14022  0.00000 -0.28045
       5     C     3.07890  3.07890  0.00000 -0.15779
       6     H     0.43822  0.43822  0.00000  0.12356
       7     H     0.44038  0.44038  0.00000  0.11925
       8     C     3.15265  3.15265  0.00000 -0.30529
       9     H     0.44923  0.44923  0.00000  0.10153
      10     H     0.44805  0.44805  0.00000  0.10389
      11     H     0.45459  0.45459  0.00000  0.09083
      12     H     0.44603  0.44603  0.00000  0.10794
      13     H     0.45476  0.45476  0.00000  0.09048
      14     C     3.03711  3.03711  0.00000 -0.07423
      15     H     0.45331  0.45331  0.00000  0.09337
      16     H     0.44703  0.44703  0.00000  0.10595
      17     H     0.45326  0.45326  0.00000  0.09348

   Total alpha = 28.00000, Total beta = 28.00000, Total charge = -0.00000

*** Psi4 exiting successfully. Buy a developer a beer!
