                              Psi4 1.0.54 Driver

  ==> Input File <==

--------------------------------------------------------------------------
set {
	reference rhf
	basis cc-pvtz
}

set_num_threads( 4 )
memory 2 gb

molecule MOL {
0 1

H	 -2.123894	 -0.667238	 -0.609809
O	 -2.041679	 -0.058866	 0.103463
C	 -0.959304	 0.780994	 -0.094939
C	 0.354905	 0.037902	 -0.006215
H	 -0.985899	 1.279578	 -1.057596
H	 -0.969809	 1.529522	 0.682889
F	 1.071974	 0.465396	 1.017920
F	 0.141456	 -1.249706	 0.167288
F	 1.087097	 0.182276	 -1.084650

	symmetry c1
}
set optking {
	frozen_dihedral = ("
		7 4 3 5
	")
}

ee,wfn = optimize('scf', return_wfn=True)
oeprop( wfn, 'DIPOLE', 'QUADRUPOLE', 'MULLIKEN_CHARGES')
f=open( 'psi4out.xyz', 'w' )
f.write( "9  " )
f.write( str(ee) + "\n" )
f.write( MOL.save_string_xyz() )
f.close()
--------------------------------------------------------------------------

    Molecular point group: c1
  Charge       = 0
  Multiplicity = 1
  Basis Set: CC-PVTZ
  Basis Set:
  @DF-RHF Final Energy:  -450.83878110696230
    Total Energy =                       -450.8387811069621307
    Molecular point group: c1
  Basis Set: CC-PVTZ
  Basis Set:
  Basis Set: CC-PVTZ
  Basis Set:
  @DF-RHF Final Energy:  -450.83941174670900
    Total Energy =                       -450.8394117467089472
  Basis Set: CC-PVTZ
  Basis Set:
  Basis Set: CC-PVTZ
  Basis Set:
  @DF-RHF Final Energy:  -450.84008404145044
    Total Energy =                       -450.8400840414504955
  Basis Set: CC-PVTZ
  Basis Set:
  Basis Set: CC-PVTZ
  Basis Set:
  @DF-RHF Final Energy:  -450.84013484180940
    Total Energy =                       -450.8401348418093448
  Basis Set: CC-PVTZ
  Basis Set:
  Basis Set: CC-PVTZ
  Basis Set:
  @DF-RHF Final Energy:  -450.84013927751897
    Total Energy =                       -450.8401392775189152
  Basis Set: CC-PVTZ
  Basis Set:
  Charge       = 0
  Multiplicity = 1
  Basis Set: CC-PVTZ
  Basis Set:

    Orbital Energies (a.u.)
    -----------------------

    Doubly Occupied:

       1A    -26.340120     2A    -26.336254     3A    -26.335939
       4A    -20.582918     5A    -11.495672     6A    -11.309905
       7A     -1.747935     8A     -1.645248     9A     -1.640782
      10A     -1.406147    11A     -1.044796    12A     -0.930214
      13A     -0.836122    14A     -0.835317    15A     -0.813891
      16A     -0.729457    17A     -0.719454    18A     -0.704568
      19A     -0.671181    20A     -0.665200    21A     -0.647942
      22A     -0.631087    23A     -0.616500    24A     -0.528992
      25A     -0.484048

  @DF-RHF Final Energy:  -450.84013978534756

   => Energetics <=

    Nuclear Repulsion Energy =            276.5006362034364429
    One-Electron Energy =               -1175.2821697109345678
    Two-Electron Energy =                 447.9413937221504511
    DFT Exchange-Correlation Energy =       0.0000000000000000
    Empirical Dispersion Energy =           0.0000000000000000
    PCM Polarization Energy =               0.0000000000000000
    EFP Energy =                            0.0000000000000000
    Total Energy =                       -450.8401397853476738
    Molecular point group: c1
  Basis Set: CC-PVTZ
  Basis Set:

  -Total Gradient:
     Atom            X                  Y                   Z
    ------   -----------------  -----------------  -----------------
       1       -0.000024903827     0.000005676624    -0.000000909855
       2        0.000037754780    -0.000021562636    -0.000003941959
       3       -0.000808407683    -0.001712023581    -0.001378221770
       4       -0.000781049005    -0.001425704831     0.001551912904
       5        0.000858427482     0.001719709278     0.000889229811
       6        0.000011212847     0.000012117421    -0.000001335371
       7        0.000704577095     0.001265732101    -0.000973341883
       8       -0.000025037823     0.000135610954     0.000011336157
       9        0.000027426132     0.000020444671    -0.000094728032

  **** Optimization is complete! (in 6 steps) ****
    Final optimized geometry and variables:
    Molecular point group: c1

    Geometry (in Angstrom), charge = 0, multiplicity = 1:

    H           -2.126515803592    -0.744345974481    -0.581395781694
    O           -2.082058780282    -0.087931222260     0.090850227682
    C           -0.999904902265     0.750708058956    -0.102297711488
    C            0.358031516415     0.038214893577    -0.006060442269
    H           -1.030177992067     1.265312787836    -1.054903561756
    H           -1.031045782846     1.493595499137     0.678965089029
    F            1.057510821654     0.456783776881     1.027370139658
    F            0.232387852606    -1.264459905093     0.094961864760
    F            1.090582532266     0.276528891986    -1.079592536988

  Mulliken Charges: (a.u.)
   Center  Symbol    Alpha    Beta     Spin     Total
       1     H     0.38796  0.38796  0.00000  0.22409
       2     O     4.18460  4.18460  0.00000 -0.36920
       3     C     3.00844  3.00844  0.00000 -0.01688
       4     C     2.67753  2.67753  0.00000  0.64493
       5     H     0.46088  0.46088  0.00000  0.07823
       6     H     0.44812  0.44812  0.00000  0.10377
       7     F     4.61003  4.61003  0.00000 -0.22006
       8     F     4.60894  4.60894  0.00000 -0.21789
       9     F     4.61349  4.61349  0.00000 -0.22698

   Total alpha = 25.00000, Total beta = 25.00000, Total charge = -0.00000

*** Psi4 exiting successfully. Buy a developer a beer!
