                              Psi4 1.0.54 Driver

  ==> Input File <==

--------------------------------------------------------------------------
set {
	reference rhf
	basis cc-pvtz
}

set_num_threads( 4 )
memory 2 gb

molecule MOL {
0 1

H	 0.817127	 1.799155	 1.497638
C	 1.083002	 1.050590	 0.738824
C	 0.062554	 0.862911	 -0.350953
O	 2.109582	 0.469660	 0.815032
C	 -1.339253	 0.577611	 0.196911
H	 0.401069	 0.071887	 -1.007597
H	 0.041822	 1.788130	 -0.922454
C	 -1.813142	 -0.849710	 -0.061612
H	 -2.032833	 1.276441	 -0.256032
H	 -1.357249	 0.782269	 1.263793
H	 -1.839268	 -1.063526	 -1.124230
H	 -2.810118	 -1.001930	 0.334000
H	 -1.159274	 -1.579980	 0.402282

	symmetry c1
}
set optking {
	frozen_dihedral = ("
		6 3 5 9
	")
}

ee,wfn = optimize('scf', return_wfn=True)
oeprop( wfn, 'DIPOLE', 'QUADRUPOLE', 'MULLIKEN_CHARGES')
f=open( 'psi4out.xyz', 'w' )
f.write( "13  " )
f.write( str(ee) + "\n" )
f.write( MOL.save_string_xyz() )
f.close()
--------------------------------------------------------------------------

    Molecular point group: c1
  Charge       = 0
  Multiplicity = 1
  Basis Set: CC-PVTZ
  Basis Set:
  @DF-RHF Final Energy:  -231.06642053701520
    Total Energy =                       -231.0664205370151763
    Molecular point group: c1
  Basis Set: CC-PVTZ
  Basis Set:
  Basis Set: CC-PVTZ
  Basis Set:
  @DF-RHF Final Energy:  -231.06650398610364
    Total Energy =                       -231.0665039861036121
  Basis Set: CC-PVTZ
  Basis Set:
  Basis Set: CC-PVTZ
  Basis Set:
  @DF-RHF Final Energy:  -231.06294227936127
    Total Energy =                       -231.0629422793611525
  Basis Set: CC-PVTZ
  Basis Set:
  Basis Set: CC-PVTZ
  Basis Set:
  @DF-RHF Final Energy:  -231.06673959528104
    Total Energy =                       -231.0667395952811489
  Basis Set: CC-PVTZ
  Basis Set:
  Basis Set: CC-PVTZ
  Basis Set:
  @DF-RHF Final Energy:  -231.06680688372251
    Total Energy =                       -231.0668068837222791
  Basis Set: CC-PVTZ
  Basis Set:
  Basis Set: CC-PVTZ
  Basis Set:
  @DF-RHF Final Energy:  -231.06681570918749
    Total Energy =                       -231.0668157091874377
  Basis Set: CC-PVTZ
  Basis Set:
  Basis Set: CC-PVTZ
  Basis Set:
  @DF-RHF Final Energy:  -231.06681760093673
    Total Energy =                       -231.0668176009368722
  Basis Set: CC-PVTZ
  Basis Set:
  Charge       = 0
  Multiplicity = 1
  Basis Set: CC-PVTZ
  Basis Set:

    Orbital Energies (a.u.)
    -----------------------

    Doubly Occupied:

       1A    -20.552538     2A    -11.321869     3A    -11.237158
       4A    -11.234514     5A    -11.220012     6A     -1.407688
       7A     -1.085309     8A     -0.976067     9A     -0.842271
      10A     -0.794832    11A     -0.672287    12A     -0.649717
      13A     -0.630206    14A     -0.586894    15A     -0.560889
      16A     -0.542573    17A     -0.500350    18A     -0.498019
      19A     -0.482036    20A     -0.413132

  @DF-RHF Final Energy:  -231.06681846609752

   => Energetics <=

    Nuclear Repulsion Energy =            172.2656452438413908
    One-Electron Energy =                -654.2482051843328463
    Two-Electron Energy =                 250.9157414743939398
    DFT Exchange-Correlation Energy =       0.0000000000000000
    Empirical Dispersion Energy =           0.0000000000000000
    PCM Polarization Energy =               0.0000000000000000
    EFP Energy =                            0.0000000000000000
    Total Energy =                       -231.0668184660975157
    Molecular point group: c1
  Basis Set: CC-PVTZ
  Basis Set:

  -Total Gradient:
     Atom            X                  Y                   Z
    ------   -----------------  -----------------  -----------------
       1        0.000014009616    -0.000083661750    -0.000041630385
       2        0.000135260363     0.000039002520     0.000001434574
       3       -0.001280400098     0.002129100861    -0.002181841766
       4       -0.000110443132     0.000065857204    -0.000003493212
       5       -0.000133098118    -0.002417858531    -0.002096743268
       6        0.001056649477    -0.001375631386     0.002198844601
       7        0.000033328918    -0.000012103676     0.000001331087
       8       -0.000011654045    -0.000007308702     0.000005292623
       9        0.000284899971     0.001689559879     0.002149043450
      10        0.000006234361    -0.000018686516    -0.000033953895
      11       -0.000000830702    -0.000004981630     0.000033340044
      12        0.000025853244    -0.000004086653    -0.000016402916
      13       -0.000019809857     0.000000798382    -0.000015220938

  **** Optimization is complete! (in 8 steps) ****
    Final optimized geometry and variables:
    Molecular point group: c1

    Geometry (in Angstrom), charge = 0, multiplicity = 1:

    H            0.732711532574     1.347832262565     1.319548656545
    C            1.024764106070     0.632750845392     0.539221368929
    C            0.063822309011     0.520256788151    -0.614757881719
    O            2.028258175686     0.017477693611     0.645772949105
    C           -1.366962923037     0.178020388927    -0.145094022167
    H            0.455375459761    -0.235017966325    -1.282526117180
    H            0.076364529902     1.475049993156    -1.131333719434
    C           -1.765361547867    -1.262839372079    -0.444748476518
    H           -2.075360617272     0.864239580772    -0.592425817866
    H           -1.445859833403     0.349839980551     0.925061117706
    H           -1.762083228925    -1.453385318309    -1.511946668709
    H           -2.759519606805    -1.476390224014    -0.070582530785
    H           -1.077118449626    -1.961462567621     0.017873650899

  Mulliken Charges: (a.u.)
   Center  Symbol    Alpha    Beta     Spin     Total
       1     H     0.46579  0.46579  0.00000  0.06843
       2     C     2.90348  2.90348  0.00000  0.19303
       3     C     3.08814  3.08814  0.00000 -0.17627
       4     O     4.16478  4.16478  0.00000 -0.32956
       5     C     3.09581  3.09581  0.00000 -0.19162
       6     H     0.44367  0.44367  0.00000  0.11266
       7     H     0.44286  0.44286  0.00000  0.11428
       8     C     3.14491  3.14491  0.00000 -0.28982
       9     H     0.44561  0.44561  0.00000  0.10878
      10     H     0.45570  0.45570  0.00000  0.08859
      11     H     0.45257  0.45257  0.00000  0.09486
      12     H     0.44760  0.44760  0.00000  0.10480
      13     H     0.44908  0.44908  0.00000  0.10184

   Total alpha = 20.00000, Total beta = 20.00000, Total charge =  0.00000

*** Psi4 exiting successfully. Buy a developer a beer!
