                              Psi4 1.0.54 Driver

  ==> Input File <==

--------------------------------------------------------------------------
set {
	reference rhf
	basis cc-pvtz
}

set_num_threads( 4 )
memory 2 gb

molecule MOL {
0 1

H	 1.053240	 0.366103	 -4.236596
O	 1.987463	 0.360760	 -4.141583
C	 2.401010	 1.441256	 -3.347367
C	 2.067330	 1.272620	 -1.872611
H	 3.473731	 1.504919	 -3.470641
H	 1.977983	 2.371382	 -3.722020
C	 0.571528	 1.257907	 -1.565677
H	 2.522479	 0.352500	 -1.518527
H	 2.538191	 2.087685	 -1.328224
C	 0.275752	 1.120247	 -0.072893
H	 0.103078	 0.440543	 -2.103704
H	 0.118905	 2.176340	 -1.935674
C	 -1.206955	 1.174082	 0.299850
H	 0.703718	 0.189459	 0.291395
H	 0.791682	 1.916892	 0.455918
C	 -2.041121	 -0.006551	 -0.194127
H	 -1.284685	 1.222806	 1.382491
H	 -1.637357	 2.100148	 -0.074730
C	 -3.489218	 0.042606	 0.286507
H	 -1.583805	 -0.934020	 0.143706
H	 -2.033628	 -0.041311	 -1.279363
C	 -4.219984	 1.311773	 -0.139038
H	 -4.022855	 -0.824300	 -0.093339
H	 -3.510372	 -0.038577	 1.370031
H	 -4.244251	 1.405725	 -1.219696
H	 -5.244345	 1.313233	 0.215630
H	 -3.732090	 2.196311	 0.257073

	symmetry c1
}
set optking {
	frozen_dihedral = ("
		20 16 19 22
	")
}

ee,wfn = optimize('scf', return_wfn=True)
oeprop( wfn, 'DIPOLE', 'QUADRUPOLE', 'MULLIKEN_CHARGES')
f=open( 'psi4out.xyz', 'w' )
f.write( "27  " )
f.write( str(ee) + "\n" )
f.write( MOL.save_string_xyz() )
f.close()
--------------------------------------------------------------------------

    Molecular point group: c1
  Charge       = 0
  Multiplicity = 1
  Basis Set: CC-PVTZ
  Basis Set:
  @DF-RHF Final Energy:  -388.42504253204208
    Total Energy =                       -388.4250425320418572
    Molecular point group: c1
  Basis Set: CC-PVTZ
  Basis Set:
  Basis Set: CC-PVTZ
  Basis Set:
  @DF-RHF Final Energy:  -388.42555104151256
    Total Energy =                       -388.4255510415126764
  Basis Set: CC-PVTZ
  Basis Set:
  Basis Set: CC-PVTZ
  Basis Set:
  @DF-RHF Final Energy:  -388.42588986990489
    Total Energy =                       -388.4258898699047222
  Basis Set: CC-PVTZ
  Basis Set:
  Basis Set: CC-PVTZ
  Basis Set:
  @DF-RHF Final Energy:  -388.42590592652653
    Total Energy =                       -388.4259059265265250
  Basis Set: CC-PVTZ
  Basis Set:
  Basis Set: CC-PVTZ
  Basis Set:
  @DF-RHF Final Energy:  -388.42590086263993
    Total Energy =                       -388.4259008626399918
  Basis Set: CC-PVTZ
  Basis Set:
  Basis Set: CC-PVTZ
  Basis Set:
  @DF-RHF Final Energy:  -388.42591044873211
    Total Energy =                       -388.4259104487316563
  Basis Set: CC-PVTZ
  Basis Set:
  Charge       = 0
  Multiplicity = 1
  Basis Set: CC-PVTZ
  Basis Set:

    Orbital Energies (a.u.)
    -----------------------

    Doubly Occupied:

       1A    -20.545286     2A    -11.264925     3A    -11.216683
       4A    -11.214589     5A    -11.214360     6A    -11.213182
       7A    -11.212880     8A    -11.212210     9A    -11.207144
      10A     -1.363187    11A     -1.096227    12A     -1.061903
      13A     -1.010522    14A     -0.947407    15A     -0.893997
      16A     -0.828767    17A     -0.799889    18A     -0.768049
      19A     -0.696076    20A     -0.652209    21A     -0.631403
      22A     -0.615839    23A     -0.608920    24A     -0.591674
      25A     -0.581319    26A     -0.555168    27A     -0.537223
      28A     -0.525391    29A     -0.514799    30A     -0.496626
      31A     -0.483189    32A     -0.476269    33A     -0.469818
      34A     -0.456965    35A     -0.449929    36A     -0.442687
      37A     -0.425654

  @DF-RHF Final Energy:  -388.42591047061080

   => Energetics <=

    Nuclear Repulsion Energy =            463.7021178276986575
    One-Electron Energy =               -1445.6913302800123802
    Two-Electron Energy =                 593.5633019817026934
    DFT Exchange-Correlation Energy =       0.0000000000000000
    Empirical Dispersion Energy =           0.0000000000000000
    PCM Polarization Energy =               0.0000000000000000
    EFP Energy =                            0.0000000000000000
    Total Energy =                       -388.4259104706110293
    Molecular point group: c1
  Basis Set: CC-PVTZ
  Basis Set:

  -Total Gradient:
     Atom            X                  Y                   Z
    ------   -----------------  -----------------  -----------------
       1       -0.000002773696    -0.000001834156    -0.000001063601
       2       -0.000011727378     0.000002845009     0.000002579985
       3        0.000018211067    -0.000006189881     0.000005243448
       4       -0.000003745740     0.000015403086    -0.000000936662
       5        0.000002558950     0.000002708201     0.000000114722
       6       -0.000001671213    -0.000003430785     0.000001783113
       7       -0.000002506354    -0.000014059392     0.000002335763
       8        0.000000147079     0.000003641718    -0.000007096438
       9        0.000003284105     0.000001786443     0.000002548684
      10       -0.000000587742     0.000009979099    -0.000001753256
      11       -0.000005472520    -0.000003969768    -0.000007105653
      12        0.000001058489    -0.000006790317     0.000005242716
      13        0.000005482415     0.000007445511     0.000007998332
      14       -0.000003295687     0.000000814226     0.000000026411
      15        0.000004998381     0.000000825910    -0.000003600247
      16       -0.000422881789    -0.000551435783    -0.001199063022
      17        0.000001356697    -0.000000581429     0.000000675952
      18        0.000003553041     0.000001832909     0.000004709616
      19       -0.000389538793    -0.000501494515    -0.001115951533
      20        0.000461210525     0.000598921129     0.001320038648
      21       -0.000004265060    -0.000004966186     0.000000004583
      22        0.000344920137     0.000448958301     0.000986402633
      23       -0.000000955515    -0.000001769381     0.000000988198
      24        0.000005989450    -0.000000114692    -0.000003082802
      25        0.000000432798     0.000000612366     0.000000516120
      26       -0.000000005833     0.000000588566    -0.000001042083
      27       -0.000003775818     0.000000273811    -0.000000513629

  **** Optimization is complete! (in 7 steps) ****
    Final optimized geometry and variables:
    Molecular point group: c1

    Geometry (in Angstrom), charge = 0, multiplicity = 1:

    H            1.526278698085    -0.516901552115    -2.968026622588
    O            2.455327249329    -0.568357323440    -2.842305876759
    C            2.892403351103     0.477920483559    -2.015638229445
    C            2.499395276350     0.302572519354    -0.556437796839
    H            3.970591579920     0.491193554926    -2.101023674152
    H            2.527990179287     1.433277970635    -2.388285878546
    C            0.994578715277     0.351036433241    -0.301856860336
    H            2.899982148011    -0.642473711536    -0.202250913386
    H            2.986804075397     1.087064136957     0.017460452178
    C            0.640226190796     0.210025164672     1.177752684763
    H            0.509231610569    -0.438514022308    -0.865888389995
    H            0.596428788844     1.292757280128    -0.675756771147
    C           -0.850302284916     0.338037018076     1.498751420776
    H            1.005679310820    -0.746843313296     1.542310781745
    H            1.178228966694     0.971425283633     1.735705820047
    C           -1.720779830466    -0.785834120039     0.933348607303
    H           -0.965779297060     0.354329438061     2.579545962466
    H           -1.205195384992     1.300035004113     1.141893194859
    C           -3.164122145211    -0.786498990697     1.441883513884
    H           -1.265084124923    -1.735017726875     1.203285056772
    H           -1.728335879843    -0.741614428090    -0.151515549970
    C           -3.952184277707     0.486394052085     1.142199841660
    H           -3.682392264691    -1.633716427817     1.003498964073
    H           -3.161468508856    -0.956332751686     2.515457999646
    H           -3.951437228364     0.707148152524     0.079161124023
    H           -4.984680270696     0.379870926465     1.454656734736
    H           -3.543156416135     1.346036023467     1.658519469355

  Mulliken Charges: (a.u.)
   Center  Symbol    Alpha    Beta     Spin     Total
       1     H     0.39229  0.39229  0.00000  0.21542
       2     O     4.20555  4.20555  0.00000 -0.41109
       3     C     2.97986  2.97986  0.00000  0.04028
       4     C     3.08957  3.08957  0.00000 -0.17914
       5     H     0.44856  0.44856  0.00000  0.10287
       6     H     0.46975  0.46975  0.00000  0.06051
       7     C     3.10274  3.10274  0.00000 -0.20549
       8     H     0.45081  0.45081  0.00000  0.09839
       9     H     0.45519  0.45519  0.00000  0.08962
      10     C     3.09699  3.09699  0.00000 -0.19399
      11     H     0.45545  0.45545  0.00000  0.08909
      12     H     0.45376  0.45376  0.00000  0.09248
      13     C     3.10125  3.10125  0.00000 -0.20251
      14     H     0.45185  0.45185  0.00000  0.09629
      15     H     0.44810  0.44810  0.00000  0.10380
      16     C     3.09719  3.09719  0.00000 -0.19438
      17     H     0.44760  0.44760  0.00000  0.10479
      18     H     0.45149  0.45149  0.00000  0.09703
      19     C     3.08905  3.08905  0.00000 -0.17809
      20     H     0.44888  0.44888  0.00000  0.10223
      21     H     0.45363  0.45363  0.00000  0.09273
      22     C     3.15445  3.15445  0.00000 -0.30889
      23     H     0.44844  0.44844  0.00000  0.10312
      24     H     0.45410  0.45410  0.00000  0.09180
      25     H     0.45522  0.45522  0.00000  0.08956
      26     H     0.44566  0.44566  0.00000  0.10867
      27     H     0.45255  0.45255  0.00000  0.09489

   Total alpha = 37.00000, Total beta = 37.00000, Total charge = -0.00000

*** Psi4 exiting successfully. Buy a developer a beer!
