                              Psi4 1.0.54 Driver

  ==> Input File <==

--------------------------------------------------------------------------
set {
	reference rhf
	basis cc-pvtz
}

set_num_threads( 4 )
memory 2 gb

molecule MOL {
0 1

H	 1.214780	 -0.048286	 0.911490
C	 0.848385	 0.440008	 0.000011
C	 -0.623497	 0.751021	 0.000090
O	 1.593669	 0.681510	 -0.885129
C	 -1.523725	 -0.474323	 -0.000013
H	 -0.813143	 1.382932	 -0.864897
H	 -0.813071	 1.382716	 0.865253
H	 -1.342980	 -1.087348	 -0.873016
H	 -2.565269	 -0.177464	 0.000070
H	 -1.342898	 -1.087564	 0.872820

	symmetry c1
}
set optking {
	frozen_dihedral = ("
		4 2 3 6
	")
}

ee,wfn = optimize('scf', return_wfn=True)
oeprop( wfn, 'DIPOLE', 'QUADRUPOLE', 'MULLIKEN_CHARGES')
f=open( 'psi4out.xyz', 'w' )
f.write( "10  " )
f.write( str(ee) + "\n" )
f.write( MOL.save_string_xyz() )
f.close()
--------------------------------------------------------------------------

    Molecular point group: c1
  Charge       = 0
  Multiplicity = 1
  Basis Set: CC-PVTZ
  Basis Set:
  @DF-RHF Final Energy:  -192.02248053738055
    Total Energy =                       -192.0224805373804884
    Molecular point group: c1
  Basis Set: CC-PVTZ
  Basis Set:
  Basis Set: CC-PVTZ
  Basis Set:
  @DF-RHF Final Energy:  -192.02297450916546
    Total Energy =                       -192.0229745091654081
  Basis Set: CC-PVTZ
  Basis Set:
  Basis Set: CC-PVTZ
  Basis Set:
  @DF-RHF Final Energy:  -192.02165977144597
    Total Energy =                       -192.0216597714460249
  Basis Set: CC-PVTZ
  Basis Set:
  Basis Set: CC-PVTZ
  Basis Set:
  @DF-RHF Final Energy:  -192.02319952036484
    Total Energy =                       -192.0231995203648125
  Basis Set: CC-PVTZ
  Basis Set:
  Basis Set: CC-PVTZ
  Basis Set:
  @DF-RHF Final Energy:  -192.02321633817527
    Total Energy =                       -192.0232163381754162
  Basis Set: CC-PVTZ
  Basis Set:
  Charge       = 0
  Multiplicity = 1
  Basis Set: CC-PVTZ
  Basis Set:

    Orbital Energies (a.u.)
    -----------------------

    Doubly Occupied:

       1A    -20.553635     2A    -11.322640     3A    -11.238085
       4A    -11.232710     5A     -1.408479     6A     -1.067888
       7A     -0.905317     8A     -0.793296     9A     -0.679647
      10A     -0.644073    11A     -0.613090    12A     -0.572912
      13A     -0.544776    14A     -0.514068    15A     -0.500459
      16A     -0.414914

  @DF-RHF Final Energy:  -192.02321675080094

   => Energetics <=

    Nuclear Repulsion Energy =            117.8149702433152441
    One-Electron Energy =                -493.6643955740117349
    Two-Electron Energy =                 183.8262085798955354
    DFT Exchange-Correlation Energy =       0.0000000000000000
    Empirical Dispersion Energy =           0.0000000000000000
    PCM Polarization Energy =               0.0000000000000000
    EFP Energy =                            0.0000000000000000
    Total Energy =                       -192.0232167508009411
    Molecular point group: c1
  Basis Set: CC-PVTZ
  Basis Set:

  -Total Gradient:
     Atom            X                  Y                   Z
    ------   -----------------  -----------------  -----------------
       1        0.000008962538    -0.000001808370    -0.000005687873
       2        0.000212479825     0.001121060660     0.000480370191
       3       -0.000203854807    -0.001026909421    -0.000646215953
       4       -0.000114869362    -0.000680014616    -0.000268275625
       5        0.000015618453     0.000033818684     0.000020279892
       6        0.000111087780     0.000577410657     0.000397546290
       7       -0.000014726766    -0.000003291017     0.000014331961
       8        0.000000104733     0.000001738609     0.000001013480
       9       -0.000003187974    -0.000003348030     0.000000123318
      10       -0.000011614414    -0.000018657156     0.000006514318

  **** Optimization is complete! (in 6 steps) ****
    Final optimized geometry and variables:
    Molecular point group: c1

    Geometry (in Angstrom), charge = 0, multiplicity = 1:

    H            1.089233786547    -0.368968410074     1.181587267812
    C            0.752447654816     0.118977651511     0.257268144527
    C           -0.717697409960     0.431315078164     0.199661237704
    O            1.523818056401     0.340367848100    -0.610568091698
    C           -1.554205122344    -0.850144226028     0.179464188727
    H           -0.906850951549     1.039880959644    -0.673963885401
    H           -0.969860792126     1.013744604080     1.081779131279
    H           -1.348272180455    -1.432879488355    -0.710019421141
    H           -2.609860571612    -0.612487428996     0.189201675950
    H           -1.346598734553    -1.470894586882     1.044144700297

  Mulliken Charges: (a.u.)
   Center  Symbol    Alpha    Beta     Spin     Total
       1     H     0.46528  0.46528  0.00000  0.06944
       2     C     2.90064  2.90064  0.00000  0.19871
       3     C     3.08021  3.08021  0.00000 -0.16042
       4     O     4.16451  4.16451  0.00000 -0.32901
       5     C     3.15000  3.15000  0.00000 -0.29999
       6     H     0.44242  0.44242  0.00000  0.11515
       7     H     0.45214  0.45214  0.00000  0.09573
       8     H     0.44647  0.44647  0.00000  0.10707
       9     H     0.44469  0.44469  0.00000  0.11061
      10     H     0.45364  0.45364  0.00000  0.09272

   Total alpha = 16.00000, Total beta = 16.00000, Total charge = -0.00000

*** Psi4 exiting successfully. Buy a developer a beer!
