  ==> Input File <==

--------------------------------------------------------------------------
set {
	reference rhf
	basis cc-pvtz
}

set_num_threads( 4 )
memory 2 gb

molecule MOL {
0 1

H	 1.886657	 -0.033610	 -1.174039
O	 1.675515	 -0.612943	 -0.465627
C	 1.135873	 0.113391	 0.608264
C	 0.027642	 1.012027	 0.090274
H	 1.902972	 0.727968	 1.072615
H	 0.756163	 -0.561896	 1.370018
C	 -1.138737	 0.285728	 -0.581921
H	 0.464661	 1.708096	 -0.618252
H	 -0.340737	 1.603071	 0.925246
C	 -1.933983	 -0.631436	 0.343653
H	 -0.763151	 -0.285569	 -1.422081
H	 -1.808359	 1.035291	 -0.992333
H	 -2.789188	 -1.049673	 -0.174718
H	 -1.335629	 -1.461368	 0.700418
H	 -2.305435	 -0.092167	 1.209725

	symmetry c1
}
set optking {
	frozen_dihedral = ("
		1 2 3 4
	")
}

ee = optimize('scf')
oeprop('DIPOLE', 'QUADRUPOLE', 'MULLIKEN_CHARGES')
f=open( 'psi4out.xyz', 'w' )
f.write( "15  " )
f.write( str(ee) + "\n" )
f.write( MOL.save_string_xyz() )
f.close()
--------------------------------------------------------------------------

    Molecular point group: c1
  Charge       = 0
  Multiplicity = 1
  Basis Set: CC-PVTZ
  Basis Set:
  @DF-RHF Final Energy:  -232.23532146874760
    Total Energy =                       -232.2353214687476566
    Molecular point group: c1
  Basis Set: CC-PVTZ
  Basis Set:
  Basis Set: CC-PVTZ
  Basis Set:
  @DF-RHF Final Energy:  -232.23679424749764
    Total Energy =                       -232.2367942474976417
  Basis Set: CC-PVTZ
  Basis Set:
  Basis Set: CC-PVTZ
  Basis Set:
  @DF-RHF Final Energy:  -232.23713288834401
    Total Energy =                       -232.2371328883440924
  Basis Set: CC-PVTZ
  Basis Set:
  Basis Set: CC-PVTZ
  Basis Set:
  @DF-RHF Final Energy:  -232.23713554657937
    Total Energy =                       -232.2371355465796796
  Basis Set: CC-PVTZ
  Basis Set:
  Charge       = 0
  Multiplicity = 1
  Basis Set: CC-PVTZ
  Basis Set:

    Orbital Energies (a.u.)
    -----------------------

    Doubly Occupied:

       1A    -20.546351     2A    -11.265056     3A    -11.218244
       4A    -11.214705     5A    -11.206461     6A     -1.364334
       7A     -1.069615     8A     -0.973225     9A     -0.878564
      10A     -0.791150    11A     -0.675903    12A     -0.644877
      13A     -0.635832    14A     -0.584010    15A     -0.568126
      16A     -0.542285    17A     -0.506212    18A     -0.486212
      19A     -0.474129    20A     -0.457006    21A     -0.430841

  @DF-RHF Final Energy:  -232.23713579636970

   => Energetics <=

    Nuclear Repulsion Energy =            191.6548039236188004
    One-Electron Energy =                -694.7176004711379846
    Two-Electron Energy =                 270.8256607511494281
    DFT Exchange-Correlation Energy =       0.0000000000000000
    Empirical Dispersion Energy =           0.0000000000000000
    PCM Polarization Energy =               0.0000000000000000
    EFP Energy =                            0.0000000000000000
    Total Energy =                       -232.2371357963697278
    Molecular point group: c1
  Basis Set: CC-PVTZ
  Basis Set:

  -Total Gradient:
     Atom            X                  Y                   Z
    ------   -----------------  -----------------  -----------------
       1       -0.001115976423    -0.000190340885    -0.000453705092
       2        0.001569633920     0.000491680213     0.000547548980
       3       -0.000979458785    -0.000834868149     0.000062246677
       4        0.000528024208     0.000546958134    -0.000115803563
       5        0.000015328797    -0.000008619123    -0.000032125919
       6        0.000014784718     0.000015137832    -0.000009564407
       7        0.000021382476    -0.000017440633    -0.000006660888
       8       -0.000015694168    -0.000016679578     0.000009827293
       9       -0.000010238456     0.000007505946     0.000015169948
      10       -0.000014973671     0.000007808317     0.000001540819
      11        0.000011286631    -0.000000917691     0.000001290089
      12        0.000001869803    -0.000009426504    -0.000006299212
      13       -0.000005691480     0.000004774322     0.000003862485
      14       -0.000022663837     0.000005332394    -0.000024127905
      15        0.000002386271    -0.000000904596     0.000006800695

  **** Optimization is complete! (in 5 steps) ****
    Final optimized geometry and variables:
    Molecular point group: c1

    Geometry (in Angstrom), charge = 0, multiplicity = 1:

    H            1.952332713212    -0.107563829469    -1.150899599888
    O            1.728631917819    -0.657259609863    -0.421707906404
    C            1.141249922501     0.111556401294     0.594353030574
    C            0.013092477040     1.006542265084     0.100460911955
    H            1.893913208490     0.726240383507     1.082112200433
    H            0.781972557939    -0.593813081653     1.330454252515
    C           -1.153797342097     0.280297201875    -0.571475418208
    H            0.428992064657     1.729799705982    -0.598713773590
    H           -0.352834284039     1.583012116288     0.946553783082
    C           -1.939617390090    -0.642826680150     0.355814587831
    H           -0.783919068531    -0.291295067537    -1.415362432513
    H           -1.828086501921     1.027337711647    -0.978597770829
    H           -2.794364646153    -1.064987358618    -0.159769879906
    H           -1.334152753987    -1.468589197746     0.708749444603
    H           -2.310294192625    -0.105387293759     1.223090256951

  Mulliken Charges: (a.u.)
   Center  Symbol    Alpha    Beta     Spin     Total
       1     H     0.39411  0.39411  0.00000  0.21177
       2     O     4.20531  4.20531  0.00000 -0.41063
       3     C     2.97375  2.97375  0.00000  0.05249
       4     C     3.11281  3.11281  0.00000 -0.22562
       5     H     0.46107  0.46107  0.00000  0.07786
       6     H     0.45795  0.45795  0.00000  0.08410
       7     C     3.08019  3.08019  0.00000 -0.16038
       8     H     0.45222  0.45222  0.00000  0.09556
       9     H     0.45195  0.45195  0.00000  0.09611
      10     C     3.15451  3.15451  0.00000 -0.30901
      11     H     0.45345  0.45345  0.00000  0.09311
      12     H     0.44960  0.44960  0.00000  0.10080
      13     H     0.44651  0.44651  0.00000  0.10697
      14     H     0.45030  0.45030  0.00000  0.09939
      15     H     0.45625  0.45625  0.00000  0.08749

   Total alpha = 21.00000, Total beta = 21.00000, Total charge = -0.00000
