                              Psi4 1.0.54 Driver

  ==> Input File <==

--------------------------------------------------------------------------
set {
	reference rhf
	basis cc-pvtz
}

set_num_threads( 4 )
memory 2 gb

molecule MOL {
0 1

H	 -1.544511	 0.861424	 -2.852122
O	 -1.832103	 0.493980	 -2.036539
C	 -0.947566	 0.843930	 -1.009277
C	 0.351817	 0.069418	 -1.106882
H	 -0.737170	 1.908760	 -1.009338
H	 -1.438294	 0.607095	 -0.076122
O	 1.172093	 0.457955	 -0.054438
H	 0.835263	 0.272705	 -2.063883
H	 0.142890	 -0.997511	 -1.067045
C	 2.395478	 -0.199028	 -0.000366
H	 2.505946	 -0.901710	 -0.823354
H	 3.174616	 0.545641	 -0.071768
H	 2.513730	 -0.742241	 0.934223

	symmetry c1
}
set optking {
	frozen_dihedral = ("
		4 7 10 13
	")
}

ee,wfn = optimize('scf', return_wfn=True)
oeprop( wfn, 'DIPOLE', 'QUADRUPOLE', 'MULLIKEN_CHARGES')
f=open( 'psi4out.xyz', 'w' )
f.write( "13  " )
f.write( str(ee) + "\n" )
f.write( MOL.save_string_xyz() )
f.close()
--------------------------------------------------------------------------

    Molecular point group: c1
  Charge       = 0
  Multiplicity = 1
  Basis Set: CC-PVTZ
  Basis Set:
  @DF-RHF Final Energy:  -268.05823759029465
    Total Energy =                       -268.0582375902947661
    Molecular point group: c1
  Basis Set: CC-PVTZ
  Basis Set:
  Basis Set: CC-PVTZ
  Basis Set:
  @DF-RHF Final Energy:  -268.05861851261045
    Total Energy =                       -268.0586185126105647
  Basis Set: CC-PVTZ
  Basis Set:
  Basis Set: CC-PVTZ
  Basis Set:
  @DF-RHF Final Energy:  -268.05869782573768
    Total Energy =                       -268.0586978257375677
  Basis Set: CC-PVTZ
  Basis Set:
  Charge       = 0
  Multiplicity = 1
  Basis Set: CC-PVTZ
  Basis Set:

    Orbital Energies (a.u.)
    -----------------------

    Doubly Occupied:

       1A    -20.552500     2A    -20.552409     3A    -11.269735
       4A    -11.267344     5A    -11.266885     6A     -1.387492
       7A     -1.368303     8A     -1.019371     9A     -0.914259
      10A     -0.842413    11A     -0.711059    12A     -0.673361
      13A     -0.660744    14A     -0.638138    15A     -0.598078
      16A     -0.570150    17A     -0.550474    18A     -0.491251
      19A     -0.483090    20A     -0.441072    21A     -0.418982

  @DF-RHF Final Energy:  -268.05869843847859

   => Energetics <=

    Nuclear Repulsion Energy =            190.1564458403441051
    One-Electron Energy =                -743.0760698807933977
    Two-Electron Energy =                 284.8609256019706777
    DFT Exchange-Correlation Energy =       0.0000000000000000
    Empirical Dispersion Energy =           0.0000000000000000
    PCM Polarization Energy =               0.0000000000000000
    EFP Energy =                            0.0000000000000000
    Total Energy =                       -268.0586984384786433
    Molecular point group: c1
  Basis Set: CC-PVTZ
  Basis Set:

  -Total Gradient:
     Atom            X                  Y                   Z
    ------   -----------------  -----------------  -----------------
       1       -0.000018217793    -0.000005675448    -0.000012182981
       2       -0.000073037755     0.000024957760    -0.000064572199
       3        0.000015020263    -0.000042786006    -0.000038079017
       4       -0.000074968211    -0.000005955652     0.000049774610
       5       -0.000007067884     0.000003343989     0.000010681880
       6        0.000033929164     0.000001713063    -0.000001818667
       7        0.000149164989    -0.000048904107     0.000019247134
       8        0.000006428490     0.000016989544     0.000038545434
       9       -0.000008016745     0.000013744727    -0.000015983405
      10       -0.000043757247     0.000027092901     0.000003480238
      11       -0.000009039196     0.000001887983     0.000001355102
      12        0.000013722349     0.000000411728    -0.000002133678
      13        0.000015839579     0.000013179518     0.000011685550

  **** Optimization is complete! (in 4 steps) ****
    Final optimized geometry and variables:
    Molecular point group: c1

    Geometry (in Angstrom), charge = 0, multiplicity = 1:

    H           -1.823812536798     0.479171647349    -1.951423493070
    O           -2.084691824652     0.118370377072    -1.123980017129
    C           -1.175907630811     0.490401419002    -0.125692405332
    C            0.128402064737    -0.271676024378    -0.249723677589
    H           -0.977104652701     1.557286058592    -0.144430185796
    H           -1.637845034150     0.260202505411     0.823666899542
    O            0.970124881815     0.142514319459     0.777113870924
    H            0.580588263139    -0.074047511366    -1.222473709707
    H           -0.070152045118    -1.339132230104    -0.191115416411
    C            2.218277864557    -0.478651972444     0.844394909817
    H            2.348572804872    -1.211338425549     0.055192590620
    H            3.002246658467     0.264126874890     0.753453865319
    H            2.326307560765    -0.981797140083     1.798096356198

  Mulliken Charges: (a.u.)
   Center  Symbol    Alpha    Beta     Spin     Total
       1     H     0.39418  0.39418  0.00000  0.21165
       2     O     4.20213  4.20213  0.00000 -0.40427
       3     C     2.97535  2.97535  0.00000  0.04930
       4     C     2.96484  2.96484  0.00000  0.07031
       5     H     0.46705  0.46705  0.00000  0.06590
       6     H     0.45290  0.45290  0.00000  0.09421
       7     O     4.18057  4.18057  0.00000 -0.36114
       8     H     0.48167  0.48167  0.00000  0.03667
       9     H     0.46948  0.46948  0.00000  0.06105
      10     C     3.02703  3.02703  0.00000 -0.05407
      11     H     0.47134  0.47134  0.00000  0.05732
      12     H     0.45715  0.45715  0.00000  0.08570
      13     H     0.45631  0.45631  0.00000  0.08739

   Total alpha = 21.00000, Total beta = 21.00000, Total charge =  0.00000

*** Psi4 exiting successfully. Buy a developer a beer!
