  ==> Input File <==

--------------------------------------------------------------------------
set {
	reference rhf
	basis 6-31G*
}

set_num_threads( 4 )
memory 2 gb

molecule MOL {
0 1

H	 -1.836216	 1.387520	 -0.000064
C	 -1.301823	 0.443321	 -0.000031
O	 -0.003969	 0.658512	 0.000451
O	 -1.829879	 -0.616434	 -0.000857
C	 0.643524	 0.766635	 -1.266928
C	 2.114059	 1.011152	 -1.006048
H	 0.193072	 1.579160	 -1.820294
H	 0.480126	 -0.147198	 -1.821459
H	 2.258067	 1.926102	 -0.442876
H	 2.645086	 1.100239	 -1.948017
H	 2.546665	 0.191463	 -0.444043

	symmetry c1
}
set optking {
	frozen_dihedral = ("
		5 3 2 4
	")
}

ee = optimize('scf')
oeprop('DIPOLE', 'QUADRUPOLE', 'MULLIKEN_CHARGES')
f=open( 'psi4out.xyz', 'w' )
f.write( "11  " )
f.write( str(ee) + "\n" )
f.write( MOL.save_string_xyz() )
f.close()
--------------------------------------------------------------------------

    Molecular point group: c1
  Charge       = 0
  Multiplicity = 1
  Basis Set: 6-31G*
  Basis Set:
  @DF-RHF Final Energy:  -266.80810770491888
    Total Energy =                       -266.8081077049188252
    Molecular point group: c1
  Basis Set: 6-31G*
  Basis Set:
  Basis Set: 6-31G*
  Basis Set:
  @DF-RHF Final Energy:  -266.80810079462378
    Total Energy =                       -266.8081007946237833
  Basis Set: 6-31G*
  Basis Set:
  Basis Set: 6-31G*
  Basis Set:
  @DF-RHF Final Energy:  -266.80774324273989
    Total Energy =                       -266.8077432427398321
  Basis Set: 6-31G*
  Basis Set:
  Basis Set: 6-31G*
  Basis Set:
  @DF-RHF Final Energy:  -266.80933672552851
    Total Energy =                       -266.8093367255285102
  Basis Set: 6-31G*
  Basis Set:
  Basis Set: 6-31G*
  Basis Set:
  @DF-RHF Final Energy:  -266.80935548864090
    Total Energy =                       -266.8093554886409606
  Basis Set: 6-31G*
  Basis Set:
  Charge       = 0
  Multiplicity = 1
  Basis Set: 6-31G*
  Basis Set:

    Orbital Energies (a.u.)
    -----------------------

    Doubly Occupied:

       1A    -20.592436     2A    -20.571734     3A    -11.381307
       4A    -11.301946     5A    -11.228767     6A     -1.466677
       7A     -1.378890     8A     -1.049172     9A     -0.887814
      10A     -0.827988    11A     -0.740500    12A     -0.689247
      13A     -0.647582    14A     -0.638126    15A     -0.563703
      16A     -0.541420    17A     -0.534763    18A     -0.503512
      19A     -0.464751    20A     -0.453419

  @DF-RHF Final Energy:  -266.80935587414956

   => Energetics <=

    Nuclear Repulsion Energy =            177.0493518955312027
    One-Electron Energy =                -714.7899027212786223
    Two-Electron Energy =                 270.9311949515979450
    DFT Exchange-Correlation Energy =       0.0000000000000000
    Empirical Dispersion Energy =           0.0000000000000000
    PCM Polarization Energy =               0.0000000000000000
    EFP Energy =                            0.0000000000000000
    Total Energy =                       -266.8093558741494462
    Molecular point group: c1
  Basis Set: 6-31G*
  Basis Set:

  -Total Gradient:
     Atom            X                  Y                   Z
    ------   -----------------  -----------------  -----------------
       1        0.000156280425     0.000001516092    -0.000083271828
       2       -0.000090195320     0.000046845426    -0.001242213968
       3        0.000034646678    -0.000954464359     0.000407841935
       4        0.000046352135     0.000110548647     0.000891095465
       5       -0.000133522614     0.000763316368     0.000060781410
       6        0.000024076481     0.000017094163    -0.000013699202
       7        0.000051858289     0.000018927070    -0.000060945638
       8       -0.000106370623     0.000033644099     0.000036586751
       9       -0.000009868721    -0.000006972174    -0.000005284857
      10        0.000014737045    -0.000028005789     0.000004403190
      11        0.000012006224    -0.000002449542     0.000004706742

  **** Optimization is complete! (in 6 steps) ****
    Final optimized geometry and variables:
    Molecular point group: c1

    Geometry (in Angstrom), charge = 0, multiplicity = 1:

    H           -1.836251643746     0.908802077477     0.465630271249
    C           -1.247678808405    -0.006446316894     0.449976253797
    O            0.072846993975     0.222845575555     0.465091479153
    O           -1.735437701470    -1.077654902092     0.452817264491
    C            0.714553680394     0.320528163494    -0.801909950642
    C            2.189818730841     0.550170717158    -0.557072063413
    H            0.281687822131     1.143803079154    -1.363489516374
    H            0.544725613633    -0.596631280181    -1.352875748335
    H            2.344700436748     1.466515435397     0.000209351027
    H            2.716009371488     0.625930985042    -1.503017495121
    H            2.609682529764    -0.272483181009     0.009041125836

  Mulliken Charges: (a.u.)
   Center  Symbol    Alpha    Beta     Spin     Total
       1     H     0.42415  0.42415  0.00000  0.15171
       2     C     2.73168  2.73168  0.00000  0.53663
       3     O     4.30329  4.30329  0.00000 -0.60657
       4     O     4.22692  4.22692  0.00000 -0.45383
       5     C     3.00474  3.00474  0.00000 -0.00947
       6     C     3.24688  3.24688  0.00000 -0.49377
       7     H     0.42143  0.42143  0.00000  0.15714
       8     H     0.40952  0.40952  0.00000  0.18096
       9     H     0.40958  0.40958  0.00000  0.18084
      10     H     0.41616  0.41616  0.00000  0.16769
      11     H     0.40566  0.40566  0.00000  0.18868

   Total alpha = 20.00000, Total beta = 20.00000, Total charge =  0.00000
