  ==> Input File <==

--------------------------------------------------------------------------
set {
	reference rhf
	basis 6-31G*
}

set_num_threads( 4 )
memory 2 gb

molecule MOL {
0 1

O	 -0.682937	 1.318834	 -0.186099
C	 -0.860635	 0.152188	 -0.042321
C	 -2.173363	 -0.477127	 0.338347
O	 0.083258	 -0.765189	 -0.202595
H	 -2.477673	 -1.180929	 -0.427595
H	 -2.923125	 0.290956	 0.455536
H	 -2.058825	 -1.029004	 1.264191
C	 0.561275	 -1.023266	 -1.520812
C	 1.637558	 -0.033345	 -1.926171
H	 -0.269477	 -1.003579	 -2.209727
H	 0.956780	 -2.027689	 -1.473821
H	 2.034082	 -0.300739	 -2.900850
H	 1.235805	 0.970323	 -1.986285
H	 2.453690	 -0.043463	 -1.211860

	symmetry c1
}
set optking {
	frozen_dihedral = ("
		8 4 2 1
	")
}

ee = optimize('scf')
oeprop('DIPOLE', 'QUADRUPOLE', 'MULLIKEN_CHARGES')
f=open( 'psi4out.xyz', 'w' )
f.write( "14  " )
f.write( str(ee) + "\n" )
f.write( MOL.save_string_xyz() )
f.close()
--------------------------------------------------------------------------

    Molecular point group: c1
  Charge       = 0
  Multiplicity = 1
  Basis Set: 6-31G*
  Basis Set:
  @DF-RHF Final Energy:  -305.85731589824229
    Total Energy =                       -305.8573158982422910
    Molecular point group: c1
  Basis Set: 6-31G*
  Basis Set:
  Basis Set: 6-31G*
  Basis Set:
  @DF-RHF Final Energy:  -305.85523865254481
    Total Energy =                       -305.8552386525451539
  Basis Set: 6-31G*
  Basis Set:
  Basis Set: 6-31G*
  Basis Set:
  @DF-RHF Final Energy:  -305.85833710124547
    Total Energy =                       -305.8583371012454108
  Basis Set: 6-31G*
  Basis Set:
  Basis Set: 6-31G*
  Basis Set:
  @DF-RHF Final Energy:  -305.85849928307198
    Total Energy =                       -305.8584992830720353
  Basis Set: 6-31G*
  Basis Set:
  Basis Set: 6-31G*
  Basis Set:
  @DF-RHF Final Energy:  -305.85851364209736
    Total Energy =                       -305.8585136420973640
  Basis Set: 6-31G*
  Basis Set:
  Basis Set: 6-31G*
  Basis Set:
  @DF-RHF Final Energy:  -305.85851895848305
    Total Energy =                       -305.8585189584832733
  Basis Set: 6-31G*
  Basis Set:
  Basis Set: 6-31G*
  Basis Set:
  @DF-RHF Final Energy:  -305.85851999457310
    Total Energy =                       -305.8585199945732711
  Basis Set: 6-31G*
  Basis Set:
  Charge       = 0
  Multiplicity = 1
  Basis Set: 6-31G*
  Basis Set:

    Orbital Energies (a.u.)
    -----------------------

    Doubly Occupied:

       1A    -20.585079     2A    -20.555844     3A    -11.378206
       4A    -11.295135     5A    -11.236062     6A    -11.215830
       7A     -1.458948     8A     -1.365761     9A     -1.048926
      10A     -1.002787    11A     -0.879702    12A     -0.770684
      13A     -0.693744    14A     -0.681250    15A     -0.659708
      16A     -0.608767    17A     -0.586791    18A     -0.577880
      19A     -0.559939    20A     -0.536916    21A     -0.509885
      22A     -0.491175    23A     -0.449683    24A     -0.437052

  @DF-RHF Final Energy:  -305.85852004665168

   => Energetics <=

    Nuclear Repulsion Energy =            247.3448327809705347
    One-Electron Energy =                -907.2351964963628461
    Two-Electron Energy =                 354.0318436687407484
    DFT Exchange-Correlation Energy =       0.0000000000000000
    Empirical Dispersion Energy =           0.0000000000000000
    PCM Polarization Energy =               0.0000000000000000
    EFP Energy =                            0.0000000000000000
    Total Energy =                       -305.8585200466516199
    Molecular point group: c1
  Basis Set: 6-31G*
  Basis Set:

  -Total Gradient:
     Atom            X                  Y                   Z
    ------   -----------------  -----------------  -----------------
       1        0.001719172294     0.000841856115     0.006746684172
       2       -0.004397945001    -0.003211887328    -0.010207854202
       3        0.000049869832    -0.000143567860    -0.000055999888
       4        0.006285373084     0.006572895128     0.003991760690
       5        0.000005889279     0.000031781506    -0.000001405167
       6       -0.000017904320     0.000006243244     0.000024867994
       7       -0.000003834297     0.000042792670     0.000002723056
       8       -0.003679013072    -0.004123596409    -0.000514609926
       9        0.000002533709    -0.000056924421    -0.000021109107
      10        0.000025854822     0.000030307670     0.000046360602
      11        0.000015733282    -0.000031497435    -0.000001462040
      12        0.000011050598     0.000030746081     0.000008773425
      13       -0.000035096331     0.000025555315    -0.000014578322
      14        0.000018316122    -0.000014704279    -0.000004151289

  **** Optimization is complete! (in 8 steps) ****
    Final optimized geometry and variables:
    Molecular point group: c1

    Geometry (in Angstrom), charge = 0, multiplicity = 1:

    O           -0.547919795173     1.446734307118     0.329331017968
    C           -0.677168623616     0.285465602564     0.516737699748
    C           -1.941245797720    -0.363653810611     1.010389836399
    O            0.337578206294    -0.592107659441     0.393710197365
    H           -2.272028359012    -1.110901484038     0.296542021128
    H           -2.712627847843     0.378543649365     1.153746296466
    H           -1.738009374208    -0.876800699671     1.943534256076
    C            0.831857887700    -0.856536876365    -0.917261371857
    C            1.965272932669     0.078065955211    -1.296465921941
    H            0.016844712498    -0.787814404112    -1.630289378664
    H            1.167015961652    -1.883621462829    -0.890438244750
    H            2.352042559009    -0.187561885310    -2.276174270339
    H            1.625726736809     1.105232108696    -1.321010729409
    H            2.771363721494    -0.000527416316    -0.575873047306

  Mulliken Charges: (a.u.)
   Center  Symbol    Alpha    Beta     Spin     Total
       1     O     4.25705  4.25705  0.00000 -0.51410
       2     C     2.62648  2.62648  0.00000  0.74704
       3     C     3.28329  3.28329  0.00000 -0.56659
       4     O     4.31705  4.31705  0.00000 -0.63410
       5     H     0.40612  0.40612  0.00000  0.18775
       6     H     0.39793  0.39793  0.00000  0.20413
       7     H     0.39757  0.39757  0.00000  0.20486
       8     C     3.00559  3.00559  0.00000 -0.01117
       9     C     3.24777  3.24777  0.00000 -0.49553
      10     H     0.42068  0.42068  0.00000  0.15865
      11     H     0.40795  0.40795  0.00000  0.18409
      12     H     0.42234  0.42234  0.00000  0.15532
      13     H     0.39890  0.39890  0.00000  0.20220
      14     H     0.41128  0.41128  0.00000  0.17743

   Total alpha = 24.00000, Total beta = 24.00000, Total charge = -0.00000
