                              Psi4 1.0.54 Driver

  ==> Input File <==

--------------------------------------------------------------------------
set {
	reference rhf
	basis cc-pvtz
}

set_num_threads( 4 )
memory 2 gb

molecule MOL {
0 1

O	 -1.746929	 -0.049588	 2.430249
C	 -0.793317	 0.617871	 2.192439
C	 0.470245	 0.002045	 1.624798
C	 -0.793915	 2.110370	 2.423122
C	 0.376695	 -0.140025	 0.100361
H	 0.588660	 -0.975793	 2.074156
H	 1.333232	 0.604929	 1.886807
C	 1.630207	 -0.772146	 -0.501001
H	 -0.497277	 -0.735268	 -0.132207
H	 0.219056	 0.837102	 -0.349829
C	 2.907848	 -0.545876	 0.309149
H	 1.772784	 -0.391628	 -1.509394
H	 1.468529	 -1.842059	 -0.599744
C	 3.373802	 0.906639	 0.372125
H	 3.699140	 -1.146831	 -0.127906
H	 2.764321	 -0.923458	 1.318191
H	 3.519798	 1.311927	 -0.623875
H	 4.316899	 0.983758	 0.900700
H	 2.661122	 1.540651	 0.885346
H	 -0.108819	 2.346739	 3.231065
H	 -1.786127	 2.446352	 2.682355
H	 -0.442064	 2.634258	 1.541458

	symmetry c1
}
set optking {
	frozen_dihedral = ("
		3 5 8 12
	")
}

ee,wfn = optimize('scf', return_wfn=True)
oeprop( wfn, 'DIPOLE', 'QUADRUPOLE', 'MULLIKEN_CHARGES')
f=open( 'psi4out.xyz', 'w' )
f.write( "22  " )
f.write( str(ee) + "\n" )
f.write( MOL.save_string_xyz() )
f.close()
--------------------------------------------------------------------------

    Molecular point group: c1
  Charge       = 0
  Multiplicity = 1
  Basis Set: CC-PVTZ
  Basis Set:
  @DF-RHF Final Energy:  -348.21248393577952
    Total Energy =                       -348.2124839357795167
    Molecular point group: c1
  Basis Set: CC-PVTZ
  Basis Set:
  Basis Set: CC-PVTZ
  Basis Set:
  @DF-RHF Final Energy:  -348.16976804414867
    Total Energy =                       -348.1697680441486682
  Basis Set: CC-PVTZ
  Basis Set:
  Basis Set: CC-PVTZ
  Basis Set:
  @DF-RHF Final Energy:  -348.21014645371133
    Total Energy =                       -348.2101464537110473
  Basis Set: CC-PVTZ
  Basis Set:
  Basis Set: CC-PVTZ
  Basis Set:
  @DF-RHF Final Energy:  -348.21652662313676
    Total Energy =                       -348.2165266231366445
  Basis Set: CC-PVTZ
  Basis Set:
  @DF-RHF Final Energy:  -348.21665014683975
    Total Energy =                       -348.2166501468394699
  @DF-RHF Final Energy:  -348.21636702102035
    Total Energy =                       -348.2163670210205169
  @DF-RHF Final Energy:  -348.21679548374794
    Total Energy =                       -348.2167954837477737
  Basis Set: CC-PVTZ
  Basis Set:
  @DF-RHF Final Energy:  -348.21669092648460
    Total Energy =                       -348.2166909264844321
  Basis Set: CC-PVTZ
  Basis Set:
  Basis Set: CC-PVTZ
  Basis Set:
  @DF-RHF Final Energy:  -348.21678969632421
    Total Energy =                       -348.2167896963242129
  Basis Set: CC-PVTZ
  Basis Set:
  Basis Set: CC-PVTZ
  Basis Set:
  @DF-RHF Final Energy:  -348.21680329795419
    Total Energy =                       -348.2168032979541863
  Basis Set: CC-PVTZ
  Basis Set:
  Charge       = 0
  Multiplicity = 1
  Basis Set: CC-PVTZ
  Basis Set:

    Orbital Energies (a.u.)
    -----------------------

    Doubly Occupied:

       1A    -20.536570     2A    -11.319245     3A    -11.228661
       4A    -11.227214     5A    -11.227010     6A    -11.221286
       7A    -11.220235     8A    -11.214407     9A     -1.396833
      10A     -1.096413    11A     -1.043877    12A     -0.999636
      13A     -0.944271    14A     -0.864351    15A     -0.779560
      16A     -0.735034    17A     -0.664766    18A     -0.655912
      19A     -0.623538    20A     -0.615037    21A     -0.606990
      22A     -0.577714    23A     -0.564080    24A     -0.552082
      25A     -0.535196    26A     -0.522180    27A     -0.510473
      28A     -0.492700    29A     -0.467467    30A     -0.460798
      31A     -0.457115    32A     -0.399412

  @DF-RHF Final Energy:  -348.21680393852830

   => Energetics <=

    Nuclear Repulsion Energy =            381.1976332968904444
    One-Electron Energy =               -1227.3087511719800204
    Two-Electron Energy =                 497.8943139365609341
    DFT Exchange-Correlation Energy =       0.0000000000000000
    Empirical Dispersion Energy =           0.0000000000000000
    PCM Polarization Energy =               0.0000000000000000
    EFP Energy =                            0.0000000000000000
    Total Energy =                       -348.2168039385286420
    Molecular point group: c1
  Basis Set: CC-PVTZ
  Basis Set:

  -Total Gradient:
     Atom            X                  Y                   Z
    ------   -----------------  -----------------  -----------------
       1       -0.000001548890    -0.000021850238    -0.000013609713
       2       -0.000014295049     0.000058511890    -0.000044217586
       3        0.001105124096     0.005378940738    -0.001126248661
       4       -0.000018888029    -0.000024319767     0.000076474403
       5       -0.001205797932    -0.006295553405     0.002122323374
       6       -0.000000267484     0.000013478466     0.000003147597
       7        0.000006997229    -0.000022244804    -0.000024139548
       8       -0.001681945955    -0.006019019208    -0.003330303259
       9       -0.000009276645     0.000018655791     0.000024704632
      10       -0.000001933099     0.000009065077     0.000008954597
      11        0.000011029433     0.000027689635    -0.000028271056
      12        0.001783439612     0.006899008645     0.002366883715
      13       -0.000009429247     0.000003886544     0.000001708924
      14        0.000009112391    -0.000038352809    -0.000000071913
      15        0.000023807368    -0.000005669588    -0.000006211720
      16       -0.000005603863    -0.000005532113     0.000004493582
      17        0.000023763743     0.000003847112    -0.000032202151
      18        0.000009375430     0.000008938773     0.000028311230
      19       -0.000043778596     0.000015689532     0.000006980161
      20        0.000003535716     0.000008880808    -0.000023448249
      21        0.000009029296    -0.000000766219    -0.000001257744
      22        0.000007550465    -0.000013284858    -0.000014000612

  **** Optimization is complete! (in 11 steps) ****
    Final optimized geometry and variables:
    Molecular point group: c1

    Geometry (in Angstrom), charge = 0, multiplicity = 1:

    O           -2.586781064948    -0.912366233292     0.685941480122
    C           -1.840230855609     0.005241831133     0.577711774633
    C           -0.338080227124    -0.204001888567     0.565767019504
    C           -2.343168317494     1.421793641593     0.432308389622
    C            0.130180109180    -0.594606954605    -0.843743022957
    H           -0.118950809062    -0.999689821652     1.267230219949
    H            0.163079854449     0.693509366289     0.901241580732
    C            1.629028673597    -0.931146791306    -0.993224394302
    H           -0.454399356441    -1.442100575723    -1.178044768761
    H           -0.114427309481     0.223051551083    -1.515950429187
    C            2.604490109899    -0.201099934051    -0.061887076074
    H            1.929934046107    -0.665307379637    -2.001784797688
    H            1.768688585823    -1.999003066608    -0.873404686974
    C            2.756543864987     1.288385926383    -0.363663560133
    H            3.577021113857    -0.671319265997    -0.167992308640
    H            2.320768976244    -0.341379238818     0.975351065052
    H            3.123592510366     1.440592770013    -1.373357268905
    H            3.461915943531     1.752499484391     0.316065238682
    H            1.818095269446     1.823780747984    -0.275811498213
    H           -2.076850210516     1.988153819848     1.319008376378
    H           -3.415454087599     1.425187618413     0.311190714098
    H           -1.871951931691     1.910247264817    -0.413343684115

  Mulliken Charges: (a.u.)
   Center  Symbol    Alpha    Beta     Spin     Total
       1     O     4.17736  4.17736  0.00000 -0.35471
       2     C     2.85721  2.85721  0.00000  0.28558
       3     C     3.10501  3.10501  0.00000 -0.21002
       4     C     3.15717  3.15717  0.00000 -0.31433
       5     C     3.11504  3.11504  0.00000 -0.23008
       6     H     0.43734  0.43734  0.00000  0.12532
       7     H     0.44464  0.44464  0.00000  0.11071
       8     C     3.09724  3.09724  0.00000 -0.19449
       9     H     0.43243  0.43243  0.00000  0.13514
      10     H     0.44902  0.44902  0.00000  0.10196
      11     C     3.10232  3.10232  0.00000 -0.20463
      12     H     0.45032  0.45032  0.00000  0.09935
      13     H     0.44238  0.44238  0.00000  0.11524
      14     C     3.15015  3.15015  0.00000 -0.30029
      15     H     0.44181  0.44181  0.00000  0.11638
      16     H     0.45035  0.45035  0.00000  0.09929
      17     H     0.45234  0.45234  0.00000  0.09532
      18     H     0.44569  0.44569  0.00000  0.10861
      19     H     0.45784  0.45784  0.00000  0.08433
      20     H     0.44843  0.44843  0.00000  0.10314
      21     H     0.43548  0.43548  0.00000  0.12905
      22     H     0.45043  0.45043  0.00000  0.09913

   Total alpha = 32.00000, Total beta = 32.00000, Total charge = -0.00000

*** Psi4 exiting successfully. Buy a developer a beer!
