  ==> Input File <==

--------------------------------------------------------------------------
set {
	reference rhf
	basis 6-31G*
}

set_num_threads( 4 )
memory 2 gb

molecule MOL {
0 1

H	 2.332609	 0.878551	 -1.051851
C	 2.357710	 0.000000	 -0.417167
C	 1.175432	 0.000000	 0.532082
H	 3.291263	 0.000000	 0.136880
H	 2.332609	 -0.878551	 -1.051851
O	 0.000000	 0.000000	 -0.221444
H	 1.206604	 0.877321	 1.177902
H	 1.206604	 -0.877321	 1.177902
C	 -1.175432	 0.000000	 0.532082
C	 -0.848745	 -0.468223	 1.936680
H	 -1.914036	 -0.657809	 0.074372
H	 -1.605528	 1.001105	 0.555616
H	 -0.431339	 -1.468504	 1.913956
H	 -1.743036	 -0.480406	 2.551973
H	 -0.122399	 0.192736	 2.395876

	symmetry c1
}
set optking {
	frozen_dihedral = ("
		11 9 6 3
	")
}

ee = optimize('scf')
oeprop('DIPOLE', 'QUADRUPOLE', 'MULLIKEN_CHARGES')
f=open( 'psi4out.xyz', 'w' )
f.write( "15  " )
f.write( str(ee) + "\n" )
f.write( MOL.save_string_xyz() )
f.close()
--------------------------------------------------------------------------

    Molecular point group: c1
  Charge       = 0
  Multiplicity = 1
  Basis Set: 6-31G*
  Basis Set:
  @DF-RHF Final Energy:  -232.12048512492206
    Total Energy =                       -232.1204851249219132
    Molecular point group: c1
  Basis Set: 6-31G*
  Basis Set:
  Basis Set: 6-31G*
  Basis Set:
  @DF-RHF Final Energy:  -232.12217241151220
    Total Energy =                       -232.1221724115119969
  Basis Set: 6-31G*
  Basis Set:
  Basis Set: 6-31G*
  Basis Set:
  @DF-RHF Final Energy:  -232.13022923670266
    Total Energy =                       -232.1302292367028599
  Basis Set: 6-31G*
  Basis Set:
  Basis Set: 6-31G*
  Basis Set:
  @DF-RHF Final Energy:  -232.13382232234301
    Total Energy =                       -232.1338223223431783
  Basis Set: 6-31G*
  Basis Set:
  @DF-RHF Final Energy:  -232.13431186931811
    Total Energy =                       -232.1343118693182532
  Basis Set: 6-31G*
  Basis Set:
  @DF-RHF Final Energy:  -232.13508200480339
    Total Energy =                       -232.1350820048032233
  Basis Set: 6-31G*
  Basis Set:
  Basis Set: 6-31G*
  Basis Set:
  @DF-RHF Final Energy:  -232.13523592484208
    Total Energy =                       -232.1352359248421635
  Basis Set: 6-31G*
  Basis Set:
  Basis Set: 6-31G*
  Basis Set:
  @DF-RHF Final Energy:  -232.13524893275729
    Total Energy =                       -232.1352489327574062
  Basis Set: 6-31G*
  Basis Set:
  Charge       = 0
  Multiplicity = 1
  Basis Set: 6-31G*
  Basis Set:

    Orbital Energies (a.u.)
    -----------------------

    Doubly Occupied:

       1A    -20.545270     2A    -11.268731     3A    -11.266988
       4A    -11.217125     5A    -11.206675     6A     -1.367476
       7A     -1.040084     8A     -0.990880     9A     -0.871346
      10A     -0.796528    11A     -0.673913    12A     -0.661438
      13A     -0.616926    14A     -0.599010    15A     -0.547826
      16A     -0.534701    17A     -0.522913    18A     -0.502082
      19A     -0.498847    20A     -0.448776    21A     -0.400897

  @DF-RHF Final Energy:  -232.13524980123827

   => Energetics <=

    Nuclear Repulsion Energy =            193.0866253766370164
    One-Electron Energy =                -697.2868866387261733
    Two-Electron Energy =                 272.0650114608509966
    DFT Exchange-Correlation Energy =       0.0000000000000000
    Empirical Dispersion Energy =           0.0000000000000000
    PCM Polarization Energy =               0.0000000000000000
    EFP Energy =                            0.0000000000000000
    Total Energy =                       -232.1352498012381602
    Molecular point group: c1
  Basis Set: 6-31G*
  Basis Set:

  -Total Gradient:
     Atom            X                  Y                   Z
    ------   -----------------  -----------------  -----------------
       1       -0.000001475329     0.000001894385     0.000001739028
       2       -0.000025821341    -0.000011014822    -0.000004351210
       3        0.000036664308    -0.003649763914     0.000049075205
       4       -0.000011297385    -0.000003805356     0.000005198289
       5        0.000006133833    -0.000003324105    -0.000008753547
       6        0.000263504010     0.004868368356     0.000429306563
       7        0.000018889521    -0.000007134962    -0.000000710475
       8       -0.000011178655    -0.000008330804    -0.000008422615
       9       -0.001742059203     0.002080152519    -0.002820534784
      10       -0.000013146544    -0.000003991420     0.000022383780
      11        0.001470964009    -0.003263970955     0.002349345654
      12        0.000013781105     0.000011199640    -0.000017091091
      13        0.000008876444     0.000003742514     0.000000942862
      14        0.000001875434    -0.000003849239     0.000010245060
      15       -0.000015710205    -0.000010171837    -0.000008372716

  **** Optimization is complete! (in 9 steps) ****
    Final optimized geometry and variables:
    Molecular point group: c1

    Geometry (in Angstrom), charge = 0, multiplicity = 1:

    H            1.973551637196     1.008024215988    -1.657538112982
    C            2.070279276699     0.123997352265    -1.037643919930
    C            0.985189025067     0.099136689475     0.022108826023
    H            3.053244333015     0.129560749584    -0.576167044969
    H            1.992651421662    -0.748512402587    -1.676494113712
    O           -0.246719767969     0.088015213458    -0.638438937440
    H            1.075305003340     0.973748679423     0.664730203354
    H            1.101023950526    -0.779749883019     0.649654020657
    C           -1.448247495925     0.083052688160     0.092077940995
    C           -1.369800524911    -0.385783831973     1.542303001940
    H           -2.112163255709    -0.593722547208    -0.433155095578
    H           -1.880979537203     1.079549595832     0.058796585553
    H           -0.991465332341    -1.399553782094     1.615316829321
    H           -2.371461911826    -0.375734459353     1.961265794848
    H           -0.751007161923     0.257273582894     2.157588668417

  Mulliken Charges: (a.u.)
   Center  Symbol    Alpha    Beta     Spin     Total
       1     H     0.41383  0.41383  0.00000  0.17233
       2     C     3.24217  3.24217  0.00000 -0.48435
       3     C     2.98641  2.98641  0.00000  0.02717
       4     H     0.42381  0.42381  0.00000  0.15237
       5     H     0.41398  0.41398  0.00000  0.17204
       6     O     4.31916  4.31916  0.00000 -0.63833
       7     H     0.43321  0.43321  0.00000  0.13357
       8     H     0.43031  0.43031  0.00000  0.13937
       9     C     2.97561  2.97561  0.00000  0.04879
      10     C     3.26828  3.26828  0.00000 -0.53656
      11     H     0.42045  0.42045  0.00000  0.15909
      12     H     0.42756  0.42756  0.00000  0.14489
      13     H     0.41438  0.41438  0.00000  0.17125
      14     H     0.41486  0.41486  0.00000  0.17028
      15     H     0.41596  0.41596  0.00000  0.16808

   Total alpha = 21.00000, Total beta = 21.00000, Total charge =  0.00000
