                              Psi4 1.0.54 Driver

  ==> Input File <==

--------------------------------------------------------------------------
set {
	reference rhf
	basis cc-pvtz
}

set_num_threads( 4 )
memory 2 gb

molecule MOL {
0 1

H	 -2.733082	 0.807947	 -1.474076
C	 -1.992304	 0.019122	 -1.583106
O	 -1.401606	 -0.295183	 -0.366624
H	 -2.482880	 -0.869793	 -1.951962
H	 -1.253650	 0.339979	 -2.315448
C	 -0.718530	 0.758693	 0.228682
C	 0.718529	 0.758687	 -0.228709
H	 -1.176498	 1.708665	 -0.046615
H	 -0.748705	 0.673525	 1.312779
O	 1.401606	 -0.295166	 0.366636
H	 0.748705	 0.673477	 -1.312803
H	 1.176496	 1.708671	 0.046552
C	 2.714315	 -0.441627	 -0.061017
H	 2.765292	 -0.641548	 -1.128869
H	 3.305661	 0.447341	 0.150952
H	 3.143725	 -1.278506	 0.470147

	symmetry c1
}
set optking {
	frozen_dihedral = ("
		2 3 6 7
	")
}

ee,wfn = optimize('scf', return_wfn=True)
oeprop( wfn, 'DIPOLE', 'QUADRUPOLE', 'MULLIKEN_CHARGES')
f=open( 'psi4out.xyz', 'w' )
f.write( "16  " )
f.write( str(ee) + "\n" )
f.write( MOL.save_string_xyz() )
f.close()
--------------------------------------------------------------------------

    Molecular point group: c1
  Charge       = 0
  Multiplicity = 1
  Basis Set: CC-PVTZ
  Basis Set:
  @DF-RHF Final Energy:  -307.09329535102057
    Total Energy =                       -307.0932953510206858
    Molecular point group: c1
  Basis Set: CC-PVTZ
  Basis Set:
  Basis Set: CC-PVTZ
  Basis Set:
  @DF-RHF Final Energy:  -306.88015379255222
    Total Energy =                       -306.8801537925521643
  Basis Set: CC-PVTZ
  Basis Set:
  Basis Set: CC-PVTZ
  Basis Set:
  @DF-RHF Final Energy:  -307.01144898814044
    Total Energy =                       -307.0114489881407849
  Basis Set: CC-PVTZ
  Basis Set:
  Basis Set: CC-PVTZ
  Basis Set:
  @DF-RHF Final Energy:  -307.04228664941195
    Total Energy =                       -307.0422866494117784
  Basis Set: CC-PVTZ
  Basis Set:
  @DF-RHF Final Energy:  -307.09284104531804
    Total Energy =                       -307.0928410453179822
  Basis Set: CC-PVTZ
  Basis Set:
  @DF-RHF Final Energy:  -307.09451815215795
    Total Energy =                       -307.0945181521583436
  Basis Set: CC-PVTZ
  Basis Set:
  Basis Set: CC-PVTZ
  Basis Set:
  @DF-RHF Final Energy:  -307.09471527035168
    Total Energy =                       -307.0947152703515712
  Basis Set: CC-PVTZ
  Basis Set:
  Basis Set: CC-PVTZ
  Basis Set:
  @DF-RHF Final Energy:  -307.09472327401767
    Total Energy =                       -307.0947232740175536
  Basis Set: CC-PVTZ
  Basis Set:
  Charge       = 0
  Multiplicity = 1
  Basis Set: CC-PVTZ
  Basis Set:

    Orbital Energies (a.u.)
    -----------------------

    Doubly Occupied:

       1A    -20.549408     2A    -20.546683     3A    -11.268680
       4A    -11.267246     5A    -11.263254     6A    -11.263135
       7A     -1.391393     8A     -1.373909     9A     -1.029409
      10A     -0.943459    11A     -0.897942    12A     -0.819534
      13A     -0.689459    14A     -0.680661    15A     -0.661016
      16A     -0.640056    17A     -0.627280    18A     -0.604305
      19A     -0.555735    20A     -0.526888    21A     -0.516741
      22A     -0.487615    23A     -0.466634    24A     -0.420040
      25A     -0.411884

  @DF-RHF Final Energy:  -307.09472367749817

   => Energetics <=

    Nuclear Repulsion Energy =            260.5744020051220673
    One-Electron Energy =                -935.5335245481414859
    Two-Electron Energy =                 367.8643988655211388
    DFT Exchange-Correlation Energy =       0.0000000000000000
    Empirical Dispersion Energy =           0.0000000000000000
    PCM Polarization Energy =               0.0000000000000000
    EFP Energy =                            0.0000000000000000
    Total Energy =                       -307.0947236774983367
    Molecular point group: c1
  Basis Set: CC-PVTZ
  Basis Set:

  -Total Gradient:
     Atom            X                  Y                   Z
    ------   -----------------  -----------------  -----------------
       1        0.000007515505    -0.000012541701     0.000002629564
       2       -0.000433174583     0.000562840529     0.000141379135
       3        0.000720810514    -0.000810133105     0.000013671225
       4       -0.000016581354    -0.000020689950     0.000019774273
       5       -0.000005250618     0.000008312637     0.000004248572
       6       -0.000499085876     0.000327453394    -0.000802019685
       7        0.000210673093    -0.000076736768     0.000589914061
       8        0.000012148768     0.000005325875    -0.000005317515
       9        0.000008848776     0.000009104208     0.000030643296
      10       -0.000019978072     0.000012125859     0.000060809158
      11       -0.000015105684    -0.000021396010    -0.000023305481
      12        0.000022010840     0.000018246160     0.000002294229
      13       -0.000011396226    -0.000002044853    -0.000040146232
      14        0.000001540439    -0.000020781392    -0.000013044787
      15        0.000024017870     0.000012318254     0.000005740372
      16       -0.000006993391     0.000008596864     0.000012729816

  **** Optimization is complete! (in 9 steps) ****
    Final optimized geometry and variables:
    Molecular point group: c1

    Geometry (in Angstrom), charge = 0, multiplicity = 1:

    H           -2.897115048474     0.829722560259    -1.092035001295
    C           -2.398982279376    -0.083384336821    -0.773422146732
    O           -1.563774961310     0.148318937272     0.312849236978
    H           -3.148218106759    -0.796887302834    -0.462509322451
    H           -1.864401587738    -0.497547105674    -1.624737896488
    C           -0.526616410434     1.053851098487     0.098318705182
    C            0.745643672710     0.405313373706    -0.405670268004
    H           -0.831468063447     1.827733297417    -0.603541091136
    H           -0.316480182317     1.527425126339     1.048282048623
    O            1.295961315515    -0.379292306716     0.599609965757
    H            0.540927027891    -0.197162958662    -1.289532522076
    H            1.444163934243     1.189533908229    -0.700416722838
    C            2.438329412853    -1.074551232511     0.226812160181
    H            2.236472147327    -1.765031240290    -0.589334954928
    H            3.234092776967    -0.399766960904    -0.083218652010
    H            2.776004342153    -1.638985278504     1.083628282731

  Mulliken Charges: (a.u.)
   Center  Symbol    Alpha    Beta     Spin     Total
       1     H     0.47068  0.47068  0.00000  0.05864
       2     C     3.03155  3.03155  0.00000 -0.06311
       3     O     4.17462  4.17462  0.00000 -0.34925
       4     H     0.44629  0.44629  0.00000  0.10742
       5     H     0.47387  0.47387  0.00000  0.05225
       6     C     2.97447  2.97447  0.00000  0.05107
       7     C     2.96488  2.96488  0.00000  0.07023
       8     H     0.47312  0.47312  0.00000  0.05376
       9     H     0.45026  0.45026  0.00000  0.09947
      10     O     4.16781  4.16781  0.00000 -0.33563
      11     H     0.47656  0.47656  0.00000  0.04688
      12     H     0.47386  0.47386  0.00000  0.05228
      13     C     3.03138  3.03138  0.00000 -0.06276
      14     H     0.47184  0.47184  0.00000  0.05632
      15     H     0.47294  0.47294  0.00000  0.05412
      16     H     0.44585  0.44585  0.00000  0.10830

   Total alpha = 25.00000, Total beta = 25.00000, Total charge = -0.00000

*** Psi4 exiting successfully. Buy a developer a beer!
