                              Psi4 1.0.54 Driver

  ==> Input File <==

--------------------------------------------------------------------------
set {
	reference rhf
	basis cc-pvtz
}

set_num_threads( 4 )
memory 2 gb

molecule MOL {
0 1

O	 0.623971	 1.347241	 -0.000777
C	 0.485107	 0.171416	 -0.000134
C	 1.606966	 -0.836201	 0.000174
O	 -0.695554	 -0.422406	 0.000602
C	 2.988788	 -0.202529	 -0.000115
H	 1.465110	 -1.474645	 -0.864821
H	 1.465209	 -1.474077	 0.865596
H	 3.131767	 0.419673	 -0.873407
H	 3.750876	 -0.972315	 0.000098
H	 3.131883	 0.420264	 0.872742
C	 -1.720526	 0.139115	 -0.807120
C	 -2.958491	 -0.710348	 -0.638771
H	 -1.388935	 0.157861	 -1.835732
H	 -1.894563	 1.160011	 -0.497597
H	 -2.771961	 -1.730258	 -0.950801
H	 -3.762681	 -0.308412	 -1.243716
H	 -3.280521	 -0.722361	 0.394923

	symmetry c1
}
set optking {
	frozen_dihedral = ("
		11 4 2 3
	")
}

ee,wfn = optimize('scf', return_wfn=True)
oeprop( wfn, 'DIPOLE', 'QUADRUPOLE', 'MULLIKEN_CHARGES')
f=open( 'psi4out.xyz', 'w' )
f.write( "17  " )
f.write( str(ee) + "\n" )
f.write( MOL.save_string_xyz() )
f.close()
--------------------------------------------------------------------------

    Molecular point group: c1
  Charge       = 0
  Multiplicity = 1
  Basis Set: CC-PVTZ
  Basis Set:
  @DF-RHF Final Energy:  -345.03277287076008
    Total Energy =                       -345.0327728707604251
    Molecular point group: c1
  Basis Set: CC-PVTZ
  Basis Set:
  Basis Set: CC-PVTZ
  Basis Set:
  @DF-RHF Final Energy:  -345.03010121800281
    Total Energy =                       -345.0301012180027556
  Basis Set: CC-PVTZ
  Basis Set:
  Basis Set: CC-PVTZ
  Basis Set:
  @DF-RHF Final Energy:  -345.03324170726216
    Total Energy =                       -345.0332417072620501
  Basis Set: CC-PVTZ
  Basis Set:
  Basis Set: CC-PVTZ
  Basis Set:
  @DF-RHF Final Energy:  -345.03344527253569
    Total Energy =                       -345.0334452725352890
  Basis Set: CC-PVTZ
  Basis Set:
  Basis Set: CC-PVTZ
  Basis Set:
  @DF-RHF Final Energy:  -345.03349925826126
    Total Energy =                       -345.0334992582610880
  Basis Set: CC-PVTZ
  Basis Set:
  Basis Set: CC-PVTZ
  Basis Set:
  @DF-RHF Final Energy:  -345.03350789134981
    Total Energy =                       -345.0335078913500411
  Basis Set: CC-PVTZ
  Basis Set:
  Charge       = 0
  Multiplicity = 1
  Basis Set: CC-PVTZ
  Basis Set:

    Orbital Energies (a.u.)
    -----------------------

    Doubly Occupied:

       1A    -20.586121     2A    -20.536514     3A    -11.364851
       4A    -11.285497     5A    -11.237355     6A    -11.220943
       7A    -11.214752     8A     -1.466027     9A     -1.365682
      10A     -1.069537    11A     -1.033661    12A     -0.910284
      13A     -0.852171    14A     -0.772955    15A     -0.700383
      16A     -0.686477    17A     -0.667067    18A     -0.631210
      19A     -0.591792    20A     -0.570810    21A     -0.557911
      22A     -0.526853    23A     -0.522679    24A     -0.516391
      25A     -0.504265    26A     -0.495179    27A     -0.454763
      28A     -0.437105

  @DF-RHF Final Energy:  -345.03350861699789

   => Energetics <=

    Nuclear Repulsion Energy =            314.9672157467613260
    One-Electron Energy =               -1094.4429798921264592
    Two-Electron Energy =                 434.4422555283668430
    DFT Exchange-Correlation Energy =       0.0000000000000000
    Empirical Dispersion Energy =           0.0000000000000000
    PCM Polarization Energy =               0.0000000000000000
    EFP Energy =                            0.0000000000000000
    Total Energy =                       -345.0335086169982901
    Molecular point group: c1
  Basis Set: CC-PVTZ
  Basis Set:

  -Total Gradient:
     Atom            X                  Y                   Z
    ------   -----------------  -----------------  -----------------
       1        0.000037435857    -0.000025456082     0.000064774339
       2        0.001463783386    -0.001191024076     0.006669344310
       3       -0.000265722845    -0.000790325934    -0.006573370234
       4       -0.002999826871     0.006962721565     0.005011401213
       5       -0.000023167570    -0.000018913911     0.000002613568
       6        0.000003496476     0.000006958593     0.000008660621
       7       -0.000006926720     0.000027008621    -0.000012242578
       8       -0.000005034850    -0.000002080985     0.000000865503
       9       -0.000001229869     0.000006450230    -0.000003590240
      10       -0.000005357906    -0.000003558537    -0.000005805746
      11        0.001821267730    -0.004956718169    -0.005126548097
      12       -0.000008580578     0.000005389813    -0.000024001028
      13       -0.000003261395    -0.000012317185     0.000002457732
      14       -0.000009493379    -0.000009143630    -0.000008676022
      15        0.000001321250    -0.000000137034    -0.000000008558
      16       -0.000009206843    -0.000005118736    -0.000002213395
      17        0.000010504131     0.000006265454    -0.000003661389

  **** Optimization is complete! (in 7 steps) ****
    Final optimized geometry and variables:
    Molecular point group: c1

    Geometry (in Angstrom), charge = 0, multiplicity = 1:

    O            0.620917252405     1.409159776895    -0.069844163691
    C            0.462712362695     0.260178284534     0.156343157057
    C            1.566321039992    -0.762073696935     0.238468153361
    O           -0.739198543960    -0.299852883921     0.272328927650
    C            2.956814341659    -0.157608826301     0.346033727588
    H            1.468979700329    -1.363785817070    -0.660480902227
    H            1.353548567082    -1.429382390731     1.065161325114
    H            3.165023040134     0.490092318098    -0.494226289387
    H            3.704002382962    -0.941430714958     0.370179103376
    H            3.055318166443     0.432508158750     1.248228658357
    C           -1.778182958783     0.192055373287    -0.563657253939
    C           -2.999635207956    -0.668224243534    -0.341723804549
    H           -1.445565441796     0.143006471648    -1.593423612840
    H           -1.976351441428     1.226709664270    -0.325166746401
    H           -2.792732386524    -1.703283208750    -0.582627112881
    H           -3.810343755184    -0.323075112857    -0.972601275635
    H           -3.321641442124    -0.614599615129     0.690478917106

  Mulliken Charges: (a.u.)
   Center  Symbol    Alpha    Beta     Spin     Total
       1     O     4.18877  4.18877  0.00000 -0.37754
       2     C     2.80834  2.80834  0.00000  0.38333
       3     C     3.09190  3.09190  0.00000 -0.18381
       4     O     4.15980  4.15980  0.00000 -0.31960
       5     C     3.14050  3.14050  0.00000 -0.28100
       6     H     0.44646  0.44646  0.00000  0.10708
       7     H     0.43903  0.43903  0.00000  0.12195
       8     H     0.44587  0.44587  0.00000  0.10825
       9     H     0.45050  0.45050  0.00000  0.09900
      10     H     0.45010  0.45010  0.00000  0.09981
      11     C     2.97847  2.97847  0.00000  0.04307
      12     C     3.13373  3.13373  0.00000 -0.26746
      13     H     0.46289  0.46289  0.00000  0.07423
      14     H     0.44686  0.44686  0.00000  0.10629
      15     H     0.45217  0.45217  0.00000  0.09566
      16     H     0.45531  0.45531  0.00000  0.08938
      17     H     0.44932  0.44932  0.00000  0.10136

   Total alpha = 28.00000, Total beta = 28.00000, Total charge = -0.00000

*** Psi4 exiting successfully. Buy a developer a beer!
