  ==> Input File <==

--------------------------------------------------------------------------
set {
	reference rhf
	basis cc-pvtz
}

set_num_threads( 4 )
memory 2 gb

molecule MOL {
0 1

H	 -1.835082	 1.385983	 0.000069
C	 -1.300516	 0.441153	 -0.000028
O	 -0.006604	 0.654344	 -0.000106
O	 -1.828920	 -0.612308	 0.000113
C	 0.852093	 -0.482521	 -0.000161
C	 1.847778	 -0.308356	 1.121882
H	 1.341648	 -0.550368	 -0.961249
H	 0.253359	 -1.372460	 0.132085
H	 2.437313	 0.588216	 0.978437
H	 2.518063	 -1.159130	 1.149383
H	 1.343550	 -0.237980	 2.077272

	symmetry c1
}
set optking {
	frozen_dihedral = ("
		7 5 3 2
	")
}

ee = optimize('scf')
oeprop('DIPOLE', 'QUADRUPOLE', 'MULLIKEN_CHARGES')
f=open( 'psi4out.xyz', 'w' )
f.write( "11  " )
f.write( str(ee) + "\n" )
f.write( MOL.save_string_xyz() )
f.close()
--------------------------------------------------------------------------

    Molecular point group: c1
  Charge       = 0
  Multiplicity = 1
  Basis Set: CC-PVTZ
  Basis Set:
  @DF-RHF Final Energy:  -266.92929212832132
    Total Energy =                       -266.9292921283213218
    Molecular point group: c1
  Basis Set: CC-PVTZ
  Basis Set:
  Basis Set: CC-PVTZ
  Basis Set:
  @DF-RHF Final Energy:  -266.92964773297149
    Total Energy =                       -266.9296477329712616
  Basis Set: CC-PVTZ
  Basis Set:
  Basis Set: CC-PVTZ
  Basis Set:
  @DF-RHF Final Energy:  -266.92959439413630
    Total Energy =                       -266.9295943941364158
  Basis Set: CC-PVTZ
  Basis Set:
  Basis Set: CC-PVTZ
  Basis Set:
  @DF-RHF Final Energy:  -266.92999194476170
    Total Energy =                       -266.9299919447615821
  Basis Set: CC-PVTZ
  Basis Set:
  Basis Set: CC-PVTZ
  Basis Set:
  @DF-RHF Final Energy:  -266.92999393002117
    Total Energy =                       -266.9299939300212827
  Basis Set: CC-PVTZ
  Basis Set:
  Charge       = 0
  Multiplicity = 1
  Basis Set: CC-PVTZ
  Basis Set:

    Orbital Energies (a.u.)
    -----------------------

    Doubly Occupied:

       1A    -20.604686     2A    -20.544772     3A    -11.371299
       4A    -11.288758     5A    -11.224930     6A     -1.476992
       7A     -1.377662     8A     -1.053002     9A     -0.907881
      10A     -0.801473    11A     -0.747067    12A     -0.687808
      13A     -0.672679    14A     -0.609156    15A     -0.572594
      16A     -0.555687    17A     -0.533016    18A     -0.505515
      19A     -0.460880    20A     -0.456505

  @DF-RHF Final Energy:  -266.92999708270105

   => Energetics <=

    Nuclear Repulsion Energy =            179.7971090897969475
    One-Electron Energy =                -720.5494894460621254
    Two-Electron Energy =                 273.8223832735642418
    DFT Exchange-Correlation Energy =       0.0000000000000000
    Empirical Dispersion Energy =           0.0000000000000000
    PCM Polarization Energy =               0.0000000000000000
    EFP Energy =                            0.0000000000000000
    Total Energy =                       -266.9299970827008792
    Molecular point group: c1
  Basis Set: CC-PVTZ
  Basis Set:

  -Total Gradient:
     Atom            X                  Y                   Z
    ------   -----------------  -----------------  -----------------
       1        0.000007041207     0.000000201817     0.000005331646
       2       -0.000017031305    -0.000041775106     0.000495164225
       3        0.000126389579     0.000077839544    -0.000713521786
       4        0.000013911000     0.000022996376     0.000004334364
       5       -0.000547382565    -0.000363048671     0.000033177872
       6        0.000015830445    -0.000010691484    -0.000017376814
       7        0.000407307246     0.000334246359     0.000195147294
       8       -0.000003769559    -0.000019638577    -0.000001578827
       9        0.000000276674    -0.000000050861     0.000002134657
      10        0.000006117570     0.000000923740     0.000007449371
      11       -0.000008690293    -0.000001003136    -0.000010262003

  **** Optimization is complete! (in 6 steps) ****
    Final optimized geometry and variables:
    Molecular point group: c1

    Geometry (in Angstrom), charge = 0, multiplicity = 1:

    H           -1.719046263210     1.478787349743    -0.245241200418
    C           -1.218417530055     0.515504911603    -0.240984061822
    O            0.081656244181     0.694716726324    -0.226195965145
    O           -1.789009565760    -0.515438868874    -0.248466580520
    C            0.954824438928    -0.433129237242    -0.201978491157
    C            1.970191334669    -0.243212196023     0.902754451951
    H            1.439002036104    -0.475122840658    -1.167975387822
    H            0.376603711187    -1.330799050628    -0.063007403238
    H            2.522359195664     0.677801524592     0.765719971184
    H            2.672845858166    -1.068398637003     0.898682177629
    H            1.484998753581    -0.212485132987     1.870397525282

  Mulliken Charges: (a.u.)
   Center  Symbol    Alpha    Beta     Spin     Total
       1     H     0.45071  0.45071  0.00000  0.09858
       2     C     2.84001  2.84001  0.00000  0.31998
       3     O     4.14867  4.14867  0.00000 -0.29734
       4     O     4.19605  4.19605  0.00000 -0.39210
       5     C     2.98016  2.98016  0.00000  0.03967
       6     C     3.13317  3.13317  0.00000 -0.26634
       7     H     0.45271  0.45271  0.00000  0.09459
       8     H     0.44278  0.44278  0.00000  0.11444
       9     H     0.45049  0.45049  0.00000  0.09903
      10     H     0.45433  0.45433  0.00000  0.09135
      11     H     0.45093  0.45093  0.00000  0.09815

   Total alpha = 20.00000, Total beta = 20.00000, Total charge = -0.00000
