  ==> Input File <==

--------------------------------------------------------------------------
set {
	reference rhf
	basis 6-31G*
}

set_num_threads( 4 )
memory 2 gb

molecule MOL {
0 1

H	 1.917801	 -5.232247	 0.522345
O	 2.754375	 -5.015549	 0.137302
C	 2.556160	 -4.393083	 -1.106604
C	 2.029878	 -2.967002	 -0.988091
H	 3.524668	 -4.386271	 -1.589946
H	 1.888800	 -4.988488	 -1.728620
C	 0.638493	 -2.867443	 -0.358007
H	 2.737858	 -2.385658	 -0.403137
H	 2.007550	 -2.529907	 -1.984994
C	 0.115918	 -1.429151	 -0.302766
H	 0.670931	 -3.280513	 0.646327
H	 -0.061213	 -3.480059	 -0.926736
C	 -1.309753	 -1.282496	 0.241564
H	 0.794017	 -0.824681	 0.296938
H	 0.145672	 -1.011330	 -1.306877
C	 -2.037799	 -0.007733	 -0.193645
H	 -1.890610	 -2.142323	 -0.085726
H	 -1.285946	 -1.330893	 1.329189
C	 -3.489788	 0.042957	 0.286558
H	 -2.017067	 0.064384	 -1.280144
H	 -1.513726	 0.868678	 0.179924
C	 -4.216917	 1.317354	 -0.141063
H	 -4.025645	 -0.823308	 -0.095450
H	 -3.513059	 -0.038752	 1.371301
H	 -4.239342	 1.411634	 -1.223113
H	 -5.243387	 1.322503	 0.212445
H	 -3.726170	 2.201406	 0.256408

	symmetry c1
}
set optking {
	frozen_dihedral = ("
		14 10 13 16
	")
}

ee = optimize('scf')
oeprop('DIPOLE', 'QUADRUPOLE', 'MULLIKEN_CHARGES')
f=open( 'psi4out.xyz', 'w' )
f.write( "27  " )
f.write( str(ee) + "\n" )
f.write( MOL.save_string_xyz() )
f.close()
--------------------------------------------------------------------------

    Molecular point group: c1
  Charge       = 0
  Multiplicity = 1
  Basis Set: 6-31G*
  Basis Set:
  @DF-RHF Final Energy:  -388.28126654916531
    Total Energy =                       -388.2812665491655935
    Molecular point group: c1
  Basis Set: 6-31G*
  Basis Set:
  Basis Set: 6-31G*
  Basis Set:
  @DF-RHF Final Energy:  -388.28195103509205
    Total Energy =                       -388.2819510350916516
  Basis Set: 6-31G*
  Basis Set:
  Basis Set: 6-31G*
  Basis Set:
  @DF-RHF Final Energy:  -388.28198672589463
    Total Energy =                       -388.2819867258953082
  Basis Set: 6-31G*
  Basis Set:
  Basis Set: 6-31G*
  Basis Set:
  @DF-RHF Final Energy:  -388.28199748361737
    Total Energy =                       -388.2819974836173742
  Basis Set: 6-31G*
  Basis Set:
  Basis Set: 6-31G*
  Basis Set:
  @DF-RHF Final Energy:  -388.28200525005337
    Total Energy =                       -388.2820052500541124
  Basis Set: 6-31G*
  Basis Set:
  Basis Set: 6-31G*
  Basis Set:
  @DF-RHF Final Energy:  -388.28200650723841
    Total Energy =                       -388.2820065072381794
  Basis Set: 6-31G*
  Basis Set:
  Charge       = 0
  Multiplicity = 1
  Basis Set: 6-31G*
  Basis Set:

    Orbital Energies (a.u.)
    -----------------------

    Doubly Occupied:

       1A    -20.552119     2A    -11.267003     3A    -11.220326
       4A    -11.217055     5A    -11.215760     6A    -11.215396
       7A    -11.215209     8A    -11.214256     9A    -11.209131
      10A     -1.358927    11A     -1.094748    12A     -1.062582
      13A     -1.011752    14A     -0.950475    15A     -0.882482
      16A     -0.820249    17A     -0.792281    18A     -0.789565
      19A     -0.694066    20A     -0.658519    21A     -0.632734
      22A     -0.615167    23A     -0.602455    24A     -0.585382
      25A     -0.575588    26A     -0.555705    27A     -0.533412
      28A     -0.524622    29A     -0.509205    30A     -0.496066
      31A     -0.479296    32A     -0.474347    33A     -0.469677
      34A     -0.462997    35A     -0.459963    36A     -0.442528
      37A     -0.419949

  @DF-RHF Final Energy:  -388.28200676551467

   => Energetics <=

    Nuclear Repulsion Energy =            451.3001153238349161
    One-Electron Energy =               -1420.6022541869972429
    Two-Electron Energy =                 581.0201320976477746
    DFT Exchange-Correlation Energy =       0.0000000000000000
    Empirical Dispersion Energy =           0.0000000000000000
    PCM Polarization Energy =               0.0000000000000000
    EFP Energy =                            0.0000000000000000
    Total Energy =                       -388.2820067655145522
    Molecular point group: c1
  Basis Set: 6-31G*
  Basis Set:

  -Total Gradient:
     Atom            X                  Y                   Z
    ------   -----------------  -----------------  -----------------
       1        0.000000415885    -0.000002298449     0.000001372544
       2       -0.000007571558     0.000000162208    -0.000001038452
       3        0.000008638554     0.000006251325    -0.000001428377
       4       -0.000011251898     0.000010720808    -0.000009651448
       5        0.000001701469    -0.000001893139     0.000001255381
       6        0.000001086756    -0.000000423483     0.000002473617
       7       -0.000013356292     0.000003338834    -0.000004194574
       8        0.000004075719    -0.000006105536    -0.000001540035
       9       -0.000000078640     0.000000615703     0.000002524908
      10       -0.001160163595     0.003005020280    -0.003400461960
      11       -0.000001216687     0.000000783183    -0.000001451120
      12        0.000009161282    -0.000003598417     0.000001912247
      13        0.001452256407     0.001039880643     0.003451009928
      14        0.000657438247    -0.002838541032     0.002095482628
      15       -0.000003827052    -0.000000359680    -0.000000619927
      16       -0.000922551242    -0.001206085242    -0.002131864248
      17        0.000001739085    -0.000003912664    -0.000003943551
      18       -0.000003071402     0.000005858688     0.000002506264
      19        0.000000679419    -0.000014174322    -0.000005875983
      20       -0.000013769637     0.000000662033     0.000002415673
      21       -0.000000418862    -0.000001498749    -0.000007291828
      22        0.000005905534     0.000005801698     0.000009116746
      23        0.000001564134    -0.000001033868    -0.000000067533
      24       -0.000005728068     0.000001102466    -0.000000065617
      25       -0.000001956332    -0.000003889806     0.000001665483
      26        0.000000398429     0.000002574432     0.000002890476
      27       -0.000000099654     0.000001042089    -0.000005131241

  **** Optimization is complete! (in 7 steps) ****
    Final optimized geometry and variables:
    Molecular point group: c1

    Geometry (in Angstrom), charge = 0, multiplicity = 1:

    H            2.108237028799    -3.346133654343     0.772189732839
    O            2.979752859989    -3.131304044276     0.472998620737
    C            2.906244495078    -2.481734660509    -0.770508789369
    C            2.371742475141    -1.057092278635    -0.673107716955
    H            3.917927580301    -2.467558597252    -1.155095332175
    H            2.303250104234    -3.061532390424    -1.468390595555
    C            0.926366966780    -0.967570789095    -0.178902707681
    H            3.020369661702    -0.489703679527    -0.010858729387
    H            2.445222257975    -0.598984260217    -1.658176017051
    C            0.387108619144     0.465410810682    -0.152512398856
    H            0.857858756179    -1.385468933780     0.823831436976
    H            0.286949288088    -1.578842786873    -0.815174477404
    C           -1.033991319857     0.560031925614     0.416173741424
    H            1.058634816755     1.067223685749     0.456130750340
    H            0.413483540888     0.876069211675    -1.159268521595
    C           -1.766754969108     1.840497191105     0.010956097144
    H           -1.616461063924    -0.292727497565     0.070372020597
    H           -0.996872365058     0.480471810470     1.500452296972
    C           -3.165822420770     1.956802144168     0.618164069494
    H           -1.841603129524     1.877518361027    -1.074350656894
    H           -1.175694437417     2.707111325222     0.304287924307
    C           -3.897835151607     3.229558768773     0.193901586929
    H           -3.755920647316     1.088774809844     0.331286267639
    H           -3.090701925025     1.928826739964     1.703121588337
    H           -4.021153536224     3.269928383201    -0.884733848004
    H           -4.885394765236     3.283792542946     0.641585927090
    H           -3.348619993792     4.116841559111     0.496067733236

  Mulliken Charges: (a.u.)
   Center  Symbol    Alpha    Beta     Spin     Total
       1     H     0.27983  0.27983  0.00000  0.44033
       2     O     4.37102  4.37102  0.00000 -0.74203
       3     C     2.99726  2.99726  0.00000  0.00548
       4     C     3.16142  3.16142  0.00000 -0.32284
       5     H     0.41443  0.41443  0.00000  0.17113
       6     H     0.43205  0.43205  0.00000  0.13589
       7     C     3.16272  3.16272  0.00000 -0.32545
       8     H     0.41507  0.41507  0.00000  0.16986
       9     H     0.42423  0.42423  0.00000  0.15155
      10     C     3.15099  3.15099  0.00000 -0.30198
      11     H     0.42502  0.42502  0.00000  0.14995
      12     H     0.42488  0.42488  0.00000  0.15025
      13     C     3.15300  3.15300  0.00000 -0.30601
      14     H     0.42056  0.42056  0.00000  0.15888
      15     H     0.42212  0.42212  0.00000  0.15577
      16     C     3.15134  3.15134  0.00000 -0.30268
      17     H     0.42461  0.42461  0.00000  0.15078
      18     H     0.42171  0.42171  0.00000  0.15658
      19     C     3.15170  3.15170  0.00000 -0.30340
      20     H     0.42393  0.42393  0.00000  0.15213
      21     H     0.42366  0.42366  0.00000  0.15268
      22     C     3.23926  3.23926  0.00000 -0.47852
      23     H     0.42341  0.42341  0.00000  0.15318
      24     H     0.42292  0.42292  0.00000  0.15417
      25     H     0.42193  0.42193  0.00000  0.15614
      26     H     0.41930  0.41930  0.00000  0.16140
      27     H     0.42162  0.42162  0.00000  0.15676

   Total alpha = 37.00000, Total beta = 37.00000, Total charge =  0.00000
