  ==> Input File <==

--------------------------------------------------------------------------
set {
	reference rhf
	basis 6-31G*
}

set_num_threads( 4 )
memory 2 gb

molecule MOL {
0 1

H	 -1.784935	 0.877483	 2.480300
O	 -1.388375	 1.676263	 2.162371
C	 -0.725420	 1.424905	 0.952289
C	 0.572842	 0.671408	 1.181255
H	 -1.352183	 0.870959	 0.258986
H	 -0.511030	 2.385864	 0.506145
O	 1.171513	 0.459272	 -0.058250
H	 0.371307	 -0.279889	 1.677640
H	 1.220457	 1.250323	 1.837025
C	 2.397842	 -0.198080	 -0.002151
H	 2.508049	 -0.905315	 -0.822092
H	 3.173794	 0.550865	 -0.078850
H	 2.517602	 -0.735921	 0.936026

	symmetry c1
}
set optking {
	frozen_dihedral = ("
		4 7 10 13
	")
}

ee = optimize('scf')
oeprop('DIPOLE', 'QUADRUPOLE', 'MULLIKEN_CHARGES')
f=open( 'psi4out.xyz', 'w' )
f.write( "13  " )
f.write( str(ee) + "\n" )
f.write( MOL.save_string_xyz() )
f.close()
--------------------------------------------------------------------------

    Molecular point group: c1
  Charge       = 0
  Multiplicity = 1
  Basis Set: 6-31G*
  Basis Set:
  @DF-RHF Final Energy:  -267.94693532142333
    Total Energy =                       -267.9469353214229841
    Molecular point group: c1
  Basis Set: 6-31G*
  Basis Set:
  Basis Set: 6-31G*
  Basis Set:
  @DF-RHF Final Energy:  -267.94754000994510
    Total Energy =                       -267.9475400099447029
  Basis Set: 6-31G*
  Basis Set:
  Basis Set: 6-31G*
  Basis Set:
  @DF-RHF Final Energy:  -267.94768395092092
    Total Energy =                       -267.9476839509208617
  Basis Set: 6-31G*
  Basis Set:
  Basis Set: 6-31G*
  Basis Set:
  @DF-RHF Final Energy:  -267.94768499779997
    Total Energy =                       -267.9476849978000246
  Basis Set: 6-31G*
  Basis Set:
  Charge       = 0
  Multiplicity = 1
  Basis Set: 6-31G*
  Basis Set:

    Orbital Energies (a.u.)
    -----------------------

    Doubly Occupied:

       1A    -20.559879     2A    -20.559410     3A    -11.271232
       4A    -11.269956     5A    -11.268507     6A     -1.385124
       7A     -1.364479     8A     -1.018279     9A     -0.913580
      10A     -0.841656    11A     -0.708620    12A     -0.671906
      13A     -0.659024    14A     -0.635859    15A     -0.596772
      16A     -0.567271    17A     -0.549351    18A     -0.488751
      19A     -0.482129    20A     -0.438016    21A     -0.417413

  @DF-RHF Final Energy:  -267.94768517845137

   => Energetics <=

    Nuclear Repulsion Energy =            189.9797963707896713
    One-Electron Energy =                -742.5205353357036984
    Two-Electron Energy =                 284.5930537864628036
    DFT Exchange-Correlation Energy =       0.0000000000000000
    Empirical Dispersion Energy =           0.0000000000000000
    PCM Polarization Energy =               0.0000000000000000
    EFP Energy =                            0.0000000000000000
    Total Energy =                       -267.9476851784511950
    Molecular point group: c1
  Basis Set: 6-31G*
  Basis Set:

  -Total Gradient:
     Atom            X                  Y                   Z
    ------   -----------------  -----------------  -----------------
       1       -0.000003800741     0.000000573955     0.000005176329
       2       -0.000016447321    -0.000004729910     0.000009567266
       3        0.000010692057     0.000003288012    -0.000000189464
       4       -0.000967215606    -0.001815695185    -0.000153410273
       5       -0.000002507658     0.000001158425     0.000001756778
       6        0.000006728739    -0.000005469582    -0.000003222221
       7        0.001714166146     0.003222856771     0.000518114210
       8        0.000001776975    -0.000000900337    -0.000007668583
       9       -0.000001747549    -0.000002348258    -0.000002721545
      10       -0.001825365342    -0.003495329589    -0.001440604581
      11       -0.000001941665     0.000004307364     0.000004703173
      12       -0.000001095606     0.000000614810     0.000000249757
      13        0.001086757572     0.002091673524     0.001068249149

  **** Optimization is complete! (in 5 steps) ****
    Final optimized geometry and variables:
    Molecular point group: c1

    Geometry (in Angstrom), charge = 0, multiplicity = 1:

    H           -2.192287948932     0.072907892244     1.597371316917
    O           -1.794641672923     0.872099150174     1.281899441188
    C           -1.117692059719     0.620039240577     0.079421968095
    C            0.182374910546    -0.125084500009     0.324332377884
    H           -1.733757994359     0.059045011655    -0.617708522515
    H           -0.904722854808     1.580248138044    -0.368911478886
    O            0.788765372898    -0.341530240870    -0.911805229953
    H           -0.019013694095    -1.074157827318     0.823387414747
    H            0.818236186231     0.462989642941     0.983018354050
    C            2.021292069186    -0.998992119959    -0.879020780416
    H            2.067996593665    -1.690571760001    -1.710358557087
    H            2.834907157827    -0.284608859615    -0.970921517086
    H            2.162112054929    -1.544879126395     0.049375300773

  Mulliken Charges: (a.u.)
   Center  Symbol    Alpha    Beta     Spin     Total
       1     H     0.28131  0.28131  0.00000  0.43738
       2     O     4.37092  4.37092  0.00000 -0.74185
       3     C     3.00493  3.00493  0.00000 -0.00987
       4     C     2.99647  2.99647  0.00000  0.00706
       5     H     0.42234  0.42234  0.00000  0.15532
       6     H     0.40844  0.40844  0.00000  0.18312
       7     O     4.31128  4.31128  0.00000 -0.62256
       8     H     0.43701  0.43701  0.00000  0.12597
       9     H     0.42348  0.42348  0.00000  0.15304
      10     C     3.07715  3.07715  0.00000 -0.15430
      11     H     0.41513  0.41513  0.00000  0.16973
      12     H     0.42265  0.42265  0.00000  0.15469
      13     H     0.42887  0.42887  0.00000  0.14226

   Total alpha = 21.00000, Total beta = 21.00000, Total charge = -0.00000
