  ==> Input File <==

--------------------------------------------------------------------------
set {
	reference rhf
	basis cc-pvtz
}

set_num_threads( 4 )
memory 2 gb

molecule MOL {
0 1

H	 3.889604	 0.356866	 -0.089510
N	 3.091268	 -0.241216	 -0.065538
C	 1.860978	 0.530248	 0.016256
H	 3.192566	 -0.835836	 0.730398
C	 0.644130	 -0.381765	 -0.031064
H	 1.835721	 1.204666	 -0.833114
H	 1.808789	 1.151975	 0.911067
C	 -0.678115	 0.376691	 0.025731
H	 0.693998	 -0.977147	 -0.936845
H	 0.693309	 -1.082142	 0.800523
C	 -0.525496	 1.876235	 -0.213599
H	 -1.143122	 0.216406	 0.995799
H	 -1.364640	 -0.033685	 -0.711254
C	 -1.848667	 2.631750	 -0.149651
H	 0.160408	 2.288084	 0.521389
H	 -0.064512	 2.039261	 -1.184005
H	 -2.318330	 2.517004	 0.821683
H	 -1.704791	 3.691979	 -0.323493
H	 -2.545122	 2.265861	 -0.896921

	symmetry c1
}
set optking {
	frozen_dihedral = ("
		12 8 5 9
	")
}

ee = optimize('scf')
oeprop('DIPOLE', 'QUADRUPOLE', 'MULLIKEN_CHARGES')
f=open( 'psi4out.xyz', 'w' )
f.write( "19  " )
f.write( str(ee) + "\n" )
f.write( MOL.save_string_xyz() )
f.close()
--------------------------------------------------------------------------

    Molecular point group: c1
  Charge       = 0
  Multiplicity = 1
  Basis Set: CC-PVTZ
  Basis Set:
  @DF-RHF Final Energy:  -251.43497971207111
    Total Energy =                       -251.4349797120713106
    Molecular point group: c1
  Basis Set: CC-PVTZ
  Basis Set:
  Basis Set: CC-PVTZ
  Basis Set:
  @DF-RHF Final Energy:  -251.43606246276420
    Total Energy =                       -251.4360624627643119
  Basis Set: CC-PVTZ
  Basis Set:
  Basis Set: CC-PVTZ
  Basis Set:
  @DF-RHF Final Energy:  -251.43908607608935
    Total Energy =                       -251.4390860760892110
  Basis Set: CC-PVTZ
  Basis Set:
  Basis Set: CC-PVTZ
  Basis Set:
  @DF-RHF Final Energy:  -251.43950548775769
    Total Energy =                       -251.4395054877577422
  Basis Set: CC-PVTZ
  Basis Set:
  Basis Set: CC-PVTZ
  Basis Set:
  @DF-RHF Final Energy:  -251.43956114701146
    Total Energy =                       -251.4395611470113749
  Basis Set: CC-PVTZ
  Basis Set:
  Basis Set: CC-PVTZ
  Basis Set:
  @DF-RHF Final Energy:  -251.43956628781714
    Total Energy =                       -251.4395662878172288
  Basis Set: CC-PVTZ
  Basis Set:
  Basis Set: CC-PVTZ
  Basis Set:
  @DF-RHF Final Energy:  -251.43957021147037
    Total Energy =                       -251.4395702114704818
  Basis Set: CC-PVTZ
  Basis Set:
  Charge       = 0
  Multiplicity = 1
  Basis Set: CC-PVTZ
  Basis Set:

    Orbital Energies (a.u.)
    -----------------------

    Doubly Occupied:

       1A    -15.526158     2A    -11.237708     3A    -11.212663
       4A    -11.210961     5A    -11.208183     6A    -11.205872
       7A     -1.178107     8A     -1.071228     9A     -0.995934
      10A     -0.900565    11A     -0.836546    12A     -0.768710
      13A     -0.664368    14A     -0.641310    15A     -0.615591
      16A     -0.589951    17A     -0.572893    18A     -0.550046
      19A     -0.525108    20A     -0.503204    21A     -0.491165
      22A     -0.459474    23A     -0.453419    24A     -0.446456
      25A     -0.383245

  @DF-RHF Final Energy:  -251.43957037503509

   => Energetics <=

    Nuclear Repulsion Energy =            249.6617416618782386
    One-Electron Energy =                -833.7048913388916844
    Two-Electron Energy =                 332.6035793019783000
    DFT Exchange-Correlation Energy =       0.0000000000000000
    Empirical Dispersion Energy =           0.0000000000000000
    PCM Polarization Energy =               0.0000000000000000
    EFP Energy =                            0.0000000000000000
    Total Energy =                       -251.4395703750350890
    Molecular point group: c1
  Basis Set: CC-PVTZ
  Basis Set:

  -Total Gradient:
     Atom            X                  Y                   Z
    ------   -----------------  -----------------  -----------------
       1       -0.000002637724     0.000001446616     0.000005435492
       2       -0.000010231478    -0.000003420776     0.000026043845
       3        0.000011028065     0.000004117346    -0.000080539540
       4        0.000007932407    -0.000006152634     0.000001111868
       5        0.002187451542     0.004226628582    -0.003735432552
       6        0.000007740124     0.000000389361     0.000005099454
       7       -0.000007602976    -0.000008725875     0.000004609792
       8        0.002747665724     0.004303374295     0.003063405385
       9       -0.002234885436    -0.004220691599     0.002640649306
      10       -0.000009255189    -0.000004382398    -0.000001315612
      11       -0.000007660645     0.000010074853     0.000038626325
      12       -0.002686632967    -0.004296874040    -0.001960291805
      13        0.000004115488    -0.000003416831     0.000005809526
      14       -0.000000779936    -0.000003275214    -0.000013236856
      15       -0.000002179959     0.000004894468     0.000001664049
      16       -0.000002317053    -0.000005716941     0.000002996559
      17        0.000005549711    -0.000000054600    -0.000002559561
      18       -0.000001981600     0.000002369472    -0.000005077505
      19       -0.000005318101    -0.000000584083     0.000003001831

  **** Optimization is complete! (in 8 steps) ****
    Final optimized geometry and variables:
    Molecular point group: c1

    Geometry (in Angstrom), charge = 0, multiplicity = 1:

    H            3.522160102272    -0.673075173791     0.029519191713
    N            2.669120569215    -1.189850382311    -0.000489473995
    C            1.518445057786    -0.306871668733     0.112793598487
    H            2.693498298888    -1.843404924011     0.754246766122
    C            0.232155219973    -1.113861051586     0.003838996182
    H            1.578698891315     0.413760444169    -0.693345726816
    H            1.514640529860     0.260998593483     1.043381391989
    C           -1.099276142330    -0.335555657936     0.113941626865
    H            0.251787799594    -1.694475997409    -0.910882210223
    H            0.247889464909    -1.859783929131     0.795389123667
    C           -1.065335620711     1.161735515578    -0.186917553735
    H           -1.539420547859    -0.505131067144     1.092095093392
    H           -1.803666745481    -0.792759207172    -0.575475564414
    C           -2.448167625657     1.799361891808    -0.096354649253
    H           -0.396672159542     1.669570098232     0.499807996857
    H           -0.664078534886     1.324488175122    -1.182879957699
    H           -2.868167465490     1.682664580216     0.897258124749
    H           -2.406156647354     2.860318915677    -0.314833104211
    H           -3.136732747304     1.343572764065    -0.800014364843

  Mulliken Charges: (a.u.)
   Center  Symbol    Alpha    Beta     Spin     Total
       1     H     0.43033  0.43033  0.00000  0.13933
       2     N     3.69001  3.69001  0.00000 -0.38001
       3     C     3.02882  3.02882  0.00000 -0.05763
       4     H     0.43107  0.43107  0.00000  0.13787
       5     C     3.08957  3.08957  0.00000 -0.17914
       6     H     0.45350  0.45350  0.00000  0.09301
       7     H     0.46588  0.46588  0.00000  0.06825
       8     C     3.09723  3.09723  0.00000 -0.19445
       9     H     0.44634  0.44634  0.00000  0.10731
      10     H     0.45845  0.45845  0.00000  0.08311
      11     C     3.09102  3.09102  0.00000 -0.18205
      12     H     0.45291  0.45291  0.00000  0.09417
      13     H     0.45197  0.45197  0.00000  0.09607
      14     C     3.15016  3.15016  0.00000 -0.30032
      15     H     0.45238  0.45238  0.00000  0.09524
      16     H     0.45203  0.45203  0.00000  0.09593
      17     H     0.45534  0.45534  0.00000  0.08932
      18     H     0.44839  0.44839  0.00000  0.10322
      19     H     0.45461  0.45461  0.00000  0.09078

   Total alpha = 25.00000, Total beta = 25.00000, Total charge = -0.00000
