                              Psi4 1.0.54 Driver

  ==> Input File <==

--------------------------------------------------------------------------
set {
	reference rhf
	basis cc-pvtz
}

set_num_threads( 4 )
memory 2 gb

molecule MOL {
0 1

H	 1.712927	 -2.948106	 -0.111545
C	 1.457916	 -1.950959	 -0.454261
C	 0.408423	 -1.332983	 0.459618
H	 1.079150	 -2.021410	 -1.466433
H	 2.371976	 -1.370848	 -0.480673
N	 0.000297	 0.000045	 0.046090
H	 -0.461912	 -1.974515	 0.451294
H	 0.770681	 -1.328432	 1.491451
C	 -1.359159	 0.315706	 0.454404
C	 0.952328	 1.022265	 0.450103
C	 -2.416729	 -0.286720	 -0.460525
H	 -1.478729	 1.390261	 0.442008
H	 -1.539692	 0.003361	 1.486761
C	 0.956895	 2.236161	 -0.469068
H	 1.943326	 0.590003	 0.438613
H	 0.772303	 1.338209	 1.481453
H	 -2.285276	 0.073129	 -1.473515
H	 -2.371743	 -1.368476	 -0.483209
H	 -3.408658	 -0.007405	 -0.121593
H	 1.202945	 1.939301	 -1.481116
H	 -0.003346	 2.736293	 -0.493153
H	 1.693569	 2.958050	 -0.132914

	symmetry c1
}
set optking {
	frozen_dihedral = ("
		3 6 9 11
	")
}

ee,wfn = optimize('scf', return_wfn=True)
oeprop( wfn, 'DIPOLE', 'QUADRUPOLE', 'MULLIKEN_CHARGES')
f=open( 'psi4out.xyz', 'w' )
f.write( "22  " )
f.write( str(ee) + "\n" )
f.write( MOL.save_string_xyz() )
f.close()
--------------------------------------------------------------------------

    Molecular point group: c1
  Charge       = 0
  Multiplicity = 1
  Basis Set: CC-PVTZ
  Basis Set:
  @DF-RHF Final Energy:  -290.47669520137470
    Total Energy =                       -290.4766952013746391
    Molecular point group: c1
  Basis Set: CC-PVTZ
  Basis Set:
  Charge       = 0
  Multiplicity = 1
  Basis Set: CC-PVTZ
  Basis Set:

    Orbital Energies (a.u.)
    -----------------------

    Doubly Occupied:

       1A    -15.533115     2A    -11.238728     3A    -11.238718
       4A    -11.238698     5A    -11.203748     6A    -11.203738
       7A    -11.203720     8A     -1.226325     9A     -1.024663
      10A     -1.024634    11A     -0.956941    12A     -0.846958
      13A     -0.846858    14A     -0.772891    15A     -0.647032
      16A     -0.646968    17A     -0.621791    18A     -0.592271
      19A     -0.592211    20A     -0.550831    21A     -0.533117
      22A     -0.519237    23A     -0.519175    24A     -0.494147
      25A     -0.494081    26A     -0.491167    27A     -0.462105
      28A     -0.462062    29A     -0.343975

  @DF-RHF Final Energy:  -290.47669519033826

   => Energetics <=

    Nuclear Repulsion Energy =            337.8347927067308660
    One-Electron Energy =               -1061.5631520373622152
    Two-Electron Energy =                 433.2516641402931441
    DFT Exchange-Correlation Energy =       0.0000000000000000
    Empirical Dispersion Energy =           0.0000000000000000
    PCM Polarization Energy =               0.0000000000000000
    EFP Energy =                            0.0000000000000000
    Total Energy =                       -290.4766951903381482
    Molecular point group: c1
  Basis Set: CC-PVTZ
  Basis Set:

  -Total Gradient:
     Atom            X                  Y                   Z
    ------   -----------------  -----------------  -----------------
       1        0.000001445154    -0.000004267058     0.000003120212
       2        0.000001772090     0.000015586288     0.000009014888
       3        0.000002340861     0.000031749780     0.000027208042
       4       -0.000002813909     0.000002588572     0.000002985600
       5        0.000005444935     0.000018923989     0.000003003958
       6       -0.000006354516    -0.000025257029    -0.000072427799
       7       -0.000017936130    -0.000001957246     0.000006170712
       8        0.000004231180     0.000005530039    -0.000012713675
       9        0.000009598239    -0.000032782680     0.000041823292
      10       -0.000052252316     0.000015405089     0.000014921964
      11        0.000015246714     0.000041972297    -0.000016760329
      12       -0.000022080855    -0.000035889266     0.000008013924
      13       -0.000006365730    -0.000005777078     0.000000038909
      14        0.000019584370    -0.000004031082    -0.000009021697
      15        0.000006197745    -0.000026160084    -0.000019625193
      16        0.000009624264     0.000002999832     0.000019033105
      17       -0.000000820722     0.000002040429    -0.000002782638
      18        0.000007703374    -0.000007771594     0.000003931562
      19       -0.000003325915     0.000002187183     0.000005498614
      20        0.000000105439     0.000005457298    -0.000006332348
      21        0.000027027676     0.000000085833    -0.000001548262
      22        0.000001628051    -0.000000633508    -0.000003552843

  **** Optimization is complete! (in 2 steps) ****
    Final optimized geometry and variables:
    Molecular point group: c1

    Geometry (in Angstrom), charge = 0, multiplicity = 1:

    H            1.714564703538    -2.946967063096    -0.110895373312
    C            1.458789953382    -1.949982053581    -0.453621576530
    C            0.408090177607    -1.333108901470     0.459584204866
    H            1.080723204073    -2.020555933834    -1.466056410297
    H            2.372304116780    -1.368932291210    -0.479260776654
    N           -0.000362684480    -0.000198139476     0.046291575571
    H           -0.461880599893    -1.975193623362     0.450334576871
    H            0.769654863312    -1.328646157465     1.491652574551
    C           -1.359567443718     0.314862345091     0.455913464935
    C            0.952066532310     1.021726892525     0.449984297785
    C           -2.417410220688    -0.288109113002    -0.458312767680
    H           -1.480032544805     1.389300015762     0.443784511535
    H           -1.539024615936     0.002229489418     1.488342514046
    C            0.958277698942     2.234856386550    -0.470222231670
    H            1.942738383752     0.588627156237     0.438941723917
    H            0.772100539206     1.338523277110     1.481100637572
    H           -2.287439314155     0.072732582263    -1.471149427409
    H           -2.370756671216    -1.369821210074    -0.481896006459
    H           -3.409422385413    -0.010550824775    -0.118085626150
    H            1.203608370027     1.936695550282    -1.482083289361
    H           -0.001181845445     2.736451043937    -0.494490899543
    H            1.696145672515     2.955937213520    -0.134888390446

  Mulliken Charges: (a.u.)
   Center  Symbol    Alpha    Beta     Spin     Total
       1     H     0.45319  0.45319  0.00000  0.09362
       2     C     3.14109  3.14109  0.00000 -0.28219
       3     C     3.04468  3.04468  0.00000 -0.08936
       4     H     0.45168  0.45168  0.00000  0.09663
       5     H     0.45627  0.45627  0.00000  0.08746
       6     N     3.62374  3.62374  0.00000 -0.24748
       7     H     0.44920  0.44920  0.00000  0.10159
       8     H     0.46265  0.46265  0.00000  0.07470
       9     C     3.04481  3.04481  0.00000 -0.08962
      10     C     3.04474  3.04474  0.00000 -0.08948
      11     C     3.14092  3.14092  0.00000 -0.28184
      12     H     0.44918  0.44918  0.00000  0.10163
      13     H     0.46257  0.46257  0.00000  0.07486
      14     C     3.14105  3.14105  0.00000 -0.28211
      15     H     0.44921  0.44921  0.00000  0.10158
      16     H     0.46262  0.46262  0.00000  0.07476
      17     H     0.45171  0.45171  0.00000  0.09659
      18     H     0.45629  0.45629  0.00000  0.08743
      19     H     0.45325  0.45325  0.00000  0.09350
      20     H     0.45169  0.45169  0.00000  0.09662
      21     H     0.45625  0.45625  0.00000  0.08749
      22     H     0.45320  0.45320  0.00000  0.09360

   Total alpha = 29.00000, Total beta = 29.00000, Total charge =  0.00000

*** Psi4 exiting successfully. Buy a developer a beer!
