  ==> Input File <==

--------------------------------------------------------------------------
set {
	reference rhf
	basis cc-pvtz
}

set_num_threads( 4 )
memory 2 gb

molecule MOL {
0 1

O	 -2.817697	 1.304178	 0.001046
C	 -2.664672	 0.129869	 0.003507
C	 -3.797908	 -0.860100	 -0.001145
O	 -1.481217	 -0.452708	 0.001092
H	 -4.408836	 -0.679689	 -0.875387
H	 -3.443486	 -1.878443	 -0.002770
H	 -4.412123	 -0.683688	 0.871605
C	 -0.332055	 0.384012	 -0.000250
C	 0.892252	 -0.506059	 -0.000295
H	 -0.360822	 1.020205	 -0.874146
H	 -0.359817	 1.021310	 0.872861
C	 2.129831	 0.219161	 0.520105
H	 1.068461	 -0.861968	 -1.010220
H	 0.691362	 -1.380874	 0.609629
C	 3.377644	 -0.659472	 0.529723
H	 2.317616	 1.099294	 -0.089878
H	 1.940748	 0.581755	 1.527452
C	 4.614313	 0.064500	 1.050799
H	 3.568641	 -1.020999	 -0.476694
H	 3.191243	 -1.539243	 1.139103
H	 4.846903	 0.930786	 0.440638
H	 5.481046	 -0.586071	 1.044767
H	 4.466452	 0.408813	 2.068856

	symmetry c1
}
set optking {
	frozen_dihedral = ("
		13 9 8 10
	")
}

ee = optimize('scf')
oeprop('DIPOLE', 'QUADRUPOLE', 'MULLIKEN_CHARGES')
f=open( 'psi4out.xyz', 'w' )
f.write( "23  " )
f.write( str(ee) + "\n" )
f.write( MOL.save_string_xyz() )
f.close()
--------------------------------------------------------------------------

    Molecular point group: c1
  Charge       = 0
  Multiplicity = 1
  Basis Set: CC-PVTZ
  Basis Set:
  @DF-RHF Final Energy:  -423.13303584663322
    Total Energy =                       -423.1330358466335611
    Molecular point group: c1
  Basis Set: CC-PVTZ
  Basis Set:
  Basis Set: CC-PVTZ
  Basis Set:
  @DF-RHF Final Energy:  -423.13298517342827
    Total Energy =                       -423.1329851734280965
  Basis Set: CC-PVTZ
  Basis Set:
  Basis Set: CC-PVTZ
  Basis Set:
  @DF-RHF Final Energy:  -423.13240374382616
    Total Energy =                       -423.1324037438261030
  Basis Set: CC-PVTZ
  Basis Set:
  Basis Set: CC-PVTZ
  Basis Set:
  @DF-RHF Final Energy:  -423.13326295771537
    Total Energy =                       -423.1332629577156013
  Basis Set: CC-PVTZ
  Basis Set:
  Basis Set: CC-PVTZ
  Basis Set:
  @DF-RHF Final Energy:  -423.13328811277790
    Total Energy =                       -423.1332881127783594
  Basis Set: CC-PVTZ
  Basis Set:
  Charge       = 0
  Multiplicity = 1
  Basis Set: CC-PVTZ
  Basis Set:

    Orbital Energies (a.u.)
    -----------------------

    Doubly Occupied:

       1A    -20.595230     2A    -20.529135     3A    -11.365938
       4A    -11.279848     5A    -11.230439     6A    -11.222420
       7A    -11.221168     8A    -11.219325     9A    -11.210876
      10A     -1.470412    11A     -1.363306    12A     -1.094919
      13A     -1.042818    14A     -1.003910    15A     -0.931472
      16A     -0.842456    17A     -0.802495    18A     -0.776072
      19A     -0.694424    20A     -0.687477    21A     -0.670413
      22A     -0.648203    23A     -0.607806    24A     -0.588027
      25A     -0.583805    26A     -0.568402    27A     -0.559380
      28A     -0.537479    29A     -0.524838    30A     -0.504945
      31A     -0.493917    32A     -0.476925    33A     -0.471666
      34A     -0.466520    35A     -0.454274    36A     -0.438411

  @DF-RHF Final Energy:  -423.13328887730557

   => Energetics <=

    Nuclear Repulsion Energy =            450.4963093515944479
    One-Electron Energy =               -1468.9008872388862983
    Two-Electron Energy =                 595.2712890099858214
    DFT Exchange-Correlation Energy =       0.0000000000000000
    Empirical Dispersion Energy =           0.0000000000000000
    PCM Polarization Energy =               0.0000000000000000
    EFP Energy =                            0.0000000000000000
    Total Energy =                       -423.1332888773060859
    Molecular point group: c1
  Basis Set: CC-PVTZ
  Basis Set:

  -Total Gradient:
     Atom            X                  Y                   Z
    ------   -----------------  -----------------  -----------------
       1        0.000017758088    -0.000046748907    -0.000018211621
       2       -0.000052530327     0.000067639014     0.000073911459
       3        0.000013054347    -0.000006181941    -0.000008701787
       4        0.000084437531     0.000007021283    -0.000008870329
       5       -0.000004482649    -0.000005251072    -0.000005448892
       6       -0.000000304470     0.000002842005    -0.000001830923
       7        0.000001811942     0.000004735085    -0.000005945720
       8        0.003009893343     0.004197885858     0.002134126442
       9       -0.003319182789    -0.004490017166     0.000397013074
      10       -0.002016404143    -0.002758733600    -0.001900370896
      11        0.000020084584    -0.000003906994     0.000014024644
      12       -0.000008832021    -0.000019024321     0.000077355436
      13        0.002240922546     0.003039489163    -0.000734785314
      14        0.000032000138     0.000004942539     0.000000785322
      15        0.000002304297    -0.000001817773     0.000001637799
      16        0.000006246356    -0.000013808526     0.000004534523
      17       -0.000017948340     0.000013662044     0.000016363254
      18       -0.000005532999     0.000012427750    -0.000029689532
      19        0.000004038180    -0.000019389291    -0.000002062748
      20       -0.000006140487     0.000010464587     0.000009798023
      21        0.000007512962     0.000012489023     0.000002333317
      22       -0.000002616892     0.000001111391    -0.000010323646
      23       -0.000006089205    -0.000009830153    -0.000005641885

  **** Optimization is complete! (in 6 steps) ****
    Final optimized geometry and variables:
    Molecular point group: c1

    Geometry (in Angstrom), charge = 0, multiplicity = 1:

    O           -2.785686597616     1.347393069849    -0.281386338024
    C           -2.643235599118     0.171739488201    -0.259045314851
    C           -3.785222032015    -0.808091833298    -0.287605080691
    O           -1.466343688832    -0.420576662441    -0.205779632815
    H           -4.364624642058    -0.634929109515    -1.184553022542
    H           -3.440661752992    -1.829551226328    -0.262701487279
    H           -4.426818911632    -0.613403903863     0.561325082509
    C           -0.308523309832     0.408856496846    -0.178051526977
    C            0.909566778824    -0.496003929735    -0.155662328121
    H           -0.325423749927     1.030426904166    -1.061771455466
    H           -0.355205168779     1.045252415338     0.694206287728
    C            2.157996609251     0.243290354162     0.322946964431
    H            1.092850166939    -0.873246809827    -1.156334270332
    H            0.710613198364    -1.344502486531     0.488269041869
    C            3.416973103881    -0.617628066740     0.279210504032
    H            2.311411185089     1.130339488584    -0.287656891142
    H            2.000234049768     0.597102081822     1.338563180955
    C            4.661430251963     0.117991255791     0.764238863924
    H            3.577832585233    -0.966575906712    -0.736959465034
    H            3.263777548635    -1.506209565957     0.885404250205
    H            4.859629743952     0.994735058141     0.156740543977
    H            5.536376700943    -0.519978472735     0.718905568906
    H            4.545776690133     0.448153827546     1.791139388364

  Mulliken Charges: (a.u.)
   Center  Symbol    Alpha    Beta     Spin     Total
       1     O     4.20284  4.20284  0.00000 -0.40568
       2     C     2.81329  2.81329  0.00000  0.37343
       3     C     3.13970  3.13970  0.00000 -0.27940
       4     O     4.14595  4.14595  0.00000 -0.29190
       5     H     0.44218  0.44218  0.00000  0.11565
       6     H     0.44197  0.44197  0.00000  0.11606
       7     H     0.44225  0.44225  0.00000  0.11549
       8     C     2.98015  2.98015  0.00000  0.03970
       9     C     3.08321  3.08321  0.00000 -0.16641
      10     H     0.45195  0.45195  0.00000  0.09610
      11     H     0.45457  0.45457  0.00000  0.09086
      12     C     3.09710  3.09710  0.00000 -0.19420
      13     H     0.45184  0.45184  0.00000  0.09631
      14     H     0.44845  0.44845  0.00000  0.10311
      15     C     3.08539  3.08539  0.00000 -0.17077
      16     H     0.45313  0.45313  0.00000  0.09373
      17     H     0.45270  0.45270  0.00000  0.09461
      18     C     3.14943  3.14943  0.00000 -0.29886
      19     H     0.45352  0.45352  0.00000  0.09297
      20     H     0.45351  0.45351  0.00000  0.09297
      21     H     0.45461  0.45461  0.00000  0.09079
      22     H     0.44775  0.44775  0.00000  0.10451
      23     H     0.45453  0.45453  0.00000  0.09093

   Total alpha = 36.00000, Total beta = 36.00000, Total charge = -0.00000
