                              Psi4 1.0.54 Driver

  ==> Input File <==

--------------------------------------------------------------------------
set {
	reference rhf
	basis cc-pvtz
}

set_num_threads( 4 )
memory 2 gb

molecule MOL {
0 1

O	 0.933161	 1.751544	 0.498396
C	 0.297705	 1.426058	 1.442491
C	 -0.974597	 0.619006	 1.405366
O	 0.633006	 1.737887	 2.683745
C	 -1.413045	 0.229353	 0.001137
H	 -0.816563	 -0.257523	 2.025206
H	 -1.739135	 1.202173	 1.908218
C	 -2.702562	 -0.586401	 0.000228
H	 -0.620922	 -0.335339	 -0.477616
H	 -1.545003	 1.125623	 -0.594540
C	 -3.953810	 0.284959	 -0.000782
H	 -2.717793	 -1.238567	 -0.869075
H	 -2.719108	 -1.238472	 0.869576
H	 -3.983727	 0.924403	 -0.876454
H	 -4.852989	 -0.320147	 -0.001515
H	 -3.985140	 0.924399	 0.874841
C	 1.810989	 2.497021	 2.866473
H	 2.669929	 1.966336	 2.483298
H	 1.908355	 2.644040	 3.929851
H	 1.732483	 3.449716	 2.364047

	symmetry c1
}
set optking {
	frozen_dihedral = ("
		9 5 8 12
	")
}

ee,wfn = optimize('scf', return_wfn=True)
oeprop( wfn, 'DIPOLE', 'QUADRUPOLE', 'MULLIKEN_CHARGES')
f=open( 'psi4out.xyz', 'w' )
f.write( "20  " )
f.write( str(ee) + "\n" )
f.write( MOL.save_string_xyz() )
f.close()
--------------------------------------------------------------------------

    Molecular point group: c1
  Charge       = 0
  Multiplicity = 1
  Basis Set: CC-PVTZ
  Basis Set:
  @DF-RHF Final Energy:  -384.08015202469517
    Total Energy =                       -384.0801520246956215
    Molecular point group: c1
  Basis Set: CC-PVTZ
  Basis Set:
  Basis Set: CC-PVTZ
  Basis Set:
  @DF-RHF Final Energy:  -384.08038578973333
    Total Energy =                       -384.0803857897334410
  Basis Set: CC-PVTZ
  Basis Set:
  Basis Set: CC-PVTZ
  Basis Set:
  @DF-RHF Final Energy:  -384.08008491881225
    Total Energy =                       -384.0800849188120765
  Basis Set: CC-PVTZ
  Basis Set:
  Basis Set: CC-PVTZ
  Basis Set:
  @DF-RHF Final Energy:  -384.08042990367204
    Total Energy =                       -384.0804299036718703
  Basis Set: CC-PVTZ
  Basis Set:
  Charge       = 0
  Multiplicity = 1
  Basis Set: CC-PVTZ
  Basis Set:

    Orbital Energies (a.u.)
    -----------------------

    Doubly Occupied:

       1A    -20.596437     2A    -20.534289     3A    -11.364713
       4A    -11.278569     5A    -11.234065     6A    -11.218381
       7A    -11.217190     8A    -11.210638     9A     -1.472311
      10A     -1.365935    11A     -1.089370    12A     -1.024114
      13A     -0.969111    14A     -0.892521    15A     -0.802493
      16A     -0.768055    17A     -0.703391    18A     -0.685909
      19A     -0.676469    20A     -0.632504    21A     -0.612333
      22A     -0.596482    23A     -0.572650    24A     -0.548326
      25A     -0.530311    26A     -0.524868    27A     -0.513539
      28A     -0.475209    29A     -0.473687    30A     -0.467316
      31A     -0.458901    32A     -0.440451

  @DF-RHF Final Energy:  -384.08043478494272

   => Energetics <=

    Nuclear Repulsion Energy =            384.5935872459520510
    One-Electron Energy =               -1285.4469663439545002
    Two-Electron Energy =                 516.7729443130596110
    DFT Exchange-Correlation Energy =       0.0000000000000000
    Empirical Dispersion Energy =           0.0000000000000000
    PCM Polarization Energy =               0.0000000000000000
    EFP Energy =                            0.0000000000000000
    Total Energy =                       -384.0804347849428950
    Molecular point group: c1
  Basis Set: CC-PVTZ
  Basis Set:

  -Total Gradient:
     Atom            X                  Y                   Z
    ------   -----------------  -----------------  -----------------
       1        0.000003313835    -0.000024183225    -0.000096316246
       2       -0.000028359153     0.000034945920     0.000025844148
       3        0.000036413803     0.000017671670     0.000100220885
       4       -0.000030287100    -0.000035428868     0.000056697042
       5        0.001079633488    -0.002067623400     0.003594501546
       6        0.000000727474     0.000001198531    -0.000012838351
       7        0.000012629310    -0.000003394804    -0.000004004051
       8       -0.001667057668     0.002968810711    -0.002585736104
       9       -0.000651584781     0.001308323931    -0.002667119381
      10        0.000012957261    -0.000024132086    -0.000003222455
      11       -0.000038069749     0.000081782903     0.000001090543
      12        0.001238190192    -0.002224891513     0.001631195558
      13        0.000002786950    -0.000004601691    -0.000024411443
      14        0.000016051979    -0.000006345995    -0.000006196901
      15        0.000023953626    -0.000012633668     0.000005988219
      16       -0.000006242427    -0.000008202972    -0.000003581738
      17        0.000003402004     0.000004620918    -0.000026180254
      18       -0.000000760035     0.000003251085     0.000005815206
      19       -0.000012507763    -0.000008340040     0.000001274581
      20        0.000004808758    -0.000000827404     0.000006979197

  **** Optimization is complete! (in 5 steps) ****
    Final optimized geometry and variables:
    Molecular point group: c1

    Geometry (in Angstrom), charge = 0, multiplicity = 1:

    O            1.600232531680     0.715376857992    -0.593392628081
    C            0.946782312154     0.384883048055     0.336564461310
    C           -0.332359884405    -0.409489345258     0.270321723530
    O            1.265628703302     0.677636237616     1.586888759517
    C           -0.746932776824    -0.784516375254    -1.145742158570
    H           -0.191974254529    -1.293924603921     0.882805593620
    H           -1.096840545094     0.176653199595     0.768433631894
    C           -2.075445658240    -1.548031110810    -1.203815991960
    H            0.036952721151    -1.368145898584    -1.612048090663
    H           -0.821058841138     0.116995061415    -1.743962749332
    C           -3.309325026682    -0.650748535710    -1.197923039569
    H           -2.083991934920    -2.176075177834    -2.087835333497
    H           -2.130692941066    -2.237848333991    -0.365093053988
    H           -3.317855474410     0.001716565885    -2.064162749999
    H           -4.219299613906    -1.239262532601    -1.216635788431
    H           -3.344955127786    -0.023739301704    -0.313502406144
    C            2.448466636906     1.421684191876     1.797748134604
    H            3.307753996179     0.886667846819     1.421439733204
    H            2.530461055160     1.554208824498     2.864331419940
    H            2.388050745157     2.381453132783     1.306407125709

  Mulliken Charges: (a.u.)
   Center  Symbol    Alpha    Beta     Spin     Total
       1     O     4.19674  4.19674  0.00000 -0.39347
       2     C     2.80531  2.80531  0.00000  0.38938
       3     C     3.09986  3.09986  0.00000 -0.19973
       4     O     4.14715  4.14715  0.00000 -0.29430
       5     C     3.08839  3.08839  0.00000 -0.17677
       6     H     0.43979  0.43979  0.00000  0.12041
       7     H     0.44026  0.44026  0.00000  0.11949
       8     C     3.09363  3.09363  0.00000 -0.18727
       9     H     0.44130  0.44130  0.00000  0.11741
      10     H     0.44818  0.44818  0.00000  0.10365
      11     C     3.14767  3.14767  0.00000 -0.29533
      12     H     0.44525  0.44525  0.00000  0.10951
      13     H     0.45790  0.45790  0.00000  0.08419
      14     H     0.45301  0.45301  0.00000  0.09398
      15     H     0.44729  0.44729  0.00000  0.10542
      16     H     0.45665  0.45665  0.00000  0.08670
      17     C     3.03778  3.03778  0.00000 -0.07555
      18     H     0.45428  0.45428  0.00000  0.09144
      19     H     0.44528  0.44528  0.00000  0.10943
      20     H     0.45429  0.45429  0.00000  0.09141

   Total alpha = 32.00000, Total beta = 32.00000, Total charge = -0.00000

*** Psi4 exiting successfully. Buy a developer a beer!
