                              Psi4 1.0.54 Driver

  ==> Input File <==

--------------------------------------------------------------------------
set {
	reference rhf
	basis cc-pvtz
}

set_num_threads( 4 )
memory 2 gb

molecule MOL {
0 1

O	 1.539401	 1.829190	 0.483690
C	 0.810494	 1.669831	 1.402569
C	 -0.490359	 0.909481	 1.366671
O	 1.051941	 2.152037	 2.610707
C	 -0.824290	 0.329213	 -0.000115
H	 -0.427542	 0.130680	 2.119647
H	 -1.267139	 1.586556	 1.706706
C	 -2.146151	 -0.432825	 -0.000068
H	 -0.021014	 -0.326857	 -0.315698
H	 -0.861330	 1.130702	 -0.729179
C	 -3.366283	 0.483552	 0.000557
H	 -2.189286	 -1.084450	 -0.869996
H	 -2.188867	 -1.085083	 0.869399
C	 -4.687436	 -0.278003	 0.000108
H	 -3.325150	 1.134819	 -0.867957
H	 -3.325087	 1.133730	 0.869885
H	 -4.773783	 -0.912098	 -0.876078
H	 -5.531922	 0.401392	 0.000363
H	 -4.773901	 -0.912898	 0.875703
C	 2.244120	 2.889859	 2.788615
H	 3.106998	 2.279248	 2.567688
H	 2.256261	 3.190735	 3.823590
H	 2.253966	 3.758867	 2.147568

	symmetry c1
}
set optking {
	frozen_dihedral = ("
		9 5 8 12
	")
}

ee,wfn = optimize('scf', return_wfn=True)
oeprop( wfn, 'DIPOLE', 'QUADRUPOLE', 'MULLIKEN_CHARGES')
f=open( 'psi4out.xyz', 'w' )
f.write( "23  " )
f.write( str(ee) + "\n" )
f.write( MOL.save_string_xyz() )
f.close()
--------------------------------------------------------------------------

    Molecular point group: c1
  Charge       = 0
  Multiplicity = 1
  Basis Set: CC-PVTZ
  Basis Set:
  @DF-RHF Final Energy:  -423.12876236054063
    Total Energy =                       -423.1287623605403496
    Molecular point group: c1
  Basis Set: CC-PVTZ
  Basis Set:
  Basis Set: CC-PVTZ
  Basis Set:
  @DF-RHF Final Energy:  -423.12901404164296
    Total Energy =                       -423.1290140416435861
  Basis Set: CC-PVTZ
  Basis Set:
  Basis Set: CC-PVTZ
  Basis Set:
  @DF-RHF Final Energy:  -423.12892883202863
    Total Energy =                       -423.1289288320288051
  Basis Set: CC-PVTZ
  Basis Set:
  Basis Set: CC-PVTZ
  Basis Set:
  @DF-RHF Final Energy:  -423.12906422538805
    Total Energy =                       -423.1290642253884471
  Basis Set: CC-PVTZ
  Basis Set:
  Basis Set: CC-PVTZ
  Basis Set:
  @DF-RHF Final Energy:  -423.12906655523250
    Total Energy =                       -423.1290665552326118
  Basis Set: CC-PVTZ
  Basis Set:
  Charge       = 0
  Multiplicity = 1
  Basis Set: CC-PVTZ
  Basis Set:

    Orbital Energies (a.u.)
    -----------------------

    Doubly Occupied:

       1A    -20.596240     2A    -20.534079     3A    -11.364523
       4A    -11.278437     5A    -11.233501     6A    -11.217294
       7A    -11.216548     8A    -11.215726     9A    -11.208955
      10A     -1.472124    11A     -1.365719    12A     -1.094518
      13A     -1.043571    14A     -0.988083    15A     -0.933515
      16A     -0.849820    17A     -0.793647    18A     -0.767000
      19A     -0.703550    20A     -0.685494    21A     -0.676368
      22A     -0.634150    23A     -0.625417    24A     -0.600718
      25A     -0.576960    26A     -0.558544    27A     -0.556653
      28A     -0.529430    29A     -0.522143    30A     -0.506476
      31A     -0.492766    32A     -0.469367    33A     -0.466248
      34A     -0.461482    35A     -0.453843    36A     -0.440208

  @DF-RHF Final Energy:  -423.12906715195584

   => Energetics <=

    Nuclear Repulsion Energy =            457.4814963995214612
    One-Electron Energy =               -1482.9548959817702780
    Two-Electron Energy =                 602.3443324302932069
    DFT Exchange-Correlation Energy =       0.0000000000000000
    Empirical Dispersion Energy =           0.0000000000000000
    PCM Polarization Energy =               0.0000000000000000
    EFP Energy =                            0.0000000000000000
    Total Energy =                       -423.1290671519557236
    Molecular point group: c1
  Basis Set: CC-PVTZ
  Basis Set:

  -Total Gradient:
     Atom            X                  Y                   Z
    ------   -----------------  -----------------  -----------------
       1        0.000002206387    -0.000001411033    -0.000014369942
       2       -0.000006401192     0.000015177923     0.000024772966
       3        0.000027555731    -0.000024598588    -0.000006383859
       4        0.000000160398    -0.000005750947     0.000003497699
       5        0.000436593470    -0.000800682779     0.002080073782
       6       -0.000004369285     0.000006134913    -0.000002549888
       7       -0.000008299740     0.000005237868    -0.000010525137
       8       -0.000847974041     0.001543091804    -0.001400373977
       9       -0.000215187906     0.000443078474    -0.001523021901
      10        0.000004227771    -0.000001139539     0.000005072405
      11        0.000004094799    -0.000026366138    -0.000022686511
      12        0.000657412567    -0.001182033452     0.000842682482
      13       -0.000006163325    -0.000005178983     0.000001678530
      14       -0.000028712015     0.000022289952     0.000013401807
      15       -0.000002222056     0.000003750861    -0.000006489761
      16        0.000000701161     0.000008044586     0.000009942373
      17        0.000003231552    -0.000000954003    -0.000009163991
      18       -0.000032547165    -0.000004122090     0.000005729602
      19        0.000002104236    -0.000003736942     0.000002122395
      20        0.000007864095     0.000005685690     0.000005014511
      21        0.000003716634     0.000000183351    -0.000000753017
      22        0.000000718104     0.000002187463     0.000002665843
      23        0.000001289825     0.000001111615    -0.000000336410

  **** Optimization is complete! (in 6 steps) ****
    Final optimized geometry and variables:
    Molecular point group: c1

    Geometry (in Angstrom), charge = 0, multiplicity = 1:

    O            2.173824913712     0.731169835310    -0.500233980113
    C            1.446486146424     0.596555747728     0.423807519018
    C            0.132230622397    -0.141367350595     0.404814561456
    O            1.702235769161     1.090312352586     1.624514674657
    C           -0.211817114946    -0.737364377761    -0.953911767416
    H            0.187836665651    -0.912730180323     1.166078358825
    H           -0.625604955785     0.555174425268     0.744135888144
    C           -1.537890128562    -1.501569133655    -0.969137565690
    H            0.589315696977    -1.396888089057    -1.263980125848
    H           -0.238323967079     0.054234531331    -1.694767219272
    C           -2.784615420421    -0.619325419144    -0.973665142510
    H           -1.556136690590    -2.143598386308    -1.844618571418
    H           -1.577564088106    -2.173491212335    -0.114042495059
    C           -4.079919841205    -1.423872312399    -1.010060950800
    H           -2.747381027044     0.042590484357    -1.834371789556
    H           -2.791121420943     0.021241356317    -0.097016571968
    H           -4.126376981088    -2.049674600193    -1.895031118906
    H           -4.946618766587    -0.773021826553    -1.019494302831
    H           -4.162678843989    -2.072067784956    -0.143940160683
    C            2.908310170578     1.808649718386     1.787315447958
    H            3.759042680491     1.179781097288     1.570438085888
    H            2.930942487991     2.122658492503     2.818234999306
    H            2.930822066862     2.669018055621     1.135010240305

  Mulliken Charges: (a.u.)
   Center  Symbol    Alpha    Beta     Spin     Total
       1     O     4.19700  4.19700  0.00000 -0.39401
       2     C     2.80483  2.80483  0.00000  0.39034
       3     C     3.09953  3.09953  0.00000 -0.19905
       4     O     4.14725  4.14725  0.00000 -0.29449
       5     C     3.09234  3.09234  0.00000 -0.18467
       6     H     0.44003  0.44003  0.00000  0.11994
       7     H     0.44002  0.44002  0.00000  0.11996
       8     C     3.10000  3.10000  0.00000 -0.19999
       9     H     0.44010  0.44010  0.00000  0.11980
      10     H     0.44695  0.44695  0.00000  0.10610
      11     C     3.08363  3.08363  0.00000 -0.16727
      12     H     0.44517  0.44517  0.00000  0.10967
      13     H     0.45634  0.45634  0.00000  0.08733
      14     C     3.14995  3.14995  0.00000 -0.29990
      15     H     0.45271  0.45271  0.00000  0.09458
      16     H     0.45557  0.45557  0.00000  0.08887
      17     H     0.45391  0.45391  0.00000  0.09218
      18     H     0.44794  0.44794  0.00000  0.10413
      19     H     0.45497  0.45497  0.00000  0.09007
      20     C     3.03796  3.03796  0.00000 -0.07593
      21     H     0.45425  0.45425  0.00000  0.09150
      22     H     0.44528  0.44528  0.00000  0.10944
      23     H     0.45430  0.45430  0.00000  0.09141

   Total alpha = 36.00000, Total beta = 36.00000, Total charge = -0.00000

*** Psi4 exiting successfully. Buy a developer a beer!
