  ==> Input File <==

--------------------------------------------------------------------------
set {
	reference rhf
	basis 6-31G*
}

set_num_threads( 4 )
memory 2 gb

molecule MOL {
0 1

O	 -1.865828	 0.806035	 0.721431
C	 -1.083277	 0.139568	 0.115197
C	 0.323299	 -0.082943	 0.642902
C	 -1.438696	 -0.492928	 -1.212001
C	 1.355627	 -0.005344	 -0.493127
H	 0.396251	 -1.044647	 1.143147
H	 0.528637	 0.693580	 1.371677
C	 2.786168	 -0.195604	 0.007473
H	 1.132807	 -0.760304	 -1.243899
H	 1.259610	 0.958506	 -0.981915
H	 3.495561	 -0.130713	 -0.811210
H	 2.912696	 -1.165395	 0.480041
H	 3.049284	 0.565503	 0.735850
H	 -0.692844	 -0.254162	 -1.964572
H	 -2.411140	 -0.149845	 -1.536627
H	 -1.454102	 -1.574680	 -1.108169

	symmetry c1
}
set optking {
	frozen_dihedral = ("
		4 2 3 5
	")
}

ee = optimize('scf')
oeprop('DIPOLE', 'QUADRUPOLE', 'MULLIKEN_CHARGES')
f=open( 'psi4out.xyz', 'w' )
f.write( "16  " )
f.write( str(ee) + "\n" )
f.write( MOL.save_string_xyz() )
f.close()
--------------------------------------------------------------------------

    Molecular point group: c1
  Charge       = 0
  Multiplicity = 1
  Basis Set: 6-31G*
  Basis Set:
  @DF-RHF Final Energy:  -270.02591490546666
    Total Energy =                       -270.0259149054666068
    Molecular point group: c1
  Basis Set: 6-31G*
  Basis Set:
  Basis Set: 6-31G*
  Basis Set:
  @DF-RHF Final Energy:  -270.02795329231236
    Total Energy =                       -270.0279532923123611
  Basis Set: 6-31G*
  Basis Set:
  Basis Set: 6-31G*
  Basis Set:
  @DF-RHF Final Energy:  -270.02904241119967
    Total Energy =                       -270.0290424111998391
  Basis Set: 6-31G*
  Basis Set:
  Basis Set: 6-31G*
  Basis Set:
  @DF-RHF Final Energy:  -270.02919616376596
    Total Energy =                       -270.0291961637658460
  Basis Set: 6-31G*
  Basis Set:
  @DF-RHF Final Energy:  -270.02928291179683
    Total Energy =                       -270.0292829117970541
  @DF-RHF Final Energy:  -270.02933000817836
    Total Energy =                       -270.0293300081782490
  @DF-RHF Final Energy:  -270.02934693682380
    Total Energy =                       -270.0293469368238561
  @DF-RHF Final Energy:  -270.02937657547392
    Total Energy =                       -270.0293765754739752
  Basis Set: 6-31G*
  Basis Set:
  @DF-RHF Final Energy:  -270.02934572172592
    Total Energy =                       -270.0293457217259174
  Basis Set: 6-31G*
  Basis Set:
  Basis Set: 6-31G*
  Basis Set:
  @DF-RHF Final Energy:  -270.02939550467750
    Total Energy =                       -270.0293955046776091
  Basis Set: 6-31G*
  Basis Set:
  Basis Set: 6-31G*
  Basis Set:
  @DF-RHF Final Energy:  -270.02940309212784
    Total Energy =                       -270.0294030921278932
  Basis Set: 6-31G*
  Basis Set:
  Charge       = 0
  Multiplicity = 1
  Basis Set: 6-31G*
  Basis Set:

    Orbital Energies (a.u.)
    -----------------------

    Doubly Occupied:

       1A    -20.547599     2A    -11.325424     3A    -11.235254
       4A    -11.231062     5A    -11.228012     6A    -11.221518
       7A     -1.393418     8A     -1.085740     9A     -1.009798
      10A     -0.951749    11A     -0.834523    12A     -0.734180
      13A     -0.657858    14A     -0.651120    15A     -0.621479
      16A     -0.602188    17A     -0.577612    18A     -0.551982
      19A     -0.537450    20A     -0.520768    21A     -0.504709
      22A     -0.488445    23A     -0.473234    24A     -0.398404

  @DF-RHF Final Energy:  -270.02940340829366

   => Energetics <=

    Nuclear Repulsion Energy =            236.8163784361212265
    One-Electron Energy =                -834.9245107675288864
    Two-Electron Energy =                 328.0787289231140562
    DFT Exchange-Correlation Energy =       0.0000000000000000
    Empirical Dispersion Energy =           0.0000000000000000
    PCM Polarization Energy =               0.0000000000000000
    EFP Energy =                            0.0000000000000000
    Total Energy =                       -270.0294034082936037
    Molecular point group: c1
  Basis Set: 6-31G*
  Basis Set:

  -Total Gradient:
     Atom            X                  Y                   Z
    ------   -----------------  -----------------  -----------------
       1       -0.000041849406    -0.000026838543    -0.000023342290
       2       -0.000446291120    -0.001603813095     0.000717805868
       3        0.000294637356     0.001722828830    -0.000091421528
       4        0.000293885364     0.000856190223    -0.000504813730
       5       -0.000098277997    -0.000915867678    -0.000089812574
       6       -0.000004120272    -0.000012109096     0.000016658486
       7       -0.000019042397     0.000000068090    -0.000022385954
       8        0.000011588742    -0.000025925220    -0.000024703064
       9        0.000012743514     0.000007162172    -0.000002674826
      10        0.000003866164     0.000007305327    -0.000000797526
      11        0.000014215956    -0.000013294823     0.000001071624
      12       -0.000006666382     0.000007932385     0.000010924897
      13       -0.000004330319     0.000006036776    -0.000017096196
      14        0.000000136426    -0.000009999031     0.000003639972
      15       -0.000011561776    -0.000006720101    -0.000000674076
      16        0.000001066148     0.000007043786     0.000027620915

  **** Optimization is complete! (in 12 steps) ****
    Final optimized geometry and variables:
    Molecular point group: c1

    Geometry (in Angstrom), charge = 0, multiplicity = 1:

    O           -1.873779044641     0.794845920770     0.777929965137
    C           -1.114162288485     0.134559568406     0.136637789103
    C            0.311130744585    -0.089418673264     0.614782211313
    C           -1.551688909227    -0.515746166947    -1.159219599887
    C            1.395156766029    -0.071777219546    -0.468666032369
    H            0.324902084503    -1.057514317330     1.116018787513
    H            0.509550698386     0.658904685652     1.372889398218
    C            2.794558467519    -0.242677820103     0.121206457589
    H            1.214302680497    -0.861280315182    -1.191897006921
    H            1.349158564218     0.866771616501    -1.016157610172
    H            3.549617583972    -0.232100698792    -0.658074511072
    H            2.881904579815    -1.184343020272     0.655452348624
    H            3.025727935642     0.556365242872     0.818886187679
    H           -1.068563382992    -0.031310842808    -2.002386647744
    H           -2.623311470604    -0.417618752007    -1.262362594570
    H           -1.274024552967    -1.565076531872    -1.185939828566

  Mulliken Charges: (a.u.)
   Center  Symbol    Alpha    Beta     Spin     Total
       1     O     4.26230  4.26230  0.00000 -0.52460
       2     C     2.73158  2.73158  0.00000  0.53684
       3     C     3.20583  3.20583  0.00000 -0.41166
       4     C     3.29199  3.29199  0.00000 -0.58397
       5     C     3.16336  3.16336  0.00000 -0.32673
       6     H     0.40842  0.40842  0.00000  0.18317
       7     H     0.39876  0.39876  0.00000  0.20248
       8     C     3.23990  3.23990  0.00000 -0.47981
       9     H     0.41797  0.41797  0.00000  0.16405
      10     H     0.41618  0.41618  0.00000  0.16764
      11     H     0.41557  0.41557  0.00000  0.16885
      12     H     0.41959  0.41959  0.00000  0.16081
      13     H     0.41708  0.41708  0.00000  0.16584
      14     H     0.40497  0.40497  0.00000  0.19007
      15     H     0.39571  0.39571  0.00000  0.20858
      16     H     0.41078  0.41078  0.00000  0.17845

   Total alpha = 24.00000, Total beta = 24.00000, Total charge =  0.00000
