  ==> Input File <==

--------------------------------------------------------------------------
set {
	reference rhf
	basis 6-31G*
}

set_num_threads( 4 )
memory 2 gb

molecule MOL {
0 1

H	 -2.499100	 -0.730091	 -0.745082
O	 -2.347518	 -0.290803	 0.079804
C	 -1.184022	 0.487508	 -0.006784
C	 0.062599	 -0.378592	 0.031606
H	 -1.176523	 1.099369	 -0.904519
H	 -1.187323	 1.153111	 0.844927
O	 1.171513	 0.459272	 -0.058250
H	 0.050699	 -1.089204	 -0.797170
H	 0.078739	 -0.954914	 0.954740
C	 1.872232	 0.362908	 -1.257770
H	 1.245393	 0.627998	 -2.107141
H	 2.703305	 1.052575	 -1.206967
H	 2.256935	 -0.642878	 -1.413296

	symmetry c1
}
set optking {
	frozen_dihedral = ("
		10 7 4 8
	")
}

ee = optimize('scf')
oeprop('DIPOLE', 'QUADRUPOLE', 'MULLIKEN_CHARGES')
f=open( 'psi4out.xyz', 'w' )
f.write( "13  " )
f.write( str(ee) + "\n" )
f.write( MOL.save_string_xyz() )
f.close()
--------------------------------------------------------------------------

    Molecular point group: c1
  Charge       = 0
  Multiplicity = 1
  Basis Set: 6-31G*
  Basis Set:
  @DF-RHF Final Energy:  -267.94625943713606
    Total Energy =                       -267.9462594371361774
    Molecular point group: c1
  Basis Set: 6-31G*
  Basis Set:
  Basis Set: 6-31G*
  Basis Set:
  @DF-RHF Final Energy:  -267.94674873988868
    Total Energy =                       -267.9467487398887897
  Basis Set: 6-31G*
  Basis Set:
  Basis Set: 6-31G*
  Basis Set:
  @DF-RHF Final Energy:  -267.94687848418812
    Total Energy =                       -267.9468784841880051
  Basis Set: 6-31G*
  Basis Set:
  Charge       = 0
  Multiplicity = 1
  Basis Set: 6-31G*
  Basis Set:

    Orbital Energies (a.u.)
    -----------------------

    Doubly Occupied:

       1A    -20.560906     2A    -20.560247     3A    -11.272409
       4A    -11.271006     5A    -11.269068     6A     -1.385065
       7A     -1.365329     8A     -1.016543     9A     -0.920407
      10A     -0.840451    11A     -0.709954    12A     -0.668082
      13A     -0.661088    14A     -0.641582    15A     -0.588764
      16A     -0.576456    17A     -0.546995    18A     -0.489557
      19A     -0.471052    20A     -0.465994    21A     -0.405829

  @DF-RHF Final Energy:  -267.94687997338303

   => Energetics <=

    Nuclear Repulsion Energy =            190.9155208898065723
    One-Electron Energy =                -744.3512310752903431
    Two-Electron Energy =                 285.4888302121006518
    DFT Exchange-Correlation Energy =       0.0000000000000000
    Empirical Dispersion Energy =           0.0000000000000000
    PCM Polarization Energy =               0.0000000000000000
    EFP Energy =                            0.0000000000000000
    Total Energy =                       -267.9468799733831474
    Molecular point group: c1
  Basis Set: 6-31G*
  Basis Set:

  -Total Gradient:
     Atom            X                  Y                   Z
    ------   -----------------  -----------------  -----------------
       1        0.000000956122     0.000017479981     0.000012522281
       2       -0.000058960138    -0.000014708693     0.000007094825
       3       -0.000019008487    -0.000100666251    -0.000008440807
       4        0.000493766374    -0.000486517743     0.000494519369
       5        0.000034278087     0.000008210864     0.000008114249
       6        0.000023667290    -0.000023708284    -0.000008336133
       7       -0.000422647064     0.000540484584    -0.000396806196
       8       -0.000295642047     0.000346327316    -0.000304500794
       9       -0.000057114917     0.000004920403    -0.000001270184
      10        0.000341048675    -0.000286947677     0.000149502160
      11       -0.000024493040    -0.000012908662     0.000048727207
      12        0.000008681528     0.000008210662    -0.000013782771
      13       -0.000024532384    -0.000000176500     0.000012656794

  **** Optimization is complete! (in 4 steps) ****
    Final optimized geometry and variables:
    Molecular point group: c1

    Geometry (in Angstrom), charge = 0, multiplicity = 1:

    H           -2.426535008345    -0.862844814639    -0.426924726173
    O           -2.258113685627    -0.401687493337     0.382641934831
    C           -1.096939974828     0.374750921062     0.254084959751
    C            0.156424256455    -0.488008412962     0.261319669975
    H           -1.123078116682     0.984669252509    -0.646343126488
    H           -1.073674918703     1.045994661557     1.100997258279
    O            1.292897369231     0.325920885023     0.185884474299
    H            0.124530347208    -1.193639873803    -0.567394149415
    H            0.194419302742    -1.062190307672     1.179639991079
    C            2.025813113664     0.246274016725    -0.996916954145
    H            1.422121069846     0.502708986586    -1.865229861606
    H            2.840365119851     0.953276319304    -0.920654351956
    H            2.438085428911    -0.749308140625    -1.143732960100

  Mulliken Charges: (a.u.)
   Center  Symbol    Alpha    Beta     Spin     Total
       1     H     0.28184  0.28184  0.00000  0.43632
       2     O     4.36992  4.36992  0.00000 -0.73984
       3     C     3.00366  3.00366  0.00000 -0.00732
       4     C     3.00298  3.00298  0.00000 -0.00595
       5     H     0.42885  0.42885  0.00000  0.14230
       6     H     0.40767  0.40767  0.00000  0.18466
       7     O     4.30860  4.30860  0.00000 -0.61719
       8     H     0.43603  0.43603  0.00000  0.12795
       9     H     0.41131  0.41131  0.00000  0.17738
      10     C     3.07989  3.07989  0.00000 -0.15978
      11     H     0.43151  0.43151  0.00000  0.13698
      12     H     0.41068  0.41068  0.00000  0.17863
      13     H     0.42707  0.42707  0.00000  0.14587

   Total alpha = 21.00000, Total beta = 21.00000, Total charge =  0.00000
