  ==> Input File <==

--------------------------------------------------------------------------
set {
	reference rhf
	basis 6-31G*
}

set_num_threads( 4 )
memory 2 gb

molecule MOL {
0 1

H	 3.089270	 -1.380733	 0.000000
O	 2.178328	 -1.639175	 0.000000
C	 1.368216	 -0.558384	 0.000000
C	 1.242850	 0.277671	 -1.102089
C	 0.647885	 -0.296717	 1.152425
H	 1.804325	 0.072251	 -1.997961
C	 0.398089	 1.373780	 -1.051157
H	 0.743797	 -0.941700	 2.004408
C	 -0.195617	 0.802709	 1.195123
H	 0.309340	 2.013567	 -1.910327
C	 -0.325595	 1.642837	 0.096459
C	 -0.972418	 1.089625	 2.430085
H	 -0.982344	 2.493685	 0.138211
O	 -0.930743	 0.432836	 3.420760
H	 -1.612236	 1.975642	 2.376660

	symmetry c1
}
set optking {
	frozen_dihedral = ("
		4 3 2 1
	")
}

ee = optimize('scf')
oeprop('DIPOLE', 'QUADRUPOLE', 'MULLIKEN_CHARGES')
f=open( 'psi4out.xyz', 'w' )
f.write( "15  " )
f.write( str(ee) + "\n" )
f.write( MOL.save_string_xyz() )
f.close()
--------------------------------------------------------------------------

    Molecular point group: c1
  Charge       = 0
  Multiplicity = 1
  Basis Set: 6-31G*
  Basis Set:
  @DF-RHF Final Energy:  -418.28235878255833
    Total Energy =                       -418.2823587825582763
    Molecular point group: c1
  Basis Set: 6-31G*
  Basis Set:
  Basis Set: 6-31G*
  Basis Set:
  @DF-RHF Final Energy:  -418.28291495966221
    Total Energy =                       -418.2829149596622074
  Basis Set: 6-31G*
  Basis Set:
  Basis Set: 6-31G*
  Basis Set:
  @DF-RHF Final Energy:  -418.28218582213367
    Total Energy =                       -418.2821858221334423
  Basis Set: 6-31G*
  Basis Set:
  Basis Set: 6-31G*
  Basis Set:
  @DF-RHF Final Energy:  -418.28302567741929
    Total Energy =                       -418.2830256774194595
  Basis Set: 6-31G*
  Basis Set:
  Basis Set: 6-31G*
  Basis Set:
  @DF-RHF Final Energy:  -418.28303506858748
    Total Energy =                       -418.2830350685870826
  Basis Set: 6-31G*
  Basis Set:
  Charge       = 0
  Multiplicity = 1
  Basis Set: 6-31G*
  Basis Set:

    Orbital Energies (a.u.)
    -----------------------

    Doubly Occupied:

       1A    -20.588882     2A    -20.564670     3A    -11.333356
       4A    -11.304273     5A    -11.253067     6A    -11.251534
       7A    -11.250999     8A    -11.249782     9A    -11.243248
      10A     -1.405804    11A     -1.404763    12A     -1.170185
      13A     -1.048851    14A     -1.026439    15A     -0.897628
      16A     -0.845038    17A     -0.804235    18A     -0.738847
      19A     -0.698473    20A     -0.682691    21A     -0.647349
      22A     -0.635202    23A     -0.617806    24A     -0.605922
      25A     -0.555658    26A     -0.545694    27A     -0.533839
      28A     -0.499575    29A     -0.486317    30A     -0.423724
      31A     -0.352278    32A     -0.339892

  @DF-RHF Final Energy:  -418.28303624137078

   => Energetics <=

    Nuclear Repulsion Energy =            402.6257458459418217
    One-Electron Energy =               -1367.8055216581997229
    Two-Electron Energy =                 546.8967395708878030
    DFT Exchange-Correlation Energy =       0.0000000000000000
    Empirical Dispersion Energy =           0.0000000000000000
    PCM Polarization Energy =               0.0000000000000000
    EFP Energy =                            0.0000000000000000
    Total Energy =                       -418.2830362413701550
    Molecular point group: c1
  Basis Set: 6-31G*
  Basis Set:

  -Total Gradient:
     Atom            X                  Y                   Z
    ------   -----------------  -----------------  -----------------
       1        0.000061021203    -0.000001526905     0.001093322216
       2       -0.000286024206    -0.000335160345    -0.001456264911
       3        0.000791205558     0.000870582873     0.000504758430
       4       -0.000546540909    -0.000592980219    -0.000211808520
       5       -0.000026763227     0.000006115436     0.000043538739
       6       -0.000001966512    -0.000010838217    -0.000002222799
       7       -0.000076515999     0.000165381299     0.000113322105
       8       -0.000004036247    -0.000003233155    -0.000003424085
       9        0.000079617040    -0.000068689061     0.000107987833
      10        0.000006224036    -0.000010482991     0.000004003834
      11        0.000018735063    -0.000034215617    -0.000206896027
      12        0.000007165254     0.000018299641    -0.000026819266
      13       -0.000012921051     0.000001482064     0.000021685793
      14       -0.000006509158     0.000000206661     0.000009377907
      15       -0.000002690841    -0.000004941464     0.000009438750

  **** Optimization is complete! (in 6 steps) ****
    Final optimized geometry and variables:
    Molecular point group: c1

    Geometry (in Angstrom), charge = 0, multiplicity = 1:

    H            2.690235443950    -1.704320796814    -0.786958329677
    O            1.777206131914    -1.956705927197    -0.751620112681
    C            0.975606010546    -0.850863340617    -0.703233094157
    C            0.846096903556    -0.025289032438    -1.813750740974
    C            0.249086999558    -0.594416084300     0.440733555632
    H            1.403252744008    -0.254359304693    -2.704524143353
    C            0.001972263012     1.069569812772    -1.770681708416
    H            0.340318598922    -1.239120732516     1.293635790114
    C           -0.606683075044     0.501697698275     0.478738201247
    H           -0.092177759135     1.706152323965    -2.631466504251
    C           -0.728644862730     1.334849978625    -0.623107469141
    C           -1.391461538378     0.787860081912     1.706514538480
    H           -1.390702100166     2.182414839175    -0.588026151474
    O           -1.343707579510     0.140219073781     2.703491171029
    H           -2.043472527027     1.664446809740     1.644293226766

  Mulliken Charges: (a.u.)
   Center  Symbol    Alpha    Beta     Spin     Total
       1     H     0.27023  0.27023  0.00000  0.45955
       2     O     4.38477  4.38477  0.00000 -0.76954
       3     C     2.81765  2.81765  0.00000  0.36469
       4     C     3.11293  3.11293  0.00000 -0.22586
       5     C     3.10696  3.10696  0.00000 -0.21391
       6     H     0.39103  0.39103  0.00000  0.21794
       7     C     3.10083  3.10083  0.00000 -0.20166
       8     H     0.37120  0.37120  0.00000  0.25761
       9     C     3.05105  3.05105  0.00000 -0.10210
      10     H     0.39270  0.39270  0.00000  0.21459
      11     C     3.10827  3.10827  0.00000 -0.21654
      12     C     2.83206  2.83206  0.00000  0.33588
      13     H     0.39212  0.39212  0.00000  0.21575
      14     O     4.24620  4.24620  0.00000 -0.49240
      15     H     0.42199  0.42199  0.00000  0.15601

   Total alpha = 32.00000, Total beta = 32.00000, Total charge =  0.00000
