  ==> Input File <==

--------------------------------------------------------------------------
set {
	reference rhf
	basis 6-31G*
}

set_num_threads( 1 )
memory 2 gb

molecule MOL {
0 1

H	 2.591676	 2.013956	 0.335017
O	 3.341076	 1.666752	 -0.126416
C	 3.569581	 0.339145	 0.272707
C	 2.539767	 -0.640285	 -0.279495
H	 4.553106	 0.084646	 -0.100901
H	 3.608576	 0.269204	 1.359154
C	 1.140299	 -0.043329	 -0.446821
H	 2.895362	 -1.010932	 -1.237378
H	 2.490267	 -1.495139	 0.392920
C	 0.117828	 -1.065541	 -0.951254
H	 1.189151	 0.792802	 -1.138822
H	 0.801763	 0.359093	 0.508056
C	 -1.319160	 -0.541510	 -1.055165
H	 0.435396	 -1.440068	 -1.922711
H	 0.124300	 -1.921701	 -0.279950
C	 -1.534135	 0.544678	 -2.112739
H	 -1.973334	 -1.380733	 -1.282268
H	 -1.636093	 -0.166425	 -0.083207
C	 -3.000441	 0.959499	 -2.251689
H	 -1.170565	 0.186100	 -3.074689
H	 -0.941852	 1.424131	 -1.871773
C	 -3.216944	 2.048183	 -3.302192
H	 -3.598448	 0.087510	 -2.507639
H	 -3.368255	 1.308956	 -1.289152
H	 -2.888761	 1.716980	 -4.283428
H	 -4.265542	 2.318870	 -3.378397
H	 -2.660538	 2.948073	 -3.055262

	symmetry c1
}
set optking {
	frozen_dihedral = ("
		14 10 7 4,
		14 10 13 16,
		10 7 4 8,
		10 13 16 20,
		20 16 19 22,
		4 3 2 1
	")
}

ee = energy('scf')
oeprop('DIPOLE', 'QUADRUPOLE', 'MULLIKEN_CHARGES')
f=open( 'psi4out.xyz', 'w' )
f.write( "27  " )
f.write( str(ee) + "\n" )
f.write( MOL.save_string_xyz() )
f.close()
--------------------------------------------------------------------------

    Molecular point group: c1

    Geometry (in Angstrom), charge = 0, multiplicity = 1:

       Center              X                  Y                   Z               Mass
    ------------   -----------------  -----------------  -----------------  -----------------
           H          2.367616677980     1.614276058431     1.461774842122     1.007825032070
           O          3.117016677980     1.267072058431     1.000341842122    15.994914619560
           C          3.345521677980    -0.060534941569     1.399464842122    12.000000000000
           C          2.315707677980    -1.039964941569     0.847262842122    12.000000000000
           H          4.329046677980    -0.315033941569     1.025856842122     1.007825032070
           H          3.384516677980    -0.130475941569     2.485911842122     1.007825032070
           C          0.916239677980    -0.443008941569     0.679936842122    12.000000000000
           H          2.671302677980    -1.410611941569    -0.110620157878     1.007825032070
           H          2.266207677980    -1.894818941569     1.519677842122     1.007825032070
           C         -0.106231322020    -1.465220941569     0.175503842122    12.000000000000
           H          0.965091677980     0.393122058431    -0.012064157878     1.007825032070
           H          0.577703677980    -0.040586941569     1.634813842122     1.007825032070
           C         -1.543219322020    -0.941189941569     0.071592842122    12.000000000000
           H          0.211336677980    -1.839747941569    -0.795953157878     1.007825032070
           H         -0.099759322020    -2.321380941569     0.846807842122     1.007825032070
           C         -1.758194322020     0.144998058431    -0.985981157878    12.000000000000
           H         -2.197393322020    -1.780412941569    -0.155510157878     1.007825032070
           H         -1.860152322020    -0.566104941569     1.043550842122     1.007825032070
           C         -3.224500322020     0.559819058431    -1.124931157878    12.000000000000
           H         -1.394624322020    -0.213579941569    -1.947931157878     1.007825032070
           H         -1.165911322020     1.024451058431    -0.745015157878     1.007825032070
           C         -3.441003322020     1.648503058431    -2.175434157878    12.000000000000
           H         -3.822507322020    -0.312169941569    -1.380881157878     1.007825032070
           H         -3.592314322020     0.909276058431    -0.162394157878     1.007825032070
           H         -3.112820322020     1.317300058431    -3.156670157878     1.007825032070
           H         -4.489601322020     1.919190058431    -2.251639157878     1.007825032070
           H         -2.884597322020     2.548393058431    -1.928504157878     1.007825032070

  Charge       = 0
  Multiplicity = 1
  Basis Set: 6-31G*
  Basis Set:

    Orbital Energies (a.u.)
    -----------------------

    Doubly Occupied:

       1A    -20.551829     2A    -11.266660     3A    -11.217288
       4A    -11.215567     5A    -11.214796     6A    -11.214572
       7A    -11.214384     8A    -11.212613     9A    -11.208061
      10A     -1.359468    11A     -1.093349    12A     -1.059640
      13A     -1.010400    14A     -0.948402    15A     -0.888198
      16A     -0.818763    17A     -0.798729    18A     -0.775659
      19A     -0.694815    20A     -0.648276    21A     -0.636057
      22A     -0.617153    23A     -0.601046    24A     -0.585021
      25A     -0.575880    26A     -0.553910    27A     -0.542938
      28A     -0.527031    29A     -0.504066    30A     -0.492074
      31A     -0.482452    32A     -0.472598    33A     -0.467720
      34A     -0.459804    35A     -0.445504    36A     -0.442084
      37A     -0.423489

  @DF-RHF Final Energy:  -388.27741489336825

   => Energetics <=

    Nuclear Repulsion Energy =            461.9324858296855609
    One-Electron Energy =               -1441.9391220742249970
    Two-Electron Energy =                 591.7292213511709633
    DFT Exchange-Correlation Energy =       0.0000000000000000
    Empirical Dispersion Energy =           0.0000000000000000
    PCM Polarization Energy =               0.0000000000000000
    EFP Energy =                            0.0000000000000000
    Total Energy =                       -388.2774148933684728

  Mulliken Charges: (a.u.)
   Center  Symbol    Alpha    Beta     Spin     Total
       1     H     0.27958  0.27958  0.00000  0.44083
       2     O     4.36996  4.36996  0.00000 -0.73992
       3     C     2.99690  2.99690  0.00000  0.00620
       4     C     3.16559  3.16559  0.00000 -0.33118
       5     H     0.41429  0.41429  0.00000  0.17143
       6     H     0.43086  0.43086  0.00000  0.13827
       7     C     3.16587  3.16587  0.00000 -0.33174
       8     H     0.41765  0.41765  0.00000  0.16470
       9     H     0.42301  0.42301  0.00000  0.15399
      10     C     3.15226  3.15226  0.00000 -0.30453
      11     H     0.40875  0.40875  0.00000  0.18250
      12     H     0.43173  0.43173  0.00000  0.13654
      13     C     3.15334  3.15334  0.00000 -0.30669
      14     H     0.42207  0.42207  0.00000  0.15587
      15     H     0.42269  0.42269  0.00000  0.15463
      16     C     3.15267  3.15267  0.00000 -0.30534
      17     H     0.42157  0.42157  0.00000  0.15687
      18     H     0.42492  0.42492  0.00000  0.15016
      19     C     3.15118  3.15118  0.00000 -0.30235
      20     H     0.42373  0.42373  0.00000  0.15254
      21     H     0.42254  0.42254  0.00000  0.15492
      22     C     3.23915  3.23915  0.00000 -0.47830
      23     H     0.42318  0.42318  0.00000  0.15364
      24     H     0.42364  0.42364  0.00000  0.15272
      25     H     0.42151  0.42151  0.00000  0.15699
      26     H     0.41955  0.41955  0.00000  0.16091
      27     H     0.42182  0.42182  0.00000  0.15635

   Total alpha = 37.00000, Total beta = 37.00000, Total charge = -0.00000
