  ==> Input File <==

--------------------------------------------------------------------------
set {
	reference rhf
	basis 6-31G*
}

set_num_threads( 1 )
memory 2 gb

molecule MOL {
0 1

O	 -2.034133	 -0.038433	 0.813963
C	 -1.083277	 0.139568	 0.115197
C	 0.323299	 -0.082943	 0.642902
C	 -1.225237	 0.616549	 -1.313147
C	 1.355627	 -0.005344	 -0.493127
H	 0.396251	 -1.044647	 1.143147
H	 0.528637	 0.693580	 1.371677
C	 2.786168	 -0.195604	 0.007473
H	 1.132807	 -0.760304	 -1.243899
H	 1.259610	 0.958506	 -0.981915
H	 3.495561	 -0.130713	 -0.811210
H	 2.912696	 -1.165395	 0.480041
H	 3.049284	 0.565503	 0.735850
H	 -0.594448	 1.481860	 -1.494833
H	 -2.257120	 0.864224	 -1.519572
H	 -0.899203	 -0.165992	 -1.993245

	symmetry c1
}
set optking {
	frozen_dihedral = ("
		9 5 3 2
	")
}

ee = energy('scf')
oeprop('DIPOLE', 'QUADRUPOLE', 'MULLIKEN_CHARGES')
f=open( 'psi4out.xyz', 'w' )
f.write( "16  " )
f.write( str(ee) + "\n" )
f.write( MOL.save_string_xyz() )
f.close()
--------------------------------------------------------------------------

    Molecular point group: c1

    Geometry (in Angstrom), charge = 0, multiplicity = 1:

       Center              X                  Y                   Z               Mass
    ------------   -----------------  -----------------  -----------------  -----------------
           O         -2.062456171550    -0.112309074611     0.858307496705    15.994914619560
           C         -1.111600171550     0.065691925389     0.159541496705    12.000000000000
           C          0.294975828450    -0.156819074611     0.687246496705    12.000000000000
           C         -1.253560171550     0.542672925389    -1.268802503295    12.000000000000
           C          1.327303828450    -0.079220074611    -0.448782503295    12.000000000000
           H          0.367927828450    -1.118523074611     1.187491496705     1.007825032070
           H          0.500313828450     0.619703925389     1.416021496705     1.007825032070
           C          2.757844828450    -0.269480074611     0.051817496705    12.000000000000
           H          1.104483828450    -0.834180074611    -1.199554503295     1.007825032070
           H          1.231286828450     0.884629925389    -0.937570503295     1.007825032070
           H          3.467237828450    -0.204589074611    -0.766865503295     1.007825032070
           H          2.884372828450    -1.239271074611     0.524385496705     1.007825032070
           H          3.020960828450     0.491626925389     0.780194496705     1.007825032070
           H         -0.622771171550     1.407983925389    -1.450488503295     1.007825032070
           H         -2.285443171550     0.790347925389    -1.475227503295     1.007825032070
           H         -0.927526171550    -0.239868074611    -1.948900503295     1.007825032070

  Charge       = 0
  Multiplicity = 1
  Basis Set: 6-31G*
  Basis Set:

    Orbital Energies (a.u.)
    -----------------------

    Doubly Occupied:

       1A    -20.546181     2A    -11.325386     3A    -11.232480
       4A    -11.231747     5A    -11.227527     6A    -11.220595
       7A     -1.392251     8A     -1.090330     9A     -1.008168
      10A     -0.951736    11A     -0.833415    12A     -0.734298
      13A     -0.661817    14A     -0.654451    15A     -0.625434
      16A     -0.594828    17A     -0.576296    18A     -0.557021
      19A     -0.543053    20A     -0.517946    21A     -0.505885
      22A     -0.486280    23A     -0.469333    24A     -0.397357

  @DF-RHF Final Energy:  -270.02271035234736

   => Energetics <=

    Nuclear Repulsion Energy =            238.7534760490577241
    One-Electron Energy =                -838.7846771323080475
    Two-Electron Energy =                 330.0084907309034179
    DFT Exchange-Correlation Energy =       0.0000000000000000
    Empirical Dispersion Energy =           0.0000000000000000
    PCM Polarization Energy =               0.0000000000000000
    EFP Energy =                            0.0000000000000000
    Total Energy =                       -270.0227103523469623

  Mulliken Charges: (a.u.)
   Center  Symbol    Alpha    Beta     Spin     Total
       1     O     4.26282  4.26282  0.00000 -0.52563
       2     C     2.73528  2.73528  0.00000  0.52945
       3     C     3.20041  3.20041  0.00000 -0.40082
       4     C     3.29611  3.29611  0.00000 -0.59222
       5     C     3.16735  3.16735  0.00000 -0.33469
       6     H     0.39919  0.39919  0.00000  0.20162
       7     H     0.40088  0.40088  0.00000  0.19823
       8     C     3.23813  3.23813  0.00000 -0.47627
       9     H     0.41833  0.41833  0.00000  0.16335
      10     H     0.41882  0.41882  0.00000  0.16235
      11     H     0.41642  0.41642  0.00000  0.16716
      12     H     0.41897  0.41897  0.00000  0.16205
      13     H     0.41963  0.41963  0.00000  0.16075
      14     H     0.40788  0.40788  0.00000  0.18424
      15     H     0.39459  0.39459  0.00000  0.21082
      16     H     0.40519  0.40519  0.00000  0.18962

   Total alpha = 24.00000, Total beta = 24.00000, Total charge =  0.00000
