  ==> Input File <==

--------------------------------------------------------------------------
set {
	reference rhf
	basis 6-31G*
}

set_num_threads( 1 )
memory 2 gb

molecule MOL {
0 1

H	 -3.420663	 1.227371	 -1.044276
O	 -3.452007	 0.283848	 -0.965577
C	 -3.181085	 -0.079926	 0.364119
C	 -1.765924	 0.277073	 0.805136
H	 -3.327791	 -1.152017	 0.410903
H	 -3.905698	 0.375695	 1.036898
C	 -0.677594	 -0.417312	 -0.014550
H	 -1.637766	 1.358238	 0.744969
H	 -1.659588	 0.017670	 1.857098
C	 0.738335	 -0.034840	 0.421385
H	 -0.814977	 -0.178223	 -1.064632
H	 -0.802730	 -1.495410	 0.071702
C	 0.758380	 0.806547	 1.700351
H	 1.321471	 -0.941505	 0.563964
H	 1.226511	 0.519356	 -0.379337
C	 2.148796	 1.289549	 2.128846
H	 0.310934	 0.236318	 2.512955
H	 0.121050	 1.676242	 1.554553
C	 3.108157	 0.174128	 2.548210
H	 2.032127	 1.979412	 2.961173
H	 2.594970	 1.864343	 1.319683
H	 2.682744	 -0.425783	 3.348378
H	 4.045367	 0.587047	 2.908729
H	 3.342480	 -0.491693	 1.724232

	symmetry c1
}
set optking {
	frozen_dihedral = ("
		20 16 13 17,
		17 13 10 7,
		11 7 4 3,
		1 2 3 5,
		7 4 3 2
	")
}

ee = energy('scf')
oeprop('DIPOLE', 'QUADRUPOLE', 'MULLIKEN_CHARGES')
f=open( 'psi4out.xyz', 'w' )
f.write( "24  " )
f.write( str(ee) + "\n" )
f.write( MOL.save_string_xyz() )
f.close()
--------------------------------------------------------------------------

    Molecular point group: c1

    Geometry (in Angstrom), charge = 0, multiplicity = 1:

       Center              X                  Y                   Z               Mass
    ------------   -----------------  -----------------  -----------------  -----------------
           H         -3.080146306854     0.935258236816    -1.893996210148     1.007825032070
           O         -3.111490306854    -0.008264763184    -1.815297210148    15.994914619560
           C         -2.840568306854    -0.372038763184    -0.485601210148    12.000000000000
           C         -1.425407306854    -0.015039763184    -0.044584210148    12.000000000000
           H         -2.987274306854    -1.444129763184    -0.438817210148     1.007825032070
           H         -3.565181306854     0.083582236816     0.187177789852     1.007825032070
           C         -0.337077306854    -0.709424763184    -0.864270210148    12.000000000000
           H         -1.297249306854     1.066125236816    -0.104751210148     1.007825032070
           H         -1.319071306854    -0.274442763184     1.007377789852     1.007825032070
           C          1.078851693146    -0.326952763184    -0.428335210148    12.000000000000
           H         -0.474460306854    -0.470335763184    -1.914352210148     1.007825032070
           H         -0.462213306854    -1.787522763184    -0.778018210148     1.007825032070
           C          1.098896693146     0.514434236816     0.850630789852    12.000000000000
           H          1.661987693146    -1.233617763184    -0.285756210148     1.007825032070
           H          1.567027693146     0.227243236816    -1.229057210148     1.007825032070
           C          2.489312693146     0.997436236816     1.279125789852    12.000000000000
           H          0.651450693146    -0.055794763184     1.663234789852     1.007825032070
           H          0.461566693146     1.384129236816     0.704832789852     1.007825032070
           C          3.448673693146    -0.117984763184     1.698489789852    12.000000000000
           H          2.372643693146     1.687299236816     2.111452789852     1.007825032070
           H          2.935486693146     1.572230236816     0.469962789852     1.007825032070
           H          3.023260693146    -0.717895763184     2.498657789852     1.007825032070
           H          4.385883693146     0.294934236816     2.059008789852     1.007825032070
           H          3.682996693146    -0.783805763184     0.874511789852     1.007825032070

  Charge       = 0
  Multiplicity = 1
  Basis Set: 6-31G*
  Basis Set:

    Orbital Energies (a.u.)
    -----------------------

    Doubly Occupied:

       1A    -20.552474     2A    -11.266080     3A    -11.215316
       4A    -11.214226     5A    -11.212026     6A    -11.210962
       7A    -11.209775     8A    -11.207484     9A     -1.359069
      10A     -1.093342    11A     -1.044783    12A     -0.982479
      13A     -0.916652    14A     -0.855913    15A     -0.813783
      16A     -0.757885    17A     -0.675877    18A     -0.654075
      19A     -0.631796    20A     -0.619267    21A     -0.599405
      22A     -0.579028    23A     -0.557654    24A     -0.544884
      25A     -0.521401    26A     -0.513900    27A     -0.498190
      28A     -0.482437    29A     -0.474785    30A     -0.451352
      31A     -0.440887    32A     -0.435571    33A     -0.424560

  @DF-RHF Final Energy:  -349.23238200451095

   => Energetics <=

    Nuclear Repulsion Energy =            392.6718515875948583
    One-Electron Energy =               -1251.7737661058110916
    Two-Electron Energy =                 509.8695325137051100
    DFT Exchange-Correlation Energy =       0.0000000000000000
    Empirical Dispersion Energy =           0.0000000000000000
    PCM Polarization Energy =               0.0000000000000000
    EFP Energy =                            0.0000000000000000
    Total Energy =                       -349.2323820045111802

  Mulliken Charges: (a.u.)
   Center  Symbol    Alpha    Beta     Spin     Total
       1     H     0.28359  0.28359  0.00000  0.43283
       2     O     4.36882  4.36882  0.00000 -0.73764
       3     C     2.99286  2.99286  0.00000  0.01428
       4     C     3.17697  3.17697  0.00000 -0.35393
       5     H     0.41713  0.41713  0.00000  0.16573
       6     H     0.42877  0.42877  0.00000  0.14246
       7     C     3.15484  3.15484  0.00000 -0.30969
       8     H     0.42689  0.42689  0.00000  0.14621
       9     H     0.41956  0.41956  0.00000  0.16089
      10     C     3.15709  3.15709  0.00000 -0.31418
      11     H     0.40923  0.40923  0.00000  0.18154
      12     H     0.42134  0.42134  0.00000  0.15732
      13     C     3.15961  3.15961  0.00000 -0.31923
      14     H     0.41827  0.41827  0.00000  0.16346
      15     H     0.42188  0.42188  0.00000  0.15625
      16     C     3.14891  3.14891  0.00000 -0.29782
      17     H     0.42358  0.42358  0.00000  0.15283
      18     H     0.42092  0.42092  0.00000  0.15816
      19     C     3.24121  3.24121  0.00000 -0.48242
      20     H     0.42228  0.42228  0.00000  0.15544
      21     H     0.42397  0.42397  0.00000  0.15206
      22     H     0.42290  0.42290  0.00000  0.15419
      23     H     0.41960  0.41960  0.00000  0.16081
      24     H     0.41977  0.41977  0.00000  0.16046

   Total alpha = 33.00000, Total beta = 33.00000, Total charge = -0.00000
