                              Psi4 1.0.54 Driver

  ==> Input File <==

--------------------------------------------------------------------------
set {
	reference rhf
	basis cc-pvtz
}

set_num_threads( 4 )
memory 2 gb

molecule MOL {
0 1

H	 1.256428	 -2.327704	 -2.111053
C	 1.244222	 -1.358644	 -1.623652
C	 0.092413	 -1.283777	 -0.630557
H	 1.135685	 -0.593332	 -2.382228
H	 2.206749	 -1.220531	 -1.146996
N	 0.000297	 0.000045	 0.046090
H	 -0.828081	 -1.450858	 -1.172674
H	 0.170674	 -2.101462	 0.091382
C	 -1.359159	 0.315706	 0.454404
C	 0.950195	 0.119975	 1.140546
C	 -2.416729	 -0.286720	 -0.460525
H	 -1.478729	 1.390261	 0.442008
H	 -1.539692	 0.003361	 1.486761
C	 1.366713	 1.557642	 1.419946
H	 1.837944	 -0.442185	 0.885717
H	 0.555107	 -0.336014	 2.052628
H	 -2.285276	 0.073129	 -1.473515
H	 -2.371743	 -1.368476	 -0.483209
H	 -3.408658	 -0.007405	 -0.121593
H	 1.822556	 1.993827	 0.539686
H	 0.527267	 2.180428	 1.703221
H	 2.085762	 1.588524	 2.231627

	symmetry c1
}
set optking {
	frozen_dihedral = ("
		3 6 9 11
	")
}

ee,wfn = optimize('scf', return_wfn=True)
oeprop( wfn, 'DIPOLE', 'QUADRUPOLE', 'MULLIKEN_CHARGES')
f=open( 'psi4out.xyz', 'w' )
f.write( "22  " )
f.write( str(ee) + "\n" )
f.write( MOL.save_string_xyz() )
f.close()
--------------------------------------------------------------------------

    Molecular point group: c1
  Charge       = 0
  Multiplicity = 1
  Basis Set: CC-PVTZ
  Basis Set:
  @DF-RHF Final Energy:  -290.46250675897005
    Total Energy =                       -290.4625067589697665
    Molecular point group: c1
  Basis Set: CC-PVTZ
  Basis Set:
  Basis Set: CC-PVTZ
  Basis Set:
  @DF-RHF Final Energy:  -290.02470346938753
    Total Energy =                       -290.0247034693873616
  Basis Set: CC-PVTZ
  Basis Set:
  Basis Set: CC-PVTZ
  Basis Set:
  @DF-RHF Final Energy:  -290.20678991557469
    Total Energy =                       -290.2067899155746318
  Basis Set: CC-PVTZ
  Basis Set:
  Basis Set: CC-PVTZ
  Basis Set:
  @DF-RHF Final Energy:  -290.39343743093889
    Total Energy =                       -290.3934374309387749
  Basis Set: CC-PVTZ
  Basis Set:
  @DF-RHF Final Energy:  -290.46699800278805
    Total Energy =                       -290.4669980027879888
  @DF-RHF Final Energy:  -290.47017861675062
    Total Energy =                       -290.4701786167504451
  @DF-RHF Final Energy:  -290.47048869747522
    Total Energy =                       -290.4704886974752753
  @DF-RHF Final Energy:  -290.47077227993128
    Total Energy =                       -290.4707722799312251
  @DF-RHF Final Energy:  -290.47080298832100
    Total Energy =                       -290.4708029883209974
  @DF-RHF Final Energy:  -290.47082357937455
    Total Energy =                       -290.4708235793746098
  Basis Set: CC-PVTZ
  Basis Set:
  @DF-RHF Final Energy:  -290.47083186593323
    Total Energy =                       -290.4708318659331212
  Basis Set: CC-PVTZ
  Basis Set:
  Basis Set: CC-PVTZ
  Basis Set:
  @DF-RHF Final Energy:  -290.47083621722192
    Total Energy =                       -290.4708362172223133
  Basis Set: CC-PVTZ
  Basis Set:
  Basis Set: CC-PVTZ
  Basis Set:
  @DF-RHF Final Energy:  -290.47083792996438
    Total Energy =                       -290.4708379299642047
  Basis Set: CC-PVTZ
  Basis Set:
  Charge       = 0
  Multiplicity = 1
  Basis Set: CC-PVTZ
  Basis Set:

    Orbital Energies (a.u.)
    -----------------------

    Doubly Occupied:

       1A    -15.531162     2A    -11.239331     3A    -11.237212
       4A    -11.236712     5A    -11.209833     6A    -11.203470
       7A    -11.202887     8A     -1.222801     9A     -1.025381
      10A     -1.024250    11A     -0.958461    12A     -0.856409
      13A     -0.845464    14A     -0.760013    15A     -0.649668
      16A     -0.641760    17A     -0.632183    18A     -0.595527
      19A     -0.593325    20A     -0.547434    21A     -0.530408
      22A     -0.520849    23A     -0.516756    24A     -0.501848
      25A     -0.491239    26A     -0.486661    27A     -0.466171
      28A     -0.460620    29A     -0.336158

  @DF-RHF Final Energy:  -290.47083834620122

   => Energetics <=

    Nuclear Repulsion Energy =            337.9386179390712073
    One-Electron Energy =               -1061.7709316448110712
    Two-Electron Energy =                 433.3614753595390425
    DFT Exchange-Correlation Energy =       0.0000000000000000
    Empirical Dispersion Energy =           0.0000000000000000
    PCM Polarization Energy =               0.0000000000000000
    EFP Energy =                            0.0000000000000000
    Total Energy =                       -290.4708383462007646
    Molecular point group: c1
  Basis Set: CC-PVTZ
  Basis Set:

  -Total Gradient:
     Atom            X                  Y                   Z
    ------   -----------------  -----------------  -----------------
       1        0.000020013229     0.000019456416     0.000015974965
       2       -0.000008269568    -0.000009340160    -0.000015983793
       3       -0.001028443471     0.003039100228    -0.002010875907
       4       -0.000000571233    -0.000034524409     0.000017928162
       5       -0.000039701924     0.000018207210     0.000004270734
       6        0.001295533321    -0.006112406355     0.003330169772
       7        0.000024336923     0.000008000472     0.000000795567
       8        0.000001706710     0.000020084462    -0.000013201754
       9        0.000183288069     0.006570488010    -0.002170543759
      10        0.000002969980    -0.000039691999     0.000004778971
      11       -0.000443380859    -0.003491802220     0.000858176878
      12       -0.000009523173    -0.000008850137     0.000008683338
      13       -0.000003662697     0.000012839247    -0.000026471544
      14        0.000001423253     0.000003258202     0.000012180984
      15       -0.000008540879     0.000007511491     0.000012639027
      16        0.000006420460     0.000010470714    -0.000014088581
      17        0.000004700844    -0.000011717080     0.000009458859
      18       -0.000005557892    -0.000005493765    -0.000005787440
      19        0.000001284443     0.000005568042     0.000005172843
      20        0.000001612270     0.000003680847     0.000003826251
      21        0.000008229629    -0.000008605149    -0.000024897078
      22       -0.000003867441     0.000003765929    -0.000002206497

  **** Optimization is complete! (in 14 steps) ****
    Final optimized geometry and variables:
    Molecular point group: c1

    Geometry (in Angstrom), charge = 0, multiplicity = 1:

    H           -0.210438169878    -1.257037119071    -3.144335609932
    C            0.286074324346    -0.670645368793    -2.378637543574
    C           -0.482098486569    -0.787301188785    -1.066223544225
    H            0.316502639026     0.362290294530    -2.703377184936
    H            1.303589863864    -1.031400496845    -2.307595256098
    N            0.035529165779     0.074294789250    -0.020085677330
    H           -1.500845460891    -0.506747058213    -1.272658627956
    H           -0.508360899796    -1.837340436698    -0.754864428440
    C           -0.880666228607     0.460458198130     1.046793367737
    C            1.312787479342    -0.363702259557     0.506267595227
    C           -2.355464485807     0.563590137267     0.683458374456
    H           -0.561097734329     1.420925243887     1.430203463203
    H           -0.802844464373    -0.242005475800     1.882836431245
    C            2.092196124052     0.729150649569     1.227762800678
    H            1.919320687208    -0.714373794445    -0.315137622668
    H            1.181968862784    -1.217036236833     1.180524636867
    H           -2.519411865021     1.225123514216    -0.159509027674
    H           -2.796233008751    -0.397979534624     0.456656950463
    H           -2.889139302418     0.974134892474     1.532822134402
    H            2.210093160321     1.595504580699     0.587698147915
    H            1.609151443633     1.046848895951     2.142673335509
    H            3.077613270162     0.361835330883     1.491896975537

  Mulliken Charges: (a.u.)
   Center  Symbol    Alpha    Beta     Spin     Total
       1     H     0.45190  0.45190  0.00000  0.09619
       2     C     3.14560  3.14560  0.00000 -0.29120
       3     C     3.03919  3.03919  0.00000 -0.07837
       4     H     0.45166  0.45166  0.00000  0.09668
       5     H     0.45464  0.45464  0.00000  0.09073
       6     N     3.61740  3.61740  0.00000 -0.23481
       7     H     0.44741  0.44741  0.00000  0.10518
       8     H     0.46949  0.46949  0.00000  0.06102
       9     C     3.02529  3.02529  0.00000 -0.05057
      10     C     3.04019  3.04019  0.00000 -0.08038
      11     C     3.16182  3.16182  0.00000 -0.32364
      12     H     0.45518  0.45518  0.00000  0.08963
      13     H     0.47250  0.47250  0.00000  0.05501
      14     C     3.15010  3.15010  0.00000 -0.30020
      15     H     0.45061  0.45061  0.00000  0.09878
      16     H     0.46699  0.46699  0.00000  0.06602
      17     H     0.45076  0.45076  0.00000  0.09848
      18     H     0.45099  0.45099  0.00000  0.09801
      19     H     0.44475  0.44475  0.00000  0.11050
      20     H     0.45044  0.45044  0.00000  0.09913
      21     H     0.45304  0.45304  0.00000  0.09392
      22     H     0.45005  0.45005  0.00000  0.09989

   Total alpha = 29.00000, Total beta = 29.00000, Total charge = -0.00000

*** Psi4 exiting successfully. Buy a developer a beer!
