                              Psi4 1.0.54 Driver

  ==> Input File <==

--------------------------------------------------------------------------
set {
	reference rhf
	basis cc-pvtz
}

set_num_threads( 4 )
memory 2 gb

molecule MOL {
0 1

O	 1.847685	 1.294399	 -0.000190
C	 1.704209	 0.119472	 -0.000093
C	 0.380337	 -0.600947	 -0.000234
O	 2.715427	 -0.733672	 0.000025
C	 -0.824290	 0.329213	 -0.000115
H	 0.371455	 -1.255476	 -0.865660
H	 0.371410	 -1.255787	 0.864952
C	 -2.146151	 -0.432825	 -0.000068
H	 -0.773936	 0.979158	 -0.866319
H	 -0.773838	 0.979034	 0.866186
C	 -3.366283	 0.483552	 0.000557
H	 -2.189286	 -1.084450	 -0.869996
H	 -2.188867	 -1.085083	 0.869399
C	 -4.073291	 0.538794	 1.350557
H	 -4.066148	 0.148126	 -0.759598
H	 -3.061491	 1.485491	 -0.288200
H	 -4.420961	 -0.444048	 1.651192
H	 -4.933706	 1.197004	 1.316200
H	 -3.408484	 0.904266	 2.126248
C	 4.020999	 -0.192556	 0.000019
H	 4.182809	 0.412891	 -0.879449
H	 4.692590	 -1.035653	 0.000152
H	 4.182726	 0.413087	 0.879368

	symmetry c1
}
set optking {
	frozen_dihedral = ("
		15 11 8 12
	")
}

ee,wfn = optimize('scf', return_wfn=True)
oeprop( wfn, 'DIPOLE', 'QUADRUPOLE', 'MULLIKEN_CHARGES')
f=open( 'psi4out.xyz', 'w' )
f.write( "23  " )
f.write( str(ee) + "\n" )
f.write( MOL.save_string_xyz() )
f.close()
--------------------------------------------------------------------------

    Molecular point group: c1
  Charge       = 0
  Multiplicity = 1
  Basis Set: CC-PVTZ
  Basis Set:
  @DF-RHF Final Energy:  -423.12587475161428
    Total Energy =                       -423.1258747516145604
    Molecular point group: c1
  Basis Set: CC-PVTZ
  Basis Set:
  Basis Set: CC-PVTZ
  Basis Set:
  @DF-RHF Final Energy:  -423.12613777417772
    Total Energy =                       -423.1261377741775505
  Basis Set: CC-PVTZ
  Basis Set:
  Basis Set: CC-PVTZ
  Basis Set:
  @DF-RHF Final Energy:  -423.12623337197448
    Total Energy =                       -423.1262333719746493
  Basis Set: CC-PVTZ
  Basis Set:
  Basis Set: CC-PVTZ
  Basis Set:
  @DF-RHF Final Energy:  -423.12621039240815
    Total Energy =                       -423.1262103924082112
  Basis Set: CC-PVTZ
  Basis Set:
  Basis Set: CC-PVTZ
  Basis Set:
  @DF-RHF Final Energy:  -423.12623441186696
    Total Energy =                       -423.1262344118672445
  Basis Set: CC-PVTZ
  Basis Set:
  Charge       = 0
  Multiplicity = 1
  Basis Set: CC-PVTZ
  Basis Set:

    Orbital Energies (a.u.)
    -----------------------

    Doubly Occupied:

       1A    -20.596361     2A    -20.534182     3A    -11.364658
       4A    -11.278516     5A    -11.233671     6A    -11.217739
       7A    -11.215532     8A    -11.214212     9A    -11.207899
      10A     -1.472258    11A     -1.365835    12A     -1.093469
      13A     -1.043164    14A     -0.987436    15A     -0.932181
      16A     -0.848621    17A     -0.792973    18A     -0.769700
      19A     -0.699016    20A     -0.686580    21A     -0.675949
      22A     -0.643711    23A     -0.614951    24A     -0.598897
      25A     -0.583879    26A     -0.565044    27A     -0.539712
      28A     -0.529541    29A     -0.523188    30A     -0.504505
      31A     -0.496027    32A     -0.468385    33A     -0.462844
      34A     -0.461288    35A     -0.455767    36A     -0.438350

  @DF-RHF Final Energy:  -423.12623459660887

   => Energetics <=

    Nuclear Repulsion Energy =            455.2294308858909631
    One-Electron Energy =               -1478.4792509866106229
    Two-Electron Energy =                 600.1235855041105651
    DFT Exchange-Correlation Energy =       0.0000000000000000
    Empirical Dispersion Energy =           0.0000000000000000
    PCM Polarization Energy =               0.0000000000000000
    EFP Energy =                            0.0000000000000000
    Total Energy =                       -423.1262345966091516
    Molecular point group: c1
  Basis Set: CC-PVTZ
  Basis Set:

  -Total Gradient:
     Atom            X                  Y                   Z
    ------   -----------------  -----------------  -----------------
       1       -0.000004826072     0.000015041082    -0.000020292695
       2        0.000005769328    -0.000004334992     0.000045299375
       3        0.000008013166    -0.000001757550    -0.000004523152
       4        0.000009867607    -0.000014521987    -0.000010579084
       5       -0.000009186188    -0.000001791510    -0.000009803585
       6       -0.000001962858    -0.000001455574    -0.000005980738
       7        0.000001902984     0.000000681003    -0.000005064841
       8        0.001956917269     0.002873360422    -0.002224887694
       9       -0.000006924855    -0.000000225614     0.000002839942
      10       -0.000009144544    -0.000006132361     0.000000733195
      11       -0.001766367543    -0.002651728458     0.002642488373
      12       -0.001355140373    -0.001952481206     0.001439973832
      13       -0.000000870787    -0.000003327461     0.000010479489
      14        0.000007880389     0.000008560320    -0.000002192965
      15        0.001167892932     0.001726490103    -0.001849027349
      16        0.000003362268     0.000010262027     0.000001248247
      17       -0.000000432407    -0.000000976070    -0.000008378966
      18       -0.000008621850     0.000008137061     0.000000867461
      19        0.000005924772    -0.000005605963    -0.000002104307
      20       -0.000001182432     0.000004990194    -0.000000049369
      21       -0.000000532931     0.000001272219    -0.000004299092
      22       -0.000001230268    -0.000005345081    -0.000000540748
      23       -0.000001107599     0.000000889399     0.000003794669

  **** Optimization is complete! (in 6 steps) ****
    Final optimized geometry and variables:
    Molecular point group: c1

    Geometry (in Angstrom), charge = 0, multiplicity = 1:

    O            1.768969727863     1.209649269778    -0.142913836453
    C            1.630972165039     0.034203761024    -0.163376969990
    C            0.310408139688    -0.692009237222    -0.179441012131
    O            2.646163201851    -0.814141497587    -0.174837732499
    C           -0.897968050894     0.232710304029    -0.171386963511
    H            0.307519959127    -1.334081828395    -1.054265062835
    H            0.300848268161    -1.359231441588     0.676203582015
    C           -2.217427556319    -0.533687408713    -0.195208308698
    H           -0.845516884238     0.898012676679    -1.025444065255
    H           -0.857008077911     0.867818608424     0.706640635804
    C           -3.457559777251     0.376747046074    -0.122399730233
    H           -2.266047562317    -1.157172875432    -1.082794572296
    H           -2.238176854821    -1.228938924306     0.640655053554
    C           -4.114331844151     0.408748902052     1.253723750659
    H           -4.183083280097     0.073122921616    -0.869094831317
    H           -3.171715632556     1.387383946321    -0.398696631756
    H           -4.480768617002    -0.572997585795     1.534246725774
    H           -4.953796941276     1.094364885437     1.272980684219
    H           -3.410353263841     0.727652182624     2.015516006434
    C            3.949140395830    -0.267134882890    -0.161408309130
    H            4.110860347598     0.354225665784    -1.029743803576
    H            4.624664952545    -1.107016028835    -0.173831016404
    H            4.105487294322     0.323885975302     0.728817154764

  Mulliken Charges: (a.u.)
   Center  Symbol    Alpha    Beta     Spin     Total
       1     O     4.19702  4.19702  0.00000 -0.39403
       2     C     2.80610  2.80610  0.00000  0.38780
       3     C     3.10293  3.10293  0.00000 -0.20587
       4     O     4.14647  4.14647  0.00000 -0.29294
       5     C     3.08360  3.08360  0.00000 -0.16720
       6     H     0.43995  0.43995  0.00000  0.12010
       7     H     0.43964  0.43964  0.00000  0.12073
       8     C     3.09859  3.09859  0.00000 -0.19717
       9     H     0.44575  0.44575  0.00000  0.10850
      10     H     0.44562  0.44562  0.00000  0.10876
      11     C     3.09109  3.09109  0.00000 -0.18218
      12     H     0.44811  0.44811  0.00000  0.10378
      13     H     0.45668  0.45668  0.00000  0.08663
      14     C     3.14700  3.14700  0.00000 -0.29399
      15     H     0.44813  0.44813  0.00000  0.10375
      16     H     0.45306  0.45306  0.00000  0.09388
      17     H     0.45532  0.45532  0.00000  0.08935
      18     H     0.44871  0.44871  0.00000  0.10258
      19     H     0.45449  0.45449  0.00000  0.09102
      20     C     3.03772  3.03772  0.00000 -0.07544
      21     H     0.45434  0.45434  0.00000  0.09132
      22     H     0.44534  0.44534  0.00000  0.10933
      23     H     0.45436  0.45436  0.00000  0.09128

   Total alpha = 36.00000, Total beta = 36.00000, Total charge = -0.00000

*** Psi4 exiting successfully. Buy a developer a beer!
