                              Psi4 1.0.54 Driver

  ==> Input File <==

--------------------------------------------------------------------------
set {
	reference rhf
	basis cc-pvtz
}

set_num_threads( 4 )
memory 2 gb

molecule MOL {
0 1

H	 -0.725736	 0.067622	 1.994921
C	 -0.412930	 -0.484980	 1.135086
C	 -0.410334	 -1.865080	 1.127917
C	 0.000000	 0.179985	 0.000046
H	 -0.727835	 -2.400841	 2.000652
C	 -0.000003	 -2.552036	 -0.000011
N	 0.000000	 1.644631	 0.000076
C	 0.412931	 -0.484933	 -1.135021
H	 -0.000000	 -3.625035	 -0.000032
C	 0.410332	 -1.865033	 -1.127910
O	 1.050559	 2.194174	 -0.000073
O	 -1.050559	 2.194174	 -0.000074
H	 0.725730	 0.067703	 -1.994836
H	 0.727837	 -2.400759	 -2.000666

	symmetry c1
}
set optking {
	frozen_dihedral = ("
		2 4 7 11
	")
}

ee,wfn = optimize('scf', return_wfn=True)
oeprop( wfn, 'DIPOLE', 'QUADRUPOLE', 'MULLIKEN_CHARGES')
f=open( 'psi4out.xyz', 'w' )
f.write( "14  " )
f.write( str(ee) + "\n" )
f.write( MOL.save_string_xyz() )
f.close()
--------------------------------------------------------------------------

    Molecular point group: c1
  Charge       = 0
  Multiplicity = 1
  Basis Set: CC-PVTZ
  Basis Set:
  @DF-RHF Final Energy:  -434.32124560897387
    Total Energy =                       -434.3212456089736406
    Molecular point group: c1
  Basis Set: CC-PVTZ
  Basis Set:
  Basis Set: CC-PVTZ
  Basis Set:
  @DF-RHF Final Energy:  -434.31483449452213
    Total Energy =                       -434.3148344945220742
  Basis Set: CC-PVTZ
  Basis Set:
  Basis Set: CC-PVTZ
  Basis Set:
  @DF-RHF Final Energy:  -434.32058126683046
    Total Energy =                       -434.3205812668305725
  Basis Set: CC-PVTZ
  Basis Set:
  Basis Set: CC-PVTZ
  Basis Set:
  @DF-RHF Final Energy:  -434.32161059706561
    Total Energy =                       -434.3216105970659555
  Basis Set: CC-PVTZ
  Basis Set:
  Basis Set: CC-PVTZ
  Basis Set:
  @DF-RHF Final Energy:  -434.32162975384688
    Total Energy =                       -434.3216297538467643
  Basis Set: CC-PVTZ
  Basis Set:
  Basis Set: CC-PVTZ
  Basis Set:
  @DF-RHF Final Energy:  -434.32166593116267
    Total Energy =                       -434.3216659311625563
  Basis Set: CC-PVTZ
  Basis Set:
  Charge       = 0
  Multiplicity = 1
  Basis Set: CC-PVTZ
  Basis Set:

    Orbital Energies (a.u.)
    -----------------------

    Doubly Occupied:

       1A    -20.597708     2A    -20.597520     3A    -15.848092
       4A    -11.307376     5A    -11.267598     6A    -11.267457
       7A    -11.260853     8A    -11.260349     9A    -11.258717
      10A     -1.644992    11A     -1.428140    12A     -1.206452
      13A     -1.096760    14A     -1.056804    15A     -0.959301
      16A     -0.874292    17A     -0.831153    18A     -0.786444
      19A     -0.740640    20A     -0.737939    21A     -0.717737
      22A     -0.652831    23A     -0.650681    24A     -0.625952
      25A     -0.561237    26A     -0.551740    27A     -0.533743
      28A     -0.499862    29A     -0.486620    30A     -0.458717
      31A     -0.372224    32A     -0.370519

  @DF-RHF Final Energy:  -434.32166611031596

   => Energetics <=

    Nuclear Repulsion Energy =            417.4990871058975017
    One-Electron Energy =               -1418.6206126019922067
    Two-Electron Energy =                 566.7998593857785181
    DFT Exchange-Correlation Energy =       0.0000000000000000
    Empirical Dispersion Energy =           0.0000000000000000
    PCM Polarization Energy =               0.0000000000000000
    EFP Energy =                            0.0000000000000000
    Total Energy =                       -434.3216661103161869
    Molecular point group: c1
  Basis Set: CC-PVTZ
  Basis Set:

  -Total Gradient:
     Atom            X                  Y                   Z
    ------   -----------------  -----------------  -----------------
       1       -0.000003564121    -0.000002474457    -0.000007391662
       2        0.003826604441    -0.000160289420     0.001261863534
       3       -0.000041253376     0.000012411162    -0.000006131048
       4       -0.005396887488     0.000234668687    -0.000095642272
       5       -0.000003076748     0.000001650395    -0.000000442610
       6        0.000007039297    -0.000000060179    -0.000007690802
       7        0.001512604136     0.000084823107    -0.005685124600
       8        0.000028088176    -0.000015250322    -0.000005680146
       9        0.000005456191     0.000000684568     0.000002946116
      10        0.000002796627    -0.000001642372    -0.000008367407
      11        0.000160998921    -0.000146441858     0.004548378827
      12       -0.000085359387    -0.000006445351     0.000002157645
      13       -0.000006711806    -0.000002737695     0.000004787614
      14       -0.000006734863     0.000001103733    -0.000003663193

  **** Optimization is complete! (in 7 steps) ****
    Final optimized geometry and variables:
    Molecular point group: c1

    Geometry (in Angstrom), charge = 0, multiplicity = 1:

    H           -0.731584029439     0.077925454066     1.988918925714
    C           -0.422827989681    -0.475750801192     1.124947318961
    C           -0.419907596096    -1.857059074904     1.119184457228
    C           -0.026273299508     0.178989314841    -0.016355428532
    H           -0.721231573676    -2.391385339862     1.998688977493
    C           -0.031271099006    -2.546349349306    -0.014400813635
    N            0.024233606776     1.642552656053     0.004347819083
    C            0.391764439995    -0.479216247927    -1.148003775714
    H           -0.037088860855    -3.618977295218    -0.014862442377
    C            0.370003345568    -1.860251556697    -1.145651735056
    O            1.096401678114     2.145165012349    -0.024949480033
    O           -1.007917528240     2.218554818106     0.084838495149
    H            0.722949230561     0.071678688302    -2.005462158061
    H            0.675178363581    -2.397083557457    -2.022295624433

  Mulliken Charges: (a.u.)
   Center  Symbol    Alpha    Beta     Spin     Total
       1     H     0.41209  0.41209  0.00000  0.17581
       2     C     3.08641  3.08641  0.00000 -0.17282
       3     C     3.06529  3.06529  0.00000 -0.13059
       4     C     2.92594  2.92594  0.00000  0.14811
       5     H     0.41734  0.41734  0.00000  0.16533
       6     C     3.07584  3.07584  0.00000 -0.15169
       7     N     3.28878  3.28878  0.00000  0.42245
       8     C     3.08633  3.08633  0.00000 -0.17267
       9     H     0.41789  0.41789  0.00000  0.16421
      10     C     3.06480  3.06480  0.00000 -0.12960
      11     O     4.16367  4.16367  0.00000 -0.32734
      12     O     4.16511  4.16511  0.00000 -0.33021
      13     H     0.41315  0.41315  0.00000  0.17371
      14     H     0.41735  0.41735  0.00000  0.16530

   Total alpha = 32.00000, Total beta = 32.00000, Total charge =  0.00000

*** Psi4 exiting successfully. Buy a developer a beer!
