                              Psi4 1.0.54 Driver

  ==> Input File <==

--------------------------------------------------------------------------
set {
	reference rhf
	basis cc-pvtz
}

set_num_threads( 4 )
memory 2 gb

molecule MOL {
0 1

H	 -3.431247	 -0.761353	 0.592740
O	 -3.110492	 -0.171307	 -0.065529
C	 -1.774168	 -0.067297	 -0.018427
C	 -1.011627	 -0.767380	 0.908315
C	 -1.164798	 0.772486	 -0.935823
H	 -1.491631	 -1.416987	 1.616858
C	 0.355546	 -0.624156	 0.912883
H	 -1.771237	 1.303178	 -1.641952
C	 0.205308	 0.904832	 -0.917992
H	 0.955045	 -1.158751	 1.622754
C	 0.981121	 0.213562	 0.000000
H	 0.679119	 1.556074	 -1.629262
C	 2.447402	 0.371303	 0.000000
O	 3.227427	 -0.521847	 0.000000
H	 2.796538	 1.409525	 0.000000

	symmetry c1
}
set optking {
	frozen_dihedral = ("
		7 11 13 14
	")
}

ee,wfn = optimize('scf', return_wfn=True)
oeprop( wfn, 'DIPOLE', 'QUADRUPOLE', 'MULLIKEN_CHARGES')
f=open( 'psi4out.xyz', 'w' )
f.write( "15  " )
f.write( str(ee) + "\n" )
f.write( MOL.save_string_xyz() )
f.close()
--------------------------------------------------------------------------

    Molecular point group: c1
  Charge       = 0
  Multiplicity = 1
  Basis Set: CC-PVTZ
  Basis Set:
  @DF-RHF Final Energy:  -418.43352438667415
    Total Energy =                       -418.4335243866740939
    Molecular point group: c1
  Basis Set: CC-PVTZ
  Basis Set:
  Basis Set: CC-PVTZ
  Basis Set:
  @DF-RHF Final Energy:  -418.43257717273906
    Total Energy =                       -418.4325771727390020
  Basis Set: CC-PVTZ
  Basis Set:
  Basis Set: CC-PVTZ
  Basis Set:
  @DF-RHF Final Energy:  -418.43406816053556
    Total Energy =                       -418.4340681605355030
  Basis Set: CC-PVTZ
  Basis Set:
  Basis Set: CC-PVTZ
  Basis Set:
  @DF-RHF Final Energy:  -418.43444788085054
    Total Energy =                       -418.4344478808505983
  Basis Set: CC-PVTZ
  Basis Set:
  Basis Set: CC-PVTZ
  Basis Set:
  @DF-RHF Final Energy:  -418.43445173663429
    Total Energy =                       -418.4344517366340597
  Basis Set: CC-PVTZ
  Basis Set:
  Basis Set: CC-PVTZ
  Basis Set:
  @DF-RHF Final Energy:  -418.43445344943677
    Total Energy =                       -418.4344534494363188
  Basis Set: CC-PVTZ
  Basis Set:
  Basis Set: CC-PVTZ
  Basis Set:
  @DF-RHF Final Energy:  -418.43445230626151
    Total Energy =                       -418.4344523062612780
  Basis Set: CC-PVTZ
  Basis Set:
  Charge       = 0
  Multiplicity = 1
  Basis Set: CC-PVTZ
  Basis Set:

    Orbital Energies (a.u.)
    -----------------------

    Doubly Occupied:

       1A    -20.600686     2A    -20.553734     3A    -11.326619
       4A    -11.317063     5A    -11.254975     6A    -11.254138
       7A    -11.240956     8A    -11.239863     9A    -11.236525
      10A     -1.433152    11A     -1.408609    12A     -1.174228
      13A     -1.042879    14A     -1.041387    15A     -0.890782
      16A     -0.868456    17A     -0.799606    18A     -0.759506
      19A     -0.715954    20A     -0.673983    21A     -0.653386
      22A     -0.631657    23A     -0.611661    24A     -0.609443
      25A     -0.592439    26A     -0.565589    27A     -0.541883
      28A     -0.507811    29A     -0.494296    30A     -0.424028
      31A     -0.360372    32A     -0.329929

  @DF-RHF Final Energy:  -418.43445293119294

   => Energetics <=

    Nuclear Repulsion Energy =            401.6075732180752311
    One-Electron Energy =               -1365.7728523168348147
    Two-Electron Energy =                 545.7308261675669883
    DFT Exchange-Correlation Energy =       0.0000000000000000
    Empirical Dispersion Energy =           0.0000000000000000
    PCM Polarization Energy =               0.0000000000000000
    EFP Energy =                            0.0000000000000000
    Total Energy =                       -418.4344529311925953
    Molecular point group: c1
  Basis Set: CC-PVTZ
  Basis Set:

  -Total Gradient:
     Atom            X                  Y                   Z
    ------   -----------------  -----------------  -----------------
       1        0.000019925000    -0.000006685831     0.000007585752
       2        0.000022554737     0.000098281956     0.000009563372
       3       -0.000000490422    -0.000278942373    -0.000030365223
       4       -0.000055631705    -0.000004734013    -0.000003838770
       5        0.000086492512     0.000096807380     0.000021913915
       6        0.000026719621    -0.000018693183    -0.000003493762
       7       -0.000716195032     0.005584672641     0.004249646201
       8        0.000022975986     0.000004280566    -0.000006527123
       9        0.000017171608     0.000171074741    -0.000118818799
      10       -0.000015697054    -0.000080527444     0.000006553392
      11        0.001220625223    -0.008396260753    -0.009700753089
      12        0.000012000278    -0.000010021036    -0.000082759345
      13       -0.000792634789     0.003357202057     0.013957448812
      14        0.000194087546    -0.000576436995    -0.008348848110
      15       -0.000041903514     0.000059982285     0.000042692779

  **** Optimization is complete! (in 8 steps) ****
    Final optimized geometry and variables:
    Molecular point group: c1

    Geometry (in Angstrom), charge = 0, multiplicity = 1:

    H           -3.444666856553    -0.728760579399     0.610317472167
    O           -3.120715368962    -0.147740449579    -0.054358934674
    C           -1.780441079829    -0.060736624338    -0.013167238235
    C           -1.021504875787    -0.741403440352     0.923502644436
    C           -1.164434451063     0.759775402186    -0.945669607389
    H           -1.501256110239    -1.360429304261     1.659169965218
    C            0.352742116553    -0.619708428094     0.910008257594
    H           -1.768469797650     1.288786701211    -1.655474722863
    C            0.204492167382     0.892597457002    -0.929827612807
    H            0.943153823563    -1.154983774840     1.628227154610
    C            0.981387320559     0.175193348211    -0.031191086668
    H            0.675348803568     1.551220288924    -1.636588308601
    C            2.453346843090     0.373748756799     0.004867185903
    O            3.247088155046    -0.500496008999     0.084330833475
    H            2.785589896297     1.411175939795    -0.111189220511

  Mulliken Charges: (a.u.)
   Center  Symbol    Alpha    Beta     Spin     Total
       1     H     0.38593  0.38593  0.00000  0.22814
       2     O     4.16851  4.16851  0.00000 -0.33702
       3     C     2.85162  2.85162  0.00000  0.29676
       4     C     3.12665  3.12665  0.00000 -0.25330
       5     C     3.10195  3.10195  0.00000 -0.20390
       6     H     0.43174  0.43174  0.00000  0.13652
       7     C     3.08336  3.08336  0.00000 -0.16671
       8     H     0.41668  0.41668  0.00000  0.16664
       9     C     3.07506  3.07506  0.00000 -0.15012
      10     H     0.41264  0.41264  0.00000  0.17471
      11     C     2.97022  2.97022  0.00000  0.05956
      12     H     0.42230  0.42230  0.00000  0.15539
      13     C     2.92368  2.92368  0.00000  0.15264
      14     O     4.16820  4.16820  0.00000 -0.33639
      15     H     0.46145  0.46145  0.00000  0.07710

   Total alpha = 32.00000, Total beta = 32.00000, Total charge = -0.00000

*** Psi4 exiting successfully. Buy a developer a beer!
