  ==> Input File <==

--------------------------------------------------------------------------
set {
	reference rhf
	basis 6-31G*
}

set_num_threads( 1 )
memory 2 gb

molecule MOL {
0 1

H	 -3.420663	 1.227371	 -1.044276
O	 -3.452007	 0.283848	 -0.965577
C	 -3.181085	 -0.079926	 0.364119
C	 -1.765924	 0.277073	 0.805136
H	 -3.327791	 -1.152017	 0.410903
H	 -3.905698	 0.375695	 1.036898
C	 -0.677594	 -0.417312	 -0.014550
H	 -1.637766	 1.358238	 0.744969
H	 -1.659588	 0.017670	 1.857098
C	 0.738335	 -0.034840	 0.421385
H	 -0.814977	 -0.178223	 -1.064632
H	 -0.802730	 -1.495410	 0.071702
C	 1.822265	 -0.738362	 -0.399735
H	 0.853533	 1.043532	 0.342250
H	 0.871597	 -0.279636	 1.474438
C	 1.402267	 -2.087387	 -0.994621
H	 2.707220	 -0.879431	 0.218852
H	 2.123547	 -0.081628	 -1.213213
C	 1.123816	 -3.179510	 0.039854
H	 2.191051	 -2.430867	 -1.659551
H	 0.521134	 -1.946989	 -1.617595
H	 1.984121	 -3.333156	 0.685924
H	 0.904607	 -4.124850	 -0.447093
H	 0.275683	 -2.935088	 0.670799

	symmetry c1
}
set optking {
	frozen_dihedral = ("
		20 16 13 17,
		13 10 7 11,
		11 7 4 3,
		1 2 3 5,
		7 4 3 2
	")
}

ee = energy('scf')
oeprop('DIPOLE', 'QUADRUPOLE', 'MULLIKEN_CHARGES')
f=open( 'psi4out.xyz', 'w' )
f.write( "24  " )
f.write( str(ee) + "\n" )
f.write( MOL.save_string_xyz() )
f.close()
--------------------------------------------------------------------------

    Molecular point group: c1

    Geometry (in Angstrom), charge = 0, multiplicity = 1:

       Center              X                  Y                   Z               Mass
    ------------   -----------------  -----------------  -----------------  -----------------
           H         -2.862354371976     1.963796024867    -0.938229475086     1.007825032070
           O         -2.893698371976     1.020273024867    -0.859530475086    15.994914619560
           C         -2.622776371976     0.656499024867     0.470165524914    12.000000000000
           C         -1.207615371976     1.013498024867     0.911182524914    12.000000000000
           H         -2.769482371976    -0.415591975133     0.516949524914     1.007825032070
           H         -3.347389371976     1.112120024867     1.142944524914     1.007825032070
           C         -0.119285371976     0.319113024867     0.091496524914    12.000000000000
           H         -1.079457371976     2.094663024867     0.851015524914     1.007825032070
           H         -1.101279371976     0.754095024867     1.963144524914     1.007825032070
           C          1.296643628024     0.701585024867     0.527431524914    12.000000000000
           H         -0.256668371976     0.558202024867    -0.958585475086     1.007825032070
           H         -0.244421371976    -0.758984975133     0.177748524914     1.007825032070
           C          2.380573628024    -0.001936975133    -0.293688475086    12.000000000000
           H          1.411841628024     1.779957024867     0.448296524914     1.007825032070
           H          1.429905628024     0.456789024867     1.580484524914     1.007825032070
           C          1.960575628024    -1.350961975133    -0.888574475086    12.000000000000
           H          3.265528628024    -0.143005975133     0.324898524914     1.007825032070
           H          2.681855628024     0.654797024867    -1.107166475086     1.007825032070
           C          1.682124628024    -2.443084975133     0.145900524914    12.000000000000
           H          2.749359628024    -1.694441975133    -1.553504475086     1.007825032070
           H          1.079442628024    -1.210563975133    -1.511548475086     1.007825032070
           H          2.542429628024    -2.596730975133     0.791970524914     1.007825032070
           H          1.462915628024    -3.388424975133    -0.341046475086     1.007825032070
           H          0.833991628024    -2.198662975133     0.776845524914     1.007825032070

  Charge       = 0
  Multiplicity = 1
  Basis Set: 6-31G*
  Basis Set:

    Orbital Energies (a.u.)
    -----------------------

    Doubly Occupied:

       1A    -20.553428     2A    -11.267416     3A    -11.216562
       4A    -11.211782     5A    -11.211627     6A    -11.210600
       7A    -11.208913     8A    -11.206297     9A     -1.359994
      10A     -1.092333    11A     -1.043446    12A     -0.983179
      13A     -0.918380    14A     -0.852106    15A     -0.811754
      16A     -0.758101    17A     -0.681144    18A     -0.654772
      19A     -0.623764    20A     -0.618980    21A     -0.610644
      22A     -0.576504    23A     -0.552600    24A     -0.543014
      25A     -0.519563    26A     -0.512680    27A     -0.493357
      28A     -0.478812    29A     -0.468710    30A     -0.459954
      31A     -0.444928    32A     -0.442175    33A     -0.420129

  @DF-RHF Final Energy:  -349.23668704266930

   => Energetics <=

    Nuclear Repulsion Energy =            398.5329562931104306
    One-Electron Energy =               -1263.5238328928976443
    Two-Electron Energy =                 515.7541895571175701
    DFT Exchange-Correlation Energy =       0.0000000000000000
    Empirical Dispersion Energy =           0.0000000000000000
    PCM Polarization Energy =               0.0000000000000000
    EFP Energy =                            0.0000000000000000
    Total Energy =                       -349.2366870426697005

  Mulliken Charges: (a.u.)
   Center  Symbol    Alpha    Beta     Spin     Total
       1     H     0.28338  0.28338  0.00000  0.43324
       2     O     4.36843  4.36843  0.00000 -0.73687
       3     C     2.99604  2.99604  0.00000  0.00793
       4     C     3.16737  3.16737  0.00000 -0.33474
       5     H     0.41671  0.41671  0.00000  0.16658
       6     H     0.42821  0.42821  0.00000  0.14359
       7     C     3.15997  3.15997  0.00000 -0.31994
       8     H     0.42877  0.42877  0.00000  0.14247
       9     H     0.42290  0.42290  0.00000  0.15420
      10     C     3.15476  3.15476  0.00000 -0.30951
      11     H     0.41160  0.41160  0.00000  0.17680
      12     H     0.41942  0.41942  0.00000  0.16117
      13     C     3.15284  3.15284  0.00000 -0.30568
      14     H     0.42145  0.42145  0.00000  0.15710
      15     H     0.42376  0.42376  0.00000  0.15249
      16     C     3.16217  3.16217  0.00000 -0.32434
      17     H     0.42238  0.42238  0.00000  0.15524
      18     H     0.42146  0.42146  0.00000  0.15708
      19     C     3.24078  3.24078  0.00000 -0.48156
      20     H     0.41969  0.41969  0.00000  0.16063
      21     H     0.41631  0.41631  0.00000  0.16738
      22     H     0.42220  0.42220  0.00000  0.15559
      23     H     0.41890  0.41890  0.00000  0.16220
      24     H     0.42052  0.42052  0.00000  0.15896

   Total alpha = 33.00000, Total beta = 33.00000, Total charge =  0.00000
