  ==> Input File <==

--------------------------------------------------------------------------
set {
	reference rhf
	basis cc-pvtz
}

set_num_threads( 4 )
memory 2 gb

molecule MOL {
0 1

H	 2.604515	 -0.626695	 -1.026921
N	 2.433987	 -0.362316	 -0.080024
C	 1.263552	 0.494993	 0.021953
H	 3.251299	 0.110208	 0.245643
C	 -0.016533	 -0.325589	 -0.026925
H	 1.280915	 1.180773	 -0.818522
H	 1.263064	 1.106893	 0.925038
C	 -1.280353	 0.525521	 0.047747
H	 -0.016686	 -0.912532	 -0.939714
H	 -0.014099	 -1.037598	 0.796369
C	 -2.560681	 -0.301323	 -0.007747
H	 -1.279957	 1.241025	 -0.770189
H	 -1.270445	 1.110526	 0.963468
H	 -2.617064	 -0.872870	 -0.928010
H	 -3.439525	 0.331102	 0.043462
H	 -2.609427	 -1.002736	 0.818585

	symmetry c1
}
set optking {
	frozen_dihedral = ("
		1 2 3 6
	")
}

ee = optimize('scf')
oeprop('DIPOLE', 'QUADRUPOLE', 'MULLIKEN_CHARGES')
f=open( 'psi4out.xyz', 'w' )
f.write( "16  " )
f.write( str(ee) + "\n" )
f.write( MOL.save_string_xyz() )
f.close()
--------------------------------------------------------------------------

    Molecular point group: c1
  Charge       = 0
  Multiplicity = 1
  Basis Set: CC-PVTZ
  Basis Set:
  @DF-RHF Final Energy:  -212.39790229309708
    Total Energy =                       -212.3979022930968767
    Molecular point group: c1
  Basis Set: CC-PVTZ
  Basis Set:
  Basis Set: CC-PVTZ
  Basis Set:
  @DF-RHF Final Energy:  -212.39939533787538
    Total Energy =                       -212.3993953378754327
  Basis Set: CC-PVTZ
  Basis Set:
  Basis Set: CC-PVTZ
  Basis Set:
  @DF-RHF Final Energy:  -212.39962559597623
    Total Energy =                       -212.3996255959765449
  Basis Set: CC-PVTZ
  Basis Set:
  Basis Set: CC-PVTZ
  Basis Set:
  @DF-RHF Final Energy:  -212.39962968789220
    Total Energy =                       -212.3996296878922863
  Basis Set: CC-PVTZ
  Basis Set:
  Charge       = 0
  Multiplicity = 1
  Basis Set: CC-PVTZ
  Basis Set:

    Orbital Energies (a.u.)
    -----------------------

    Doubly Occupied:

       1A    -15.527233     2A    -11.238624     3A    -11.211673
       4A    -11.205034     5A    -11.204897     6A     -1.177991
       7A     -1.059753     8A     -0.959391     9A     -0.843424
      10A     -0.789810    11A     -0.671079    12A     -0.631080
      13A     -0.609060    14A     -0.576802    15A     -0.559542
      16A     -0.528524    17A     -0.495877    18A     -0.470688
      19A     -0.466098    20A     -0.461386    21A     -0.384412

  @DF-RHF Final Energy:  -212.39963063559674

   => Energetics <=

    Nuclear Repulsion Energy =            186.3752469850824127
    One-Electron Energy =                -655.4049971577328506
    Two-Electron Energy =                 256.6301195370537016
    DFT Exchange-Correlation Energy =       0.0000000000000000
    Empirical Dispersion Energy =           0.0000000000000000
    PCM Polarization Energy =               0.0000000000000000
    EFP Energy =                            0.0000000000000000
    Total Energy =                       -212.3996306355967363
    Molecular point group: c1
  Basis Set: CC-PVTZ
  Basis Set:

  -Total Gradient:
     Atom            X                  Y                   Z
    ------   -----------------  -----------------  -----------------
       1        0.001297232476     0.001808911247    -0.000199975236
       2       -0.001940543864    -0.002608821327    -0.000095848115
       3        0.001656616946     0.002122934339     0.001418701702
       4        0.000018928383    -0.000000315223     0.000008767273
       5        0.000018521733     0.000016090723     0.000022346265
       6       -0.001036182136    -0.001341669552    -0.001185022745
       7       -0.000019092940    -0.000012344222     0.000005222285
       8       -0.000003700126     0.000005402139     0.000013905939
       9        0.000020625105     0.000015223837     0.000008501291
      10       -0.000004605577    -0.000004985534     0.000006694544
      11       -0.000004700908     0.000002362226    -0.000004059751
      12        0.000005483841    -0.000001824600     0.000005096460
      13       -0.000005434489    -0.000000419451     0.000001646946
      14        0.000000779910    -0.000003140545    -0.000000290279
      15       -0.000003731239    -0.000001532829    -0.000005526950
      16       -0.000000197119     0.000004128772    -0.000000159627

  **** Optimization is complete! (in 5 steps) ****
    Final optimized geometry and variables:
    Molecular point group: c1

    Geometry (in Angstrom), charge = 0, multiplicity = 1:

    H            2.635974869092    -0.624320761211    -0.990756068297
    N            2.436338264698    -0.369595622706    -0.046214705855
    C            1.262478439456     0.491020944436     0.023650636361
    H            3.244710381983     0.107264695683     0.292762820406
    C           -0.019747306328    -0.329448394545    -0.013323219046
    H            1.232049367442     1.222600733604    -0.783819797799
    H            1.305472680234     1.045926959162     0.954158670031
    C           -1.282667489587     0.523265995112     0.056878078860
    H           -0.033484047091    -0.921599144484    -0.925909166513
    H           -0.000954105540    -1.037185494449     0.808995292318
    C           -2.563969357497    -0.303189490870     0.021205630131
    H           -1.289485109184     1.230802998839    -0.768101207211
    H           -1.265162791955     1.117947235854     0.966601178173
    H           -2.628983260989    -0.884015886772    -0.892872228741
    H           -3.442319347917     0.329958747391     0.073720865683
    H           -2.604896613369    -0.996318948953     0.854646817992

  Mulliken Charges: (a.u.)
   Center  Symbol    Alpha    Beta     Spin     Total
       1     H     0.43100  0.43100  0.00000  0.13800
       2     N     3.68934  3.68934  0.00000 -0.37867
       3     C     3.03486  3.03486  0.00000 -0.06973
       4     H     0.42884  0.42884  0.00000  0.14232
       5     C     3.07215  3.07215  0.00000 -0.14431
       6     H     0.46618  0.46618  0.00000  0.06763
       7     H     0.45630  0.45630  0.00000  0.08739
       8     C     3.08936  3.08936  0.00000 -0.17872
       9     H     0.46009  0.46009  0.00000  0.07982
      10     H     0.45139  0.45139  0.00000  0.09722
      11     C     3.14931  3.14931  0.00000 -0.29862
      12     H     0.45685  0.45685  0.00000  0.08629
      13     H     0.45575  0.45575  0.00000  0.08850
      14     H     0.45531  0.45531  0.00000  0.08938
      15     H     0.44902  0.44902  0.00000  0.10196
      16     H     0.45424  0.45424  0.00000  0.09152

   Total alpha = 21.00000, Total beta = 21.00000, Total charge = -0.00000
