  ==> Input File <==

--------------------------------------------------------------------------
set {
	reference rhf
	basis 6-31G*
}

set_num_threads( 4 )
memory 2 gb

molecule MOL {
0 1

O	 3.225979	 0.970355	 -0.599647
C	 2.701189	 0.057885	 -0.047330
C	 1.245376	 -0.013843	 0.345420
O	 3.347903	 -1.046386	 0.304773
C	 0.455112	 1.231400	 -0.050772
H	 0.838542	 -0.913825	 -0.103701
H	 1.208210	 -0.175333	 1.419774
C	 -0.998893	 1.219485	 0.433193
H	 0.482531	 1.345121	 -1.130325
H	 0.957290	 2.103070	 0.354729
C	 -1.883438	 0.145884	 -0.207175
H	 -1.431207	 2.195402	 0.224832
H	 -1.019646	 1.105716	 1.516076
C	 -3.347647	 0.245583	 0.225435
H	 -1.822183	 0.231698	 -1.291012
H	 -1.510341	 -0.844814	 0.042401
C	 -3.541329	 0.135814	 1.738897
H	 -3.922404	 -0.536835	 -0.267223
H	 -3.761994	 1.191000	 -0.121268
C	 -5.006634	 0.232495	 2.162260
H	 -3.126931	 -0.807914	 2.087169
H	 -2.971053	 0.919761	 2.232853
H	 -5.111359	 0.151404	 3.239786
H	 -5.597862	 -0.559934	 1.712036
H	 -5.440851	 1.180816	 1.858259
C	 4.728119	 -1.109107	 -0.004993
H	 4.882018	 -1.033965	 -1.071845
H	 5.068212	 -2.067527	 0.355250
H	 5.265056	 -0.311663	 0.488280

	symmetry c1
}
set optking {
	frozen_dihedral = ("
		17 14 11 15
	")
}

ee = optimize('scf')
oeprop('DIPOLE', 'QUADRUPOLE', 'MULLIKEN_CHARGES')
f=open( 'psi4out.xyz', 'w' )
f.write( "29  " )
f.write( str(ee) + "\n" )
f.write( MOL.save_string_xyz() )
f.close()
--------------------------------------------------------------------------

    Molecular point group: c1
  Charge       = 0
  Multiplicity = 1
  Basis Set: 6-31G*
  Basis Set:
  @DF-RHF Final Energy:  -501.04131358300583
    Total Energy =                       -501.0413135830053761
    Molecular point group: c1
  Basis Set: 6-31G*
  Basis Set:
  Basis Set: 6-31G*
  Basis Set:
  @DF-RHF Final Energy:  -501.04178774182947
    Total Energy =                       -501.0417877418299213
  Basis Set: 6-31G*
  Basis Set:
  Basis Set: 6-31G*
  Basis Set:
  @DF-RHF Final Energy:  -501.04226771083415
    Total Energy =                       -501.0422677108346079
  Basis Set: 6-31G*
  Basis Set:
  Basis Set: 6-31G*
  Basis Set:
  @DF-RHF Final Energy:  -501.04230538817342
    Total Energy =                       -501.0423053881734177
  Basis Set: 6-31G*
  Basis Set:
  @DF-RHF Final Energy:  -501.04226137384182
    Total Energy =                       -501.0422613738423934
  Basis Set: 6-31G*
  Basis Set:
  @DF-RHF Final Energy:  -501.04228717291664
    Total Energy =                       -501.0422871729175540
  Basis Set: 6-31G*
  Basis Set:
  Basis Set: 6-31G*
  Basis Set:
  @DF-RHF Final Energy:  -501.04230648090197
    Total Energy =                       -501.0423064809028801
  Basis Set: 6-31G*
  Basis Set:
  Basis Set: 6-31G*
  Basis Set:
  @DF-RHF Final Energy:  -501.04230982151262
    Total Energy =                       -501.0423098215121627
  Basis Set: 6-31G*
  Basis Set:
  Charge       = 0
  Multiplicity = 1
  Basis Set: 6-31G*
  Basis Set:

    Orbital Energies (a.u.)
    -----------------------

    Doubly Occupied:

       1A    -20.603346     2A    -20.545165     3A    -11.371965
       4A    -11.280643     5A    -11.234699     6A    -11.219038
       7A    -11.217260     8A    -11.216399     9A    -11.215728
      10A    -11.214806    11A    -11.209178    12A     -1.469040
      13A     -1.362481    14A     -1.098283    15A     -1.065984
      16A     -1.017797    17A     -0.977073    18A     -0.928964
      19A     -0.861872    20A     -0.815801    21A     -0.777314
      22A     -0.760368    23A     -0.700691    24A     -0.682336
      25A     -0.671735    26A     -0.644984    27A     -0.626873
      28A     -0.607322    29A     -0.598729    30A     -0.580699
      31A     -0.564373    32A     -0.555994    33A     -0.543084
      34A     -0.524487    35A     -0.513308    36A     -0.509539
      37A     -0.495017    38A     -0.483694    39A     -0.473156
      40A     -0.456822    41A     -0.456038    42A     -0.447839
      43A     -0.445087    44A     -0.436700

  @DF-RHF Final Energy:  -501.04231023573209

   => Energetics <=

    Nuclear Repulsion Energy =            615.4075322940781234
    One-Electron Energy =               -1901.9362655428230937
    Two-Electron Energy =                 785.4864230130127680
    DFT Exchange-Correlation Energy =       0.0000000000000000
    Empirical Dispersion Energy =           0.0000000000000000
    PCM Polarization Energy =               0.0000000000000000
    EFP Energy =                            0.0000000000000000
    Total Energy =                       -501.0423102357323160
    Molecular point group: c1
  Basis Set: 6-31G*
  Basis Set:

  -Total Gradient:
     Atom            X                  Y                   Z
    ------   -----------------  -----------------  -----------------
       1        0.000002447987     0.000009367986     0.000021435669
       2       -0.000017722937    -0.000026124167    -0.000055400845
       3        0.000013637096     0.000002541127     0.000030071468
       4       -0.000002184510     0.000009308422     0.000018621525
       5       -0.000009126552     0.000014839312    -0.000021328788
       6        0.000019620535     0.000011038065    -0.000000287079
       7       -0.000003174332    -0.000001867267     0.000002381949
       8        0.000028577444    -0.000020177251     0.000029003787
       9        0.000000582805     0.000009059480    -0.000003056394
      10        0.000014608566    -0.000009558712    -0.000003403948
      11       -0.000151567750    -0.001298007738    -0.000084202982
      12       -0.000011507663    -0.000018069222     0.000002482040
      13        0.000024488393     0.000016498463    -0.000003137496
      14       -0.000104664856    -0.001266974268    -0.000058956931
      15        0.000167978937     0.001475152622     0.000054845062
      16       -0.000046775001     0.000016535017     0.000000961507
      17        0.000087388628     0.001057416763     0.000049147281
      18       -0.000002925252     0.000003020770    -0.000003668367
      19        0.000010210237    -0.000010757677    -0.000015021755
      20        0.000006553410     0.000041295664     0.000021945472
      21       -0.000001333698    -0.000005068057    -0.000004490128
      22       -0.000022175720    -0.000010549272     0.000016063973
      23       -0.000007768528     0.000014351345     0.000006177545
      24        0.000012045103    -0.000005338485     0.000012518533
      25       -0.000006150166    -0.000009045960    -0.000011520489
      26       -0.000000920376    -0.000000018913    -0.000003185359
      27       -0.000000070808     0.000000179038     0.000000489657
      28       -0.000000105148     0.000000435267     0.000000926573
      29        0.000000034128     0.000000517646     0.000000588526

  **** Optimization is complete! (in 9 steps) ****
    Final optimized geometry and variables:
    Molecular point group: c1

    Geometry (in Angstrom), charge = 0, multiplicity = 1:

    O            3.101850605188     0.796511346746    -1.046507896231
    C            2.601800391893    -0.120019616030    -0.478180767919
    C            1.162626183894    -0.198096178470    -0.029465578682
    O            3.265260390392    -1.223451680626    -0.155897653067
    C            0.353394252782     1.045843976928    -0.389955412129
    H            0.741073357714    -1.097488886181    -0.466123303322
    H            1.167622227718    -0.363960456157     1.044872088451
    C           -1.079804966525     1.025783142875     0.152931196139
    H            0.336972335254     1.162307409221    -1.469425306605
    H            0.868363757799     1.918158715533    -0.002212413931
    C           -1.970911202294    -0.066807454770    -0.450326724228
    H           -1.530748375305     1.994755206787    -0.051172963225
    H           -1.048351165212     0.928207727880     1.235357159204
    C           -3.459754648163     0.068575668745    -0.109028632669
    H           -1.865746088688    -0.030484686240    -1.533076290201
    H           -1.623746913858    -1.048638498536    -0.136705945634
    C           -3.788311284638     0.036893403458     1.386152411962
    H           -4.001023596774    -0.734333520356    -0.605310239691
    H           -3.838991554049     0.996581471412    -0.534340665796
    C           -5.292777325815     0.055821090809     1.656468858306
    H           -3.353166016585    -0.855294650074     1.833216686721
    H           -3.328767476432     0.884851436991     1.885437695433
    H           -5.501585727815     0.044746956544     2.721804710841
    H           -5.782165410125    -0.807258242791     1.214109705647
    H           -5.754316933404     0.946200281679     1.238608495318
    C            4.632615791630    -1.280269057345    -0.519203070306
    H            4.744776292866    -1.200485675346    -1.590916461629
    H            4.989529401775    -2.238904635843    -0.176237489040
    H            5.185677156530    -0.482911063946    -0.043931812809

  Mulliken Charges: (a.u.)
   Center  Symbol    Alpha    Beta     Spin     Total
       1     O     4.28598  4.28598  0.00000 -0.57195
       2     C     2.60489  2.60489  0.00000  0.79022
       3     C     3.20972  3.20972  0.00000 -0.41943
       4     O     4.30745  4.30745  0.00000 -0.61489
       5     C     3.15371  3.15371  0.00000 -0.30742
       6     H     0.39859  0.39859  0.00000  0.20282
       7     H     0.40131  0.40131  0.00000  0.19739
       8     C     3.15897  3.15897  0.00000 -0.31794
       9     H     0.41327  0.41327  0.00000  0.17346
      10     H     0.40883  0.40883  0.00000  0.18233
      11     C     3.15589  3.15589  0.00000 -0.31177
      12     H     0.41885  0.41885  0.00000  0.16229
      13     H     0.42146  0.42146  0.00000  0.15708
      14     C     3.15137  3.15137  0.00000 -0.30274
      15     H     0.42123  0.42123  0.00000  0.15754
      16     H     0.42350  0.42350  0.00000  0.15301
      17     C     3.15408  3.15408  0.00000 -0.30817
      18     H     0.42189  0.42189  0.00000  0.15623
      19     H     0.42367  0.42367  0.00000  0.15267
      20     C     3.23917  3.23917  0.00000 -0.47835
      21     H     0.42423  0.42423  0.00000  0.15154
      22     H     0.42017  0.42017  0.00000  0.15965
      23     H     0.41933  0.41933  0.00000  0.16135
      24     H     0.42178  0.42178  0.00000  0.15644
      25     H     0.42154  0.42154  0.00000  0.15693
      26     C     3.09240  3.09240  0.00000 -0.18480
      27     H     0.40909  0.40909  0.00000  0.18183
      28     H     0.40852  0.40852  0.00000  0.18296
      29     H     0.40913  0.40913  0.00000  0.18174

   Total alpha = 44.00000, Total beta = 44.00000, Total charge =  0.00000
