  ==> Input File <==

--------------------------------------------------------------------------
set {
	reference rhf
	basis 6-31G*
}

set_num_threads( 1 )
memory 2 gb

molecule MOL {
0 1

H	 -3.420663	 1.227371	 -1.044276
O	 -3.452007	 0.283848	 -0.965577
C	 -3.181085	 -0.079926	 0.364119
C	 -1.765924	 0.277073	 0.805136
H	 -3.327791	 -1.152017	 0.410903
H	 -3.905698	 0.375695	 1.036898
C	 -0.677594	 -0.417312	 -0.014550
H	 -1.637766	 1.358238	 0.744969
H	 -1.659588	 0.017670	 1.857098
C	 0.738335	 -0.034840	 0.421385
H	 -0.814977	 -0.178223	 -1.064632
H	 -0.802730	 -1.495410	 0.071702
C	 1.822265	 -0.738362	 -0.399735
H	 0.853533	 1.043532	 0.342250
H	 0.871597	 -0.279636	 1.474438
C	 2.400488	 -2.001165	 0.249220
H	 2.630640	 -0.037808	 -0.603327
H	 1.405097	 -1.008251	 -1.367696
C	 3.185826	 -1.751198	 1.538082
H	 3.056038	 -2.487858	 -0.468885
H	 1.594364	 -2.704563	 0.448213
H	 3.991672	 -1.041099	 1.372221
H	 3.628728	 -2.672325	 1.904417
H	 2.555347	 -1.357473	 2.328425

	symmetry c1
}
set optking {
	frozen_dihedral = ("
		20 16 13 17,
		13 10 7 11,
		11 7 4 3,
		1 2 3 5,
		7 4 3 2
	")
}

ee = energy('scf')
oeprop('DIPOLE', 'QUADRUPOLE', 'MULLIKEN_CHARGES')
f=open( 'psi4out.xyz', 'w' )
f.write( "24  " )
f.write( str(ee) + "\n" )
f.write( MOL.save_string_xyz() )
f.close()
--------------------------------------------------------------------------

    Molecular point group: c1

    Geometry (in Angstrom), charge = 0, multiplicity = 1:

       Center              X                  Y                   Z               Mass
    ------------   -----------------  -----------------  -----------------  -----------------
           H         -3.249376933508     1.768897430326    -1.282137629760     1.007825032070
           O         -3.280720933508     0.825374430326    -1.203438629760    15.994914619560
           C         -3.009798933508     0.461600430326     0.126257370240    12.000000000000
           C         -1.594637933508     0.818599430326     0.567274370240    12.000000000000
           H         -3.156504933508    -0.610490569674     0.173041370240     1.007825032070
           H         -3.734411933508     0.917221430326     0.799036370240     1.007825032070
           C         -0.506307933508     0.124214430326    -0.252411629760    12.000000000000
           H         -1.466479933508     1.899764430326     0.507107370240     1.007825032070
           H         -1.488301933508     0.559196430326     1.619236370240     1.007825032070
           C          0.909621066492     0.506686430326     0.183523370240    12.000000000000
           H         -0.643690933508     0.363303430326    -1.302493629760     1.007825032070
           H         -0.631443933508    -0.953883569674    -0.166159629760     1.007825032070
           C          1.993551066492    -0.196835569674    -0.637596629760    12.000000000000
           H          1.024819066492     1.585058430326     0.104388370240     1.007825032070
           H          1.042883066492     0.261890430326     1.236576370240     1.007825032070
           C          2.571774066492    -1.459638569674     0.011358370240    12.000000000000
           H          2.801926066492     0.503718430326    -0.841188629760     1.007825032070
           H          1.576383066492    -0.466724569674    -1.605557629760     1.007825032070
           C          3.357112066492    -1.209671569674     1.300220370240    12.000000000000
           H          3.227324066492    -1.946331569674    -0.706746629760     1.007825032070
           H          1.765650066492    -2.163036569674     0.210351370240     1.007825032070
           H          4.162958066492    -0.499572569674     1.134359370240     1.007825032070
           H          3.800014066492    -2.130798569674     1.666555370240     1.007825032070
           H          2.726633066492    -0.815946569674     2.090563370240     1.007825032070

  Charge       = 0
  Multiplicity = 1
  Basis Set: 6-31G*
  Basis Set:

    Orbital Energies (a.u.)
    -----------------------

    Doubly Occupied:

       1A    -20.553521     2A    -11.267611     3A    -11.217083
       4A    -11.214158     5A    -11.211352     6A    -11.210835
       7A    -11.210309     8A    -11.207490     9A     -1.360111
      10A     -1.089220    11A     -1.047392    12A     -0.985050
      13A     -0.914763    14A     -0.852064    15A     -0.805602
      16A     -0.769584    17A     -0.679998    18A     -0.651580
      19A     -0.626206    20A     -0.617137    21A     -0.604679
      22A     -0.578952    23A     -0.556126    24A     -0.544983
      25A     -0.519032    26A     -0.507577    27A     -0.495494
      28A     -0.477284    29A     -0.467657    30A     -0.459630
      31A     -0.451376    32A     -0.446986    33A     -0.419102

  @DF-RHF Final Energy:  -349.24314817147314

   => Energetics <=

    Nuclear Repulsion Energy =            387.5312843621391607
    One-Electron Energy =               -1241.5089376340788476
    Two-Electron Energy =                 504.7345051004677998
    DFT Exchange-Correlation Energy =       0.0000000000000000
    Empirical Dispersion Energy =           0.0000000000000000
    PCM Polarization Energy =               0.0000000000000000
    EFP Energy =                            0.0000000000000000
    Total Energy =                       -349.2431481714719439

  Mulliken Charges: (a.u.)
   Center  Symbol    Alpha    Beta     Spin     Total
       1     H     0.28337  0.28337  0.00000  0.43325
       2     O     4.36832  4.36832  0.00000 -0.73664
       3     C     2.99610  2.99610  0.00000  0.00780
       4     C     3.16912  3.16912  0.00000 -0.33824
       5     H     0.41646  0.41646  0.00000  0.16708
       6     H     0.42828  0.42828  0.00000  0.14344
       7     C     3.15368  3.15368  0.00000 -0.30737
       8     H     0.42826  0.42826  0.00000  0.14347
       9     H     0.42250  0.42250  0.00000  0.15499
      10     C     3.15549  3.15549  0.00000 -0.31097
      11     H     0.41171  0.41171  0.00000  0.17658
      12     H     0.42336  0.42336  0.00000  0.15327
      13     C     3.15615  3.15615  0.00000 -0.31230
      14     H     0.42226  0.42226  0.00000  0.15547
      15     H     0.42243  0.42243  0.00000  0.15515
      16     C     3.15371  3.15371  0.00000 -0.30743
      17     H     0.42240  0.42240  0.00000  0.15521
      18     H     0.41933  0.41933  0.00000  0.16134
      19     C     3.24050  3.24050  0.00000 -0.48099
      20     H     0.42091  0.42091  0.00000  0.15817
      21     H     0.42335  0.42335  0.00000  0.15330
      22     H     0.42215  0.42215  0.00000  0.15569
      23     H     0.41928  0.41928  0.00000  0.16144
      24     H     0.42087  0.42087  0.00000  0.15826

   Total alpha = 33.00000, Total beta = 33.00000, Total charge = -0.00000
