                              Psi4 1.0.54 Driver

  ==> Input File <==

--------------------------------------------------------------------------
set {
	reference rhf
	basis cc-pvtz
}

set_num_threads( 4 )
memory 2 gb

molecule MOL {
0 1

H	 -1.310972	 3.848300	 0.775212
O	 -1.232919	 2.912377	 0.771961
C	 -0.067888	 2.526923	 0.089212
C	 0.027642	 1.012027	 0.090274
H	 0.811129	 2.938083	 0.579155
H	 -0.080622	 2.908676	 -0.927923
C	 -1.138737	 0.285728	 -0.581921
H	 0.101109	 0.681911	 1.121357
H	 0.960388	 0.735912	 -0.395484
C	 -1.933983	 -0.631436	 0.343653
H	 -0.763151	 -0.285569	 -1.422081
H	 -1.808359	 1.035291	 -0.992333
H	 -2.789188	 -1.049673	 -0.174718
H	 -1.335629	 -1.461368	 0.700418
H	 -2.305435	 -0.092167	 1.209725

	symmetry c1
}
set optking {
	frozen_dihedral = ("
		8 4 7 11
	")
}

ee,wfn = optimize('scf', return_wfn=True)
oeprop( wfn, 'DIPOLE', 'QUADRUPOLE', 'MULLIKEN_CHARGES')
f=open( 'psi4out.xyz', 'w' )
f.write( "15  " )
f.write( str(ee) + "\n" )
f.write( MOL.save_string_xyz() )
f.close()
--------------------------------------------------------------------------

    Molecular point group: c1
  Charge       = 0
  Multiplicity = 1
  Basis Set: CC-PVTZ
  Basis Set:
  @DF-RHF Final Energy:  -232.23355434488678
    Total Energy =                       -232.2335543448868975
    Molecular point group: c1
  Basis Set: CC-PVTZ
  Basis Set:
  Basis Set: CC-PVTZ
  Basis Set:
  @DF-RHF Final Energy:  -232.23405242794246
    Total Energy =                       -232.2340524279426290
  Basis Set: CC-PVTZ
  Basis Set:
  Basis Set: CC-PVTZ
  Basis Set:
  @DF-RHF Final Energy:  -232.23413948439349
    Total Energy =                       -232.2341394843936087
  Basis Set: CC-PVTZ
  Basis Set:
  Basis Set: CC-PVTZ
  Basis Set:
  @DF-RHF Final Energy:  -232.23414136510527
    Total Energy =                       -232.2341413651054154
  Basis Set: CC-PVTZ
  Basis Set:
  Basis Set: CC-PVTZ
  Basis Set:
  @DF-RHF Final Energy:  -232.23414298149913
    Total Energy =                       -232.2341429814990192
  Basis Set: CC-PVTZ
  Basis Set:
  Charge       = 0
  Multiplicity = 1
  Basis Set: CC-PVTZ
  Basis Set:

    Orbital Energies (a.u.)
    -----------------------

    Doubly Occupied:

       1A    -20.547070     2A    -11.266337     3A    -11.210315
       4A    -11.207768     5A    -11.199064     6A     -1.364916
       7A     -1.062647     8A     -0.973831     9A     -0.856521
      10A     -0.786610    11A     -0.708815    12A     -0.640274
      13A     -0.604491    14A     -0.595171    15A     -0.547500
      16A     -0.532977    17A     -0.509382    18A     -0.475007
      19A     -0.463072    20A     -0.454896    21A     -0.433694

  @DF-RHF Final Energy:  -232.23414303404834

   => Energetics <=

    Nuclear Repulsion Energy =            190.7505123577543316
    One-Electron Energy =                -693.0885904451895385
    Two-Electron Energy =                 270.1039350533866354
    DFT Exchange-Correlation Energy =       0.0000000000000000
    Empirical Dispersion Energy =           0.0000000000000000
    PCM Polarization Energy =               0.0000000000000000
    EFP Energy =                            0.0000000000000000
    Total Energy =                       -232.2341430340485431
    Molecular point group: c1
  Basis Set: CC-PVTZ
  Basis Set:

  -Total Gradient:
     Atom            X                  Y                   Z
    ------   -----------------  -----------------  -----------------
       1       -0.000000170631     0.000000755873     0.000004024200
       2        0.000000055876     0.000006614640    -0.000006627570
       3        0.000003788250     0.000000463333     0.000003153926
       4        0.000063398001    -0.000054529337    -0.000011000816
       5       -0.000001740549     0.000002170451    -0.000004103859
       6       -0.000005732803     0.000000913135     0.000001599606
       7       -0.000007688952    -0.000064139764     0.000036114650
       8       -0.000045959450     0.000053889902     0.000017917274
       9       -0.000003114037    -0.000003126937    -0.000004201845
      10       -0.000005350412    -0.000004494447     0.000005411446
      11       -0.000007145305     0.000058365979    -0.000042317811
      12        0.000003898492    -0.000006083189     0.000002961286
      13        0.000002169449     0.000004503675    -0.000000013636
      14        0.000003983016    -0.000001097092    -0.000007290217
      15       -0.000000390947     0.000005793781     0.000004373368

  **** Optimization is complete! (in 6 steps) ****
    Final optimized geometry and variables:
    Molecular point group: c1

    Geometry (in Angstrom), charge = 0, multiplicity = 1:

    H           -0.439318484439     2.558489174744     0.605847060024
    O           -0.324029194362     1.627377238347     0.646714123456
    C            0.815529116860     1.246618210779    -0.080163090978
    C            0.916346359679    -0.265953421273    -0.071161340416
    H            1.709224424095     1.676762212665     0.365033855936
    H            0.750274264766     1.607725893727    -1.104661713262
    C           -0.265423213121    -0.973039927798    -0.765633700559
    H            0.989253451819    -0.589023196427     0.961789080023
    H            1.853044964503    -0.538307064741    -0.546461615040
    C           -1.055897018384    -1.888739261471     0.163838049823
    H            0.100230157791    -1.551270993339    -1.607620846456
    H           -0.938838790587    -0.229539784376    -1.175628463188
    H           -1.877190861249    -2.364835839669    -0.360335008135
    H           -0.424973774230    -2.672342518017     0.571091638750
    H           -1.467537863573    -1.327208723275     0.994395359407

  Mulliken Charges: (a.u.)
   Center  Symbol    Alpha    Beta     Spin     Total
       1     H     0.39569  0.39569  0.00000  0.20862
       2     O     4.19979  4.19979  0.00000 -0.39959
       3     C     2.97454  2.97454  0.00000  0.05093
       4     C     3.09451  3.09451  0.00000 -0.18903
       5     H     0.46461  0.46461  0.00000  0.07078
       6     H     0.47289  0.47289  0.00000  0.05423
       7     C     3.08307  3.08307  0.00000 -0.16614
       8     H     0.45285  0.45285  0.00000  0.09430
       9     H     0.44911  0.44911  0.00000  0.10178
      10     C     3.14798  3.14798  0.00000 -0.29596
      11     H     0.45230  0.45230  0.00000  0.09541
      12     H     0.45394  0.45394  0.00000  0.09212
      13     H     0.45229  0.45229  0.00000  0.09542
      14     H     0.45742  0.45742  0.00000  0.08516
      15     H     0.44901  0.44901  0.00000  0.10199

   Total alpha = 21.00000, Total beta = 21.00000, Total charge = -0.00000

*** Psi4 exiting successfully. Buy a developer a beer!
