  ==> Input File <==

--------------------------------------------------------------------------
set {
	reference rhf
	basis cc-pvtz
}

set_num_threads( 4 )
memory 2 gb

molecule MOL {
0 1

H	 2.423000	 -2.239000	 0.000000
O	 2.742000	 -1.347000	 0.000000
C	 1.723000	 -0.464000	 -0.000000
C	 2.050000	 0.888000	 -0.000000
C	 0.399000	 -0.857000	 0.000000
H	 3.087000	 1.168000	 -0.000000
C	 1.052000	 1.840000	 0.000000
H	 0.119000	 -1.892000	 0.000000
C	 -0.578000	 0.125000	 -0.000000
H	 1.313000	 2.882000	 -0.000000
C	 -0.287000	 1.471000	 0.000000
N	 -1.977000	 -0.295000	 -0.000000
H	 -1.072000	 2.198000	 0.000000
O	 -2.204000	 -1.468000	 -0.000000
O	 -2.812000	 0.556000	 0.000000

	symmetry c1
}
ee = optimize('scf')
oeprop('DIPOLE', 'QUADRUPOLE', 'MULLIKEN_CHARGES')
f=open( 'psi4out.xyz', 'w' )
f.write( "15  " )
f.write( str(ee) + "\n" )
f.write( MOL.save_string_xyz() )
f.close()
--------------------------------------------------------------------------

    Molecular point group: c1
  Charge       = 0
  Multiplicity = 1
  Basis Set: CC-PVTZ
  Basis Set:
  @DF-RHF Final Energy:  -509.21871189032015
    Total Energy =                       -509.2187118903199234
    Molecular point group: c1
  Basis Set: CC-PVTZ
  Basis Set:
  Basis Set: CC-PVTZ
  Basis Set:
  @DF-RHF Final Energy:  -509.21909330030797
    Total Energy =                       -509.2190933003080318
  Basis Set: CC-PVTZ
  Basis Set:
  Basis Set: CC-PVTZ
  Basis Set:
  @DF-RHF Final Energy:  -509.21910984710149
    Total Energy =                       -509.2191098471014357
  Basis Set: CC-PVTZ
  Basis Set:
  Basis Set: CC-PVTZ
  Basis Set:
  @DF-RHF Final Energy:  -509.21911111821407
    Total Energy =                       -509.2191111182144141
  Basis Set: CC-PVTZ
  Basis Set:
  Charge       = 0
  Multiplicity = 1
  Basis Set: CC-PVTZ
  Basis Set:

    Orbital Energies (a.u.)
    -----------------------

    Doubly Occupied:

       1A    -20.608400     2A    -20.595046     3A    -20.594510
       4A    -15.850632     5A    -11.327660     6A    -11.308970
       7A    -11.263138     8A    -11.262751     9A    -11.258494
      10A    -11.256576    11A     -1.644320    12A     -1.441017
      13A     -1.426729    14A     -1.202480    15A     -1.095485
      16A     -1.047893    17A     -0.966847    18A     -0.881346
      19A     -0.831990    20A     -0.795484    21A     -0.756017
      22A     -0.743618    23A     -0.729550    24A     -0.709382
      25A     -0.677185    26A     -0.636042    27A     -0.621634
      28A     -0.598519    29A     -0.560536    30A     -0.546592
      31A     -0.520071    32A     -0.494933    33A     -0.493644
      34A     -0.460322    35A     -0.380214    36A     -0.346123

  @DF-RHF Final Energy:  -509.21911150351599

   => Energetics <=

    Nuclear Repulsion Energy =            504.7360515574544593
    One-Electron Energy =               -1696.0420238776184760
    Two-Electron Energy =                 682.0868608166483682
    DFT Exchange-Correlation Energy =       0.0000000000000000
    Empirical Dispersion Energy =           0.0000000000000000
    PCM Polarization Energy =               0.0000000000000000
    EFP Energy =                            0.0000000000000000
    Total Energy =                       -509.2191115035157054
    Molecular point group: c1
  Basis Set: CC-PVTZ
  Basis Set:

  -Total Gradient:
     Atom            X                  Y                   Z
    ------   -----------------  -----------------  -----------------
       1       -0.000021798059    -0.000019383762     0.000000000151
       2        0.000017045845     0.000044485417     0.000000000366
       3       -0.000041164145    -0.000048585110     0.000000003009
       4        0.000002539030     0.000021924387    -0.000000000530
       5        0.000047018983     0.000007823027    -0.000000007285
       6        0.000007229499     0.000000205743     0.000000000047
       7        0.000018259301    -0.000005233270     0.000000003499
       8       -0.000001893082    -0.000015519624    -0.000000000511
       9       -0.000017020072     0.000027511837    -0.000000079800
      10       -0.000004970493     0.000003360944     0.000000000497
      11        0.000001591725    -0.000031128856    -0.000000007015
      12       -0.000022074707     0.000004682307     0.000000320141
      13       -0.000006629754     0.000014073744    -0.000000000747
      14        0.000009591816     0.000009288286    -0.000000115773
      15        0.000012274114    -0.000013505073    -0.000000116049

  **** Optimization is complete! (in 5 steps) ****
    Final optimized geometry and variables:
    Molecular point group: c1

    Geometry (in Angstrom), charge = 0, multiplicity = 1:

    H            2.462485471289    -2.216992657461     0.000000019120
    O            2.777472013990    -1.330706013632    -0.000000039329
    C            1.763287825680    -0.447522586458     0.000000029248
    C            2.088957871801     0.901201803356    -0.000000044711
    C            0.441187412776    -0.837917148426     0.000000167834
    H            3.123261191683     1.182934712959    -0.000000152331
    C            1.092917025772     1.850546376126     0.000000020020
    H            0.161352656032    -1.870868458615     0.000000228014
    C           -0.532033479213     0.141679812546     0.000000231551
    H            1.354056416749     2.890523812767    -0.000000038064
    C           -0.242340767573     1.483081699161     0.000000159024
    N           -1.937040710885    -0.281113716872     0.000000383437
    H           -1.026035597029     2.208716244795     0.000000211094
    O           -2.159542215224    -1.446261343244    -0.000000365130
    O           -2.764977483082     0.565772838809    -0.000000370463

  Mulliken Charges: (a.u.)
   Center  Symbol    Alpha    Beta     Spin     Total
       1     H     0.38406  0.38406  0.00000  0.23187
       2     O     4.16874  4.16874  0.00000 -0.33747
       3     C     2.84351  2.84351  0.00000  0.31298
       4     C     3.09741  3.09741  0.00000 -0.19482
       5     C     3.13348  3.13348  0.00000 -0.26695
       6     H     0.41314  0.41314  0.00000  0.17373
       7     C     3.05668  3.05668  0.00000 -0.11337
       8     H     0.40728  0.40728  0.00000  0.18544
       9     C     2.98297  2.98297  0.00000  0.03406
      10     H     0.41597  0.41597  0.00000  0.16807
      11     C     3.09525  3.09525  0.00000 -0.19051
      12     N     3.24898  3.24898  0.00000  0.50205
      13     H     0.39950  0.39950  0.00000  0.20100
      14     O     4.17845  4.17845  0.00000 -0.35690
      15     O     4.17459  4.17459  0.00000 -0.34917

   Total alpha = 36.00000, Total beta = 36.00000, Total charge =  0.00000
