  ==> Input File <==

--------------------------------------------------------------------------
set {
	reference rhf
	basis 6-31G*
}

set_num_threads( 4 )
memory 2 gb

molecule MOL {
0 1

O	 3.225979	 0.970355	 -0.599647
C	 2.701189	 0.057885	 -0.047330
C	 1.245376	 -0.013843	 0.345420
O	 3.347903	 -1.046386	 0.304773
C	 0.664603	 1.340628	 0.745700
H	 0.711645	 -0.454427	 -0.490170
H	 1.165307	 -0.729791	 1.159487
C	 -0.781706	 1.268113	 1.247124
H	 0.727726	 2.021346	 -0.097958
H	 1.288864	 1.768455	 1.522671
C	 -1.810958	 0.855263	 0.191044
H	 -1.053870	 2.247752	 1.633077
H	 -0.838309	 0.584608	 2.093071
C	 -3.249166	 0.904393	 0.710797
H	 -1.718667	 1.510585	 -0.673741
H	 -1.600281	 -0.150895	 -0.164250
C	 -4.285924	 0.488793	 -0.334449
H	 -3.472587	 1.912329	 1.056314
H	 -3.339477	 0.257548	 1.582081
C	 -5.719840	 0.544276	 0.191392
H	 -4.196392	 1.133519	 -1.206203
H	 -4.066829	 -0.520095	 -0.677847
H	 -6.431082	 0.244299	 -0.571993
H	 -5.981677	 1.549103	 0.510704
H	 -5.850845	 -0.116809	 1.043495
C	 4.728119	 -1.109107	 -0.004993
H	 4.882018	 -1.033965	 -1.071845
H	 5.068212	 -2.067527	 0.355250
H	 5.265056	 -0.311663	 0.488280

	symmetry c1
}
set optking {
	frozen_dihedral = ("
		6 3 2 1
	")
}

ee = optimize('scf')
oeprop('DIPOLE', 'QUADRUPOLE', 'MULLIKEN_CHARGES')
f=open( 'psi4out.xyz', 'w' )
f.write( "29  " )
f.write( str(ee) + "\n" )
f.write( MOL.save_string_xyz() )
f.close()
--------------------------------------------------------------------------

    Molecular point group: c1
  Charge       = 0
  Multiplicity = 1
  Basis Set: 6-31G*
  Basis Set:
  @DF-RHF Final Energy:  -501.04303462130974
    Total Energy =                       -501.0430346213092889
    Molecular point group: c1
  Basis Set: 6-31G*
  Basis Set:
  Basis Set: 6-31G*
  Basis Set:
  @DF-RHF Final Energy:  -501.04247144286558
    Total Energy =                       -501.0424714428656898
  Basis Set: 6-31G*
  Basis Set:
  Basis Set: 6-31G*
  Basis Set:
  @DF-RHF Final Energy:  -501.04315978956322
    Total Energy =                       -501.0431597895642426
  Basis Set: 6-31G*
  Basis Set:
  Basis Set: 6-31G*
  Basis Set:
  @DF-RHF Final Energy:  -501.04342758123244
    Total Energy =                       -501.0434275812331180
  Basis Set: 6-31G*
  Basis Set:
  Basis Set: 6-31G*
  Basis Set:
  @DF-RHF Final Energy:  -501.04341615469116
    Total Energy =                       -501.0434161546908172
  Basis Set: 6-31G*
  Basis Set:
  Basis Set: 6-31G*
  Basis Set:
  @DF-RHF Final Energy:  -501.04342893647993
    Total Energy =                       -501.0434289364794722
  Basis Set: 6-31G*
  Basis Set:
  Charge       = 0
  Multiplicity = 1
  Basis Set: 6-31G*
  Basis Set:

    Orbital Energies (a.u.)
    -----------------------

    Doubly Occupied:

       1A    -20.604643     2A    -20.543471     3A    -11.371744
       4A    -11.280635     5A    -11.234140     6A    -11.221097
       7A    -11.218274     8A    -11.216114     9A    -11.215801
      10A    -11.214543    11A    -11.209005    12A     -1.469294
      13A     -1.361794    14A     -1.098328    15A     -1.066747
      16A     -1.019216    17A     -0.977213    18A     -0.929058
      19A     -0.861942    20A     -0.799143    21A     -0.790578
      22A     -0.765295    23A     -0.700131    24A     -0.681647
      25A     -0.671945    26A     -0.651141    27A     -0.628947
      28A     -0.604165    29A     -0.594311    30A     -0.580007
      31A     -0.570581    32A     -0.544674    33A     -0.537095
      34A     -0.530369    35A     -0.517034    36A     -0.510358
      37A     -0.496549    38A     -0.477692    39A     -0.470009
      40A     -0.462253    41A     -0.459285    42A     -0.455363
      43A     -0.443938    44A     -0.431828

  @DF-RHF Final Energy:  -501.04342924930995

   => Energetics <=

    Nuclear Repulsion Energy =            610.1691204798634089
    One-Electron Energy =               -1891.4503032369530047
    Two-Electron Energy =                 780.2377535077790753
    DFT Exchange-Correlation Energy =       0.0000000000000000
    Empirical Dispersion Energy =           0.0000000000000000
    PCM Polarization Energy =               0.0000000000000000
    EFP Energy =                            0.0000000000000000
    Total Energy =                       -501.0434292493104067
    Molecular point group: c1
  Basis Set: 6-31G*
  Basis Set:

  -Total Gradient:
     Atom            X                  Y                   Z
    ------   -----------------  -----------------  -----------------
       1       -0.000263661933    -0.000461005981    -0.000885481450
       2        0.000314487854     0.000839032650     0.001211081262
       3        0.000097826662    -0.001269936173     0.000056233878
       4       -0.000010916261     0.000001214146    -0.000001137066
       5        0.000012405102     0.000012289832     0.000001628975
       6       -0.000163860106     0.000882220420    -0.000380506507
       7        0.000009063790    -0.000001590902     0.000001076830
       8       -0.000007653445     0.000010976731    -0.000015288685
       9       -0.000001239422     0.000007437218     0.000003682333
      10        0.000000560857    -0.000009444419    -0.000004556943
      11        0.000005284242    -0.000015484269     0.000006815097
      12       -0.000008747712     0.000000160144    -0.000000496965
      13        0.000009850251    -0.000000597311    -0.000004580587
      14       -0.000000421533     0.000008936340     0.000001584161
      15        0.000006654966    -0.000004298371     0.000006524352
      16        0.000006044115    -0.000006489003    -0.000003233070
      17        0.000000657406     0.000003212324    -0.000001649640
      18       -0.000002020777     0.000002579322     0.000002722248
      19       -0.000000447647     0.000000211508    -0.000002392764
      20        0.000000419535    -0.000001275092     0.000000816695
      21       -0.000001162572     0.000000318272     0.000000051926
      22        0.000000917461     0.000000375022    -0.000000654255
      23        0.000000169183    -0.000000615801     0.000000095686
      24        0.000000427747    -0.000000249964    -0.000000374596
      25       -0.000000389494     0.000000068696     0.000000467084
      26       -0.000017195988     0.000002010700     0.000011251345
      27        0.000001438632     0.000000468276    -0.000001379217
      28        0.000006790944    -0.000001044843    -0.000002175906
      29        0.000004718140     0.000000520529    -0.000000124221

  **** Optimization is complete! (in 7 steps) ****
    Final optimized geometry and variables:
    Molecular point group: c1

    Geometry (in Angstrom), charge = 0, multiplicity = 1:

    O            3.137583447609     0.608855110226    -0.805488962743
    C            2.649769188950    -0.314492805685    -0.236206110742
    C            1.206431388889    -0.398479289452     0.198757054344
    O            3.318900365469    -1.421642960837     0.055161548212
    C            0.617302892946     0.971323010974     0.542632699672
    H            0.668891249551    -0.847834952517    -0.631985829300
    H            1.129272519678    -1.086137898572     1.032689668339
    C           -0.837983375514     0.916036693879     1.019476413591
    H            0.701041457223     1.620530628975    -0.321896125604
    H            1.223601618782     1.424476285258     1.322070907499
    C           -1.847416028083     0.471860766699    -0.042973715595
    H           -1.115167750253     1.908081439917     1.368491544480
    H           -0.912235450597     0.260016692884     1.885396037565
    C           -3.295490309742     0.545214135589     0.445802258864
    H           -1.734073757890     1.096536678365    -0.927520544128
    H           -1.635221465486    -0.546979585860    -0.358983333584
    C           -4.313034087748     0.097405043846    -0.604999122771
    H           -3.520913833178     1.565611864584     0.751078282524
    H           -3.406369729537    -0.070201463254     1.337244747680
    C           -5.756877866369     0.176819738960    -0.110313366591
    H           -4.203104906183     0.710887272730    -1.496696537330
    H           -4.091774080578    -0.923719468136    -0.908507447430
    H           -6.454065471044    -0.147093298403    -0.876867710870
    H           -6.020491644114     1.193250785126     0.168195785058
    H           -5.907866645649    -0.453390027020     0.761653397772
    C            4.672177907615    -1.481190892814    -0.358119574801
    H            4.745788103512    -1.390762336409    -1.432329006165
    H            5.036273353824    -2.444915033658    -0.037782508014
    H            5.245417285597    -0.691054567478     0.104884379302

  Mulliken Charges: (a.u.)
   Center  Symbol    Alpha    Beta     Spin     Total
       1     O     4.28681  4.28681  0.00000 -0.57362
       2     C     2.60393  2.60393  0.00000  0.79213
       3     C     3.20978  3.20978  0.00000 -0.41956
       4     O     4.30652  4.30652  0.00000 -0.61303
       5     C     3.15748  3.15748  0.00000 -0.31496
       6     H     0.39850  0.39850  0.00000  0.20299
       7     H     0.40127  0.40127  0.00000  0.19746
       8     C     3.15571  3.15571  0.00000 -0.31142
       9     H     0.40587  0.40587  0.00000  0.18825
      10     H     0.41519  0.41519  0.00000  0.16962
      11     C     3.15532  3.15532  0.00000 -0.31064
      12     H     0.41829  0.41829  0.00000  0.16341
      13     H     0.42355  0.42355  0.00000  0.15290
      14     C     3.15036  3.15036  0.00000 -0.30072
      15     H     0.42161  0.42161  0.00000  0.15679
      16     H     0.42379  0.42379  0.00000  0.15241
      17     C     3.15151  3.15151  0.00000 -0.30302
      18     H     0.42332  0.42332  0.00000  0.15335
      19     H     0.42400  0.42400  0.00000  0.15199
      20     C     3.23937  3.23937  0.00000 -0.47874
      21     H     0.42255  0.42255  0.00000  0.15491
      22     H     0.42343  0.42343  0.00000  0.15313
      23     H     0.41917  0.41917  0.00000  0.16166
      24     H     0.42155  0.42155  0.00000  0.15690
      25     H     0.42188  0.42188  0.00000  0.15624
      26     C     3.09313  3.09313  0.00000 -0.18626
      27     H     0.40910  0.40910  0.00000  0.18180
      28     H     0.40846  0.40846  0.00000  0.18308
      29     H     0.40853  0.40853  0.00000  0.18294

   Total alpha = 44.00000, Total beta = 44.00000, Total charge = -0.00000
