  ==> Input File <==

--------------------------------------------------------------------------
set {
	reference rhf
	basis cc-pvtz
}

set_num_threads( 4 )
memory 2 gb

molecule MOL {
0 1

H	 -0.000105	 1.988529	 0.748933
O	 -0.000098	 1.879786	 -0.188206
C	 -0.000014	 0.545691	 -0.532416
C	 -1.286000	 -0.125171	 -0.046657
C	 1.286016	 -0.125031	 -0.046584
H	 0.000021	 0.481103	 -1.610604
F	 -2.148970	 -0.171695	 -1.031532
F	 -1.082448	 -1.350183	 0.367618
F	 -1.838238	 0.553444	 0.936139
F	 2.317750	 0.468717	 -0.594166
F	 1.336617	 -1.393765	 -0.365123
F	 1.414467	 -0.024806	 1.259108

	symmetry c1
}
set optking {
	frozen_dihedral = ("
		7 4 3 6
	")
}

ee = optimize('scf')
oeprop('DIPOLE', 'QUADRUPOLE', 'MULLIKEN_CHARGES')
f=open( 'psi4out.xyz', 'w' )
f.write( "12  " )
f.write( str(ee) + "\n" )
f.write( MOL.save_string_xyz() )
f.close()
--------------------------------------------------------------------------

    Molecular point group: c1
  Charge       = 0
  Multiplicity = 1
  Basis Set: CC-PVTZ
  Basis Set:
  @DF-RHF Final Energy:  -786.58435889730754
    Total Energy =                       -786.5843588973081069
    Molecular point group: c1
  Basis Set: CC-PVTZ
  Basis Set:
  Basis Set: CC-PVTZ
  Basis Set:
  @DF-RHF Final Energy:  -786.58513481590512
    Total Energy =                       -786.5851348159046665
  Basis Set: CC-PVTZ
  Basis Set:
  Basis Set: CC-PVTZ
  Basis Set:
  @DF-RHF Final Energy:  -786.58550966094492
    Total Energy =                       -786.5855096609451493
  Basis Set: CC-PVTZ
  Basis Set:
  Basis Set: CC-PVTZ
  Basis Set:
  @DF-RHF Final Energy:  -786.58555651592042
    Total Energy =                       -786.5855565159206435
  Basis Set: CC-PVTZ
  Basis Set:
  Basis Set: CC-PVTZ
  Basis Set:
  @DF-RHF Final Energy:  -786.58557347453780
    Total Energy =                       -786.5855734745376822
  Basis Set: CC-PVTZ
  Basis Set:
  Basis Set: CC-PVTZ
  Basis Set:
  @DF-RHF Final Energy:  -786.58557638425293
    Total Energy =                       -786.5855763842525903
  Basis Set: CC-PVTZ
  Basis Set:
  Charge       = 0
  Multiplicity = 1
  Basis Set: CC-PVTZ
  Basis Set:

    Orbital Energies (a.u.)
    -----------------------

    Doubly Occupied:

       1A    -26.361706     2A    -26.357266     3A    -26.356176
       4A    -26.356104     5A    -26.355240     6A    -26.352251
       7A    -20.607951     8A    -11.522827     9A    -11.517733
      10A    -11.351579    11A     -1.772791    12A     -1.765870
      13A     -1.667968    14A     -1.664245    15A     -1.663457
      16A     -1.659324    17A     -1.437820    18A     -1.100674
      19A     -1.001631    20A     -0.944312    21A     -0.872746
      22A     -0.867043    23A     -0.858647    24A     -0.853746
      25A     -0.841399    26A     -0.821728    27A     -0.742599
      28A     -0.737528    29A     -0.732736    30A     -0.729970
      31A     -0.695237    32A     -0.692205    33A     -0.687917
      34A     -0.683748    35A     -0.675973    36A     -0.668092
      37A     -0.663942    38A     -0.654011    39A     -0.624011
      40A     -0.553581    41A     -0.509078

  @DF-RHF Final Energy:  -786.58557683429490

   => Energetics <=

    Nuclear Repulsion Energy =            670.1698137627399774
    One-Electron Energy =               -2427.5450585163443975
    Two-Electron Energy =                 970.7896679193097498
    DFT Exchange-Correlation Energy =       0.0000000000000000
    Empirical Dispersion Energy =           0.0000000000000000
    PCM Polarization Energy =               0.0000000000000000
    EFP Energy =                            0.0000000000000000
    Total Energy =                       -786.5855768342946703
    Molecular point group: c1
  Basis Set: CC-PVTZ
  Basis Set:

  -Total Gradient:
     Atom            X                  Y                   Z
    ------   -----------------  -----------------  -----------------
       1       -0.000000550938     0.000008538533     0.000006224002
       2        0.000017366638    -0.000006740282     0.000006748295
       3        0.003072664597    -0.006130845646    -0.000021737560
       4       -0.002224999360     0.005548417389     0.001402993520
       5       -0.000013276768    -0.000004599698    -0.000087610691
       6       -0.002229997409     0.004211476406    -0.000247343635
       7        0.001357947456    -0.003595609301    -0.001091831568
       8        0.000017051734    -0.000042314326    -0.000014816974
       9       -0.000001264208     0.000002929628    -0.000038859938
      10       -0.000014349915    -0.000001561787     0.000018141161
      11        0.000004823029     0.000021773811     0.000029735871
      12        0.000014585158    -0.000011464731     0.000038357513

  **** Optimization is complete! (in 7 steps) ****
    Final optimized geometry and variables:
    Molecular point group: c1

    Geometry (in Angstrom), charge = 0, multiplicity = 1:

    H           -0.065018796893     2.044211568952     0.667967983778
    O            0.030434254590     1.890450783599    -0.257121291712
    C            0.010034939880     0.543077089846    -0.549055963803
    C           -1.289427150050    -0.114177159859    -0.029595397461
    C            1.287236339973    -0.130801755770    -0.051423539539
    H           -0.007793932897     0.472294449398    -1.625318294637
    F           -2.181747726409    -0.162920193564    -0.990246768785
    F           -1.104819925253    -1.343461766374     0.388819528817
    F           -1.798016541990     0.568892144968     0.968799654507
    F            2.331040148398     0.525078952824    -0.491974560213
    F            1.385062716319    -1.366420216093    -0.474322416013
    F            1.341766432763    -0.134538919060     1.264158022425

  Mulliken Charges: (a.u.)
   Center  Symbol    Alpha    Beta     Spin     Total
       1     H     0.38092  0.38092  0.00000  0.23817
       2     O     4.18744  4.18744  0.00000 -0.37488
       3     C     3.02017  3.02017  0.00000 -0.04035
       4     C     2.67442  2.67442  0.00000  0.65115
       5     C     2.67943  2.67943  0.00000  0.64113
       6     H     0.42626  0.42626  0.00000  0.14748
       7     F     4.60410  4.60410  0.00000 -0.20821
       8     F     4.60213  4.60213  0.00000 -0.20427
       9     F     4.60795  4.60795  0.00000 -0.21590
      10     F     4.60074  4.60074  0.00000 -0.20149
      11     F     4.60446  4.60446  0.00000 -0.20892
      12     F     4.61197  4.61197  0.00000 -0.22393

   Total alpha = 41.00000, Total beta = 41.00000, Total charge =  0.00000
