  ==> Input File <==

--------------------------------------------------------------------------
set {
	reference rhf
	basis 6-31G*
}

set_num_threads( 4 )
memory 2 gb

molecule MOL {
0 1

H	 -2.273092	 1.173159	 0.000295
O	 -1.438904	 1.618192	 0.000114
C	 -0.409536	 0.736003	 0.000030
C	 -0.695071	 -0.552521	 -0.423499
C	 0.876288	 1.090661	 0.402291
H	 -1.699880	 -0.783565	 -0.725106
C	 0.304239	 -1.506541	 -0.450602
C	 1.861352	 0.111257	 0.364790
C	 1.185767	 2.497029	 0.864198
H	 0.076197	 -2.504450	 -0.780252
C	 1.591332	 -1.178970	 -0.055553
H	 2.859913	 0.369317	 0.672403
H	 0.600867	 2.776042	 1.738262
H	 2.229470	 2.589221	 1.136524
H	 0.991495	 3.232656	 0.086310
H	 2.373504	 -1.915900	 -0.074056

	symmetry c1
}
set optking {
	frozen_dihedral = ("
		4 3 2 1
	")
}

ee = optimize('scf')
oeprop('DIPOLE', 'QUADRUPOLE', 'MULLIKEN_CHARGES')
f=open( 'psi4out.xyz', 'w' )
f.write( "16  " )
f.write( str(ee) + "\n" )
f.write( MOL.save_string_xyz() )
f.close()
--------------------------------------------------------------------------

    Molecular point group: c1
  Charge       = 0
  Multiplicity = 1
  Basis Set: 6-31G*
  Basis Set:
  @DF-RHF Final Energy:  -344.59186180906829
    Total Energy =                       -344.5918618090680638
    Molecular point group: c1
  Basis Set: 6-31G*
  Basis Set:
  Basis Set: 6-31G*
  Basis Set:
  @DF-RHF Final Energy:  -344.59427649143123
    Total Energy =                       -344.5942764914312875
  Basis Set: 6-31G*
  Basis Set:
  Basis Set: 6-31G*
  Basis Set:
  @DF-RHF Final Energy:  -344.59449644224605
    Total Energy =                       -344.5944964422459407
  Basis Set: 6-31G*
  Basis Set:
  Basis Set: 6-31G*
  Basis Set:
  @DF-RHF Final Energy:  -344.59451747156146
    Total Energy =                       -344.5945174715612893
  Basis Set: 6-31G*
  Basis Set:
  Basis Set: 6-31G*
  Basis Set:
  @DF-RHF Final Energy:  -344.59452183635381
    Total Energy =                       -344.5945218363538629
  Basis Set: 6-31G*
  Basis Set:
  Charge       = 0
  Multiplicity = 1
  Basis Set: 6-31G*
  Basis Set:

    Orbital Energies (a.u.)
    -----------------------

    Doubly Occupied:

       1A    -20.588086     2A    -11.291771     3A    -11.231320
       4A    -11.229979     5A    -11.227974     6A    -11.225978
       7A    -11.219835     8A    -11.212776     9A     -1.405614
      10A     -1.147987    11A     -1.043456    12A     -1.002615
      13A     -0.928631    14A     -0.843058    15A     -0.798884
      16A     -0.730323    17A     -0.670570    18A     -0.650023
      19A     -0.606846    20A     -0.595066    21A     -0.575356
      22A     -0.557556    23A     -0.544596    24A     -0.538433
      25A     -0.499350    26A     -0.480689    27A     -0.471691
      28A     -0.329216    29A     -0.304702

  @DF-RHF Final Energy:  -344.59452207061497

   => Energetics <=

    Nuclear Repulsion Energy =            350.1545595642464832
    One-Electron Energy =               -1161.5934020184736255
    Two-Electron Energy =                 466.8443203836124553
    DFT Exchange-Correlation Energy =       0.0000000000000000
    Empirical Dispersion Energy =           0.0000000000000000
    PCM Polarization Energy =               0.0000000000000000
    EFP Energy =                            0.0000000000000000
    Total Energy =                       -344.5945220706146870
    Molecular point group: c1
  Basis Set: 6-31G*
  Basis Set:

  -Total Gradient:
     Atom            X                  Y                   Z
    ------   -----------------  -----------------  -----------------
       1        0.000005190095    -0.000025988611     0.001808986251
       2        0.000103515755     0.000254964267    -0.002868688533
       3       -0.000445631705    -0.000529220185     0.002256117286
       4        0.000300778268     0.000345170693    -0.001268464031
       5        0.000025427735    -0.000022023788     0.000036104263
       6        0.000000495272    -0.000003083661     0.000002681510
       7        0.000001671072    -0.000033391956     0.000025367538
       8       -0.000021435040     0.000019445758     0.000051213433
       9        0.000003170255    -0.000007153922    -0.000015595279
      10        0.000006867281    -0.000001785294     0.000004622599
      11        0.000007468343     0.000013276506    -0.000030348540
      12        0.000005657905     0.000004406572    -0.000004359102
      13       -0.000000032391    -0.000009403863    -0.000000231531
      14        0.000009157967     0.000005039118     0.000005602509
      15       -0.000000837445    -0.000008944653    -0.000000535718
      16       -0.000001463365    -0.000001306983    -0.000002472654

  **** Optimization is complete! (in 6 steps) ****
    Final optimized geometry and variables:
    Molecular point group: c1

    Geometry (in Angstrom), charge = 0, multiplicity = 1:

    H           -2.597020748515     0.879852246040    -0.071106417481
    O           -1.731916193186     1.264489502105    -0.064839228428
    C           -0.779915397755     0.296092095364    -0.091140449540
    C           -1.058924057346    -0.987703021010    -0.523070655270
    C            0.508082547016     0.660713972567     0.302224568832
    H           -2.057957636130    -1.240398877593    -0.837098577657
    C           -0.053666256614    -1.943398877699    -0.552342973161
    C            1.494063733879    -0.310573817518     0.256135992280
    C            0.790364106646     2.071291283921     0.757239098939
    H           -0.279215184766    -2.940996916030    -0.884400572291
    C            1.227634562604    -1.607683340957    -0.163560225998
    H            2.493320530395    -0.048889358360     0.558070956619
    H            0.169402752089     2.340875670967     1.604852281297
    H            1.828955502022     2.179286258407     1.047434027886
    H            0.581564789362     2.787245140643    -0.030783704072
    H            2.014280889333    -2.339889066358    -0.185099007944

  Mulliken Charges: (a.u.)
   Center  Symbol    Alpha    Beta     Spin     Total
       1     H     0.27180  0.27180  0.00000  0.45640
       2     O     4.38114  4.38114  0.00000 -0.76228
       3     C     2.80889  2.80889  0.00000  0.38222
       4     C     3.13683  3.13683  0.00000 -0.27366
       5     C     3.00783  3.00783  0.00000 -0.01566
       6     H     0.40456  0.40456  0.00000  0.19087
       7     C     3.09611  3.09611  0.00000 -0.19221
       8     C     3.10781  3.10781  0.00000 -0.21563
       9     C     3.24162  3.24162  0.00000 -0.48324
      10     H     0.39932  0.39932  0.00000  0.20136
      11     C     3.10736  3.10736  0.00000 -0.21472
      12     H     0.40097  0.40097  0.00000  0.19806
      13     H     0.40899  0.40899  0.00000  0.18202
      14     H     0.41794  0.41794  0.00000  0.16412
      15     H     0.40771  0.40771  0.00000  0.18458
      16     H     0.40112  0.40112  0.00000  0.19777

   Total alpha = 29.00000, Total beta = 29.00000, Total charge =  0.00000
