  ==> Input File <==

--------------------------------------------------------------------------
set {
	reference rhf
	basis 6-31G*
}

set_num_threads( 4 )
memory 2 gb

molecule MOL {
0 1

H	 -2.499100	 -0.730091	 -0.745082
O	 -2.347518	 -0.290803	 0.079804
C	 -1.184022	 0.487508	 -0.006784
C	 0.062599	 -0.378592	 0.031606
H	 -1.176523	 1.099369	 -0.904519
H	 -1.187323	 1.153111	 0.844927
O	 1.171513	 0.459272	 -0.058250
H	 0.050699	 -1.089204	 -0.797170
H	 0.078739	 -0.954914	 0.954740
C	 2.140977	 0.240472	 0.917151
H	 2.541942	 -0.769774	 0.860037
H	 2.942297	 0.945639	 0.745314
H	 1.741016	 0.397074	 1.916800

	symmetry c1
}
set optking {
	frozen_dihedral = ("
		10 7 4 8
	")
}

ee = optimize('scf')
oeprop('DIPOLE', 'QUADRUPOLE', 'MULLIKEN_CHARGES')
f=open( 'psi4out.xyz', 'w' )
f.write( "13  " )
f.write( str(ee) + "\n" )
f.write( MOL.save_string_xyz() )
f.close()
--------------------------------------------------------------------------

    Molecular point group: c1
  Charge       = 0
  Multiplicity = 1
  Basis Set: 6-31G*
  Basis Set:
  @DF-RHF Final Energy:  -267.94734379269812
    Total Energy =                       -267.9473437926983479
    Molecular point group: c1
  Basis Set: 6-31G*
  Basis Set:
  Basis Set: 6-31G*
  Basis Set:
  @DF-RHF Final Energy:  -267.94757582819807
    Total Energy =                       -267.9475758281980120
  Basis Set: 6-31G*
  Basis Set:
  Basis Set: 6-31G*
  Basis Set:
  @DF-RHF Final Energy:  -267.94764541205370
    Total Energy =                       -267.9476454120538165
  Basis Set: 6-31G*
  Basis Set:
  Charge       = 0
  Multiplicity = 1
  Basis Set: 6-31G*
  Basis Set:

    Orbital Energies (a.u.)
    -----------------------

    Doubly Occupied:

       1A    -20.559889     2A    -20.559636     3A    -11.270532
       4A    -11.270462     5A    -11.268301     6A     -1.384505
       7A     -1.364430     8A     -1.017055     9A     -0.916586
      10A     -0.839923    11A     -0.707890    12A     -0.674281
      13A     -0.656898    14A     -0.633627    15A     -0.600163
      16A     -0.575599    17A     -0.532830    18A     -0.495210
      19A     -0.480111    20A     -0.450469    21A     -0.408598

  @DF-RHF Final Energy:  -267.94764640758160

   => Energetics <=

    Nuclear Repulsion Energy =            190.4090274429203191
    One-Electron Energy =                -743.3793547804041282
    Two-Electron Energy =                 285.0226809299023216
    DFT Exchange-Correlation Energy =       0.0000000000000000
    Empirical Dispersion Energy =           0.0000000000000000
    PCM Polarization Energy =               0.0000000000000000
    EFP Energy =                            0.0000000000000000
    Total Energy =                       -267.9476464075814874
    Molecular point group: c1
  Basis Set: 6-31G*
  Basis Set:

  -Total Gradient:
     Atom            X                  Y                   Z
    ------   -----------------  -----------------  -----------------
       1       -0.000020235698    -0.000014928491     0.000002916914
       2       -0.000028641306    -0.000020635774    -0.000011537975
       3       -0.000019938163    -0.000040211733    -0.000035213584
       4        0.000716376390    -0.000685575804     0.001240378485
       5        0.000017706658     0.000025181335     0.000001698064
       6        0.000047144416    -0.000018140706    -0.000002864567
       7        0.000506269311    -0.000887914889    -0.001093163462
       8       -0.000735880835     0.000889330886    -0.000730641040
       9       -0.000010229597    -0.000020346889     0.000017217859
      10       -0.000411518864     0.000770576086     0.000653059548
      11       -0.000034203531     0.000006094002    -0.000013005628
      12        0.000009018615     0.000005895495     0.000004211013
      13       -0.000035867398    -0.000009323516    -0.000033055626

  **** Optimization is complete! (in 4 steps) ****
    Final optimized geometry and variables:
    Molecular point group: c1

    Geometry (in Angstrom), charge = 0, multiplicity = 1:

    H           -2.441576669684    -0.807376548196    -0.975791584934
    O           -2.309655477213    -0.375776699818    -0.143403246628
    C           -1.141651771514     0.399585886460    -0.193697474357
    C            0.104690989231    -0.469367715394    -0.135259720409
    H           -1.110588924440     1.020854793891    -1.084477156174
    H           -1.165599391259     1.058529834509     0.663705088943
    O            1.232646566319     0.351874985661    -0.237855518677
    H            0.095919286228    -1.178290512010    -0.961255538855
    H            0.104038651073    -1.038355053912     0.789396164073
    C            2.222815713342     0.152949876101     0.723180102045
    H            2.646894861866    -0.846731789538     0.661447852810
    H            3.005280731231     0.875116642434     0.534659708210
    H            1.838772929134     0.305322491976     1.729224123832

  Mulliken Charges: (a.u.)
   Center  Symbol    Alpha    Beta     Spin     Total
       1     H     0.28102  0.28102  0.00000  0.43796
       2     O     4.37092  4.37092  0.00000 -0.74185
       3     C     3.00410  3.00410  0.00000 -0.00821
       4     C     2.99989  2.99989  0.00000  0.00022
       5     H     0.42165  0.42165  0.00000  0.15671
       6     H     0.41302  0.41302  0.00000  0.17396
       7     O     4.31001  4.31001  0.00000 -0.62001
       8     H     0.42962  0.42962  0.00000  0.14076
       9     H     0.42208  0.42208  0.00000  0.15584
      10     C     3.08020  3.08020  0.00000 -0.16040
      11     H     0.42776  0.42776  0.00000  0.14447
      12     H     0.41179  0.41179  0.00000  0.17642
      13     H     0.42794  0.42794  0.00000  0.14412

   Total alpha = 21.00000, Total beta = 21.00000, Total charge =  0.00000
