  ==> Input File <==

--------------------------------------------------------------------------
set {
	reference rhf
	basis 6-31G*
}

set_num_threads( 4 )
memory 2 gb

molecule MOL {
0 1

O	 3.889261	 -0.330230	 -0.290258
C	 2.843464	 0.164689	 -0.000222
C	 1.546494	 -0.624492	 -0.000609
C	 2.742930	 1.625040	 0.390193
C	 0.291004	 0.242674	 0.000989
H	 1.557904	 -1.283758	 -0.867573
H	 1.558622	 -1.285963	 0.864672
C	 -0.994322	 -0.586602	 0.000262
H	 0.309117	 0.896430	 -0.865270
H	 0.309661	 0.894078	 0.869017
C	 -2.259874	 0.272531	 0.000494
H	 -1.004862	 -1.240012	 -0.870939
H	 -1.005220	 -1.241071	 0.870675
C	 -3.549786	 -0.549746	 -0.000374
H	 -2.250389	 0.926680	 -0.869574
H	 -2.250838	 0.925513	 0.871430
C	 -4.809590	 0.315458	 -0.000369
H	 -3.560515	 -1.202009	 -0.871156
H	 -3.561123	 -1.202955	 0.869711
H	 -4.844746	 0.956611	 -0.876632
H	 -5.706986	 -0.295590	 -0.001609
H	 -4.845960	 0.954827	 0.877144
H	 2.332550	 1.722394	 1.391058
H	 3.723032	 2.080089	 0.356095
H	 2.074861	 2.152273	 -0.284598

	symmetry c1
}
set optking {
	frozen_dihedral = ("
		1 2 3 6
	")
}

ee = optimize('scf')
oeprop('DIPOLE', 'QUADRUPOLE', 'MULLIKEN_CHARGES')
f=open( 'psi4out.xyz', 'w' )
f.write( "25  " )
f.write( str(ee) + "\n" )
f.write( MOL.save_string_xyz() )
f.close()
--------------------------------------------------------------------------

    Molecular point group: c1
  Charge       = 0
  Multiplicity = 1
  Basis Set: 6-31G*
  Basis Set:
  @DF-RHF Final Energy:  -387.13004521675958
    Total Energy =                       -387.1300452167595267
    Molecular point group: c1
  Basis Set: 6-31G*
  Basis Set:
  Basis Set: 6-31G*
  Basis Set:
  @DF-RHF Final Energy:  -387.13095763536489
    Total Energy =                       -387.1309576353646662
  Basis Set: 6-31G*
  Basis Set:
  Basis Set: 6-31G*
  Basis Set:
  @DF-RHF Final Energy:  -387.13220454407502
    Total Energy =                       -387.1322045440751936
  Basis Set: 6-31G*
  Basis Set:
  Basis Set: 6-31G*
  Basis Set:
  @DF-RHF Final Energy:  -387.13180104403574
    Total Energy =                       -387.1318010440363651
  Basis Set: 6-31G*
  Basis Set:
  Basis Set: 6-31G*
  Basis Set:
  @DF-RHF Final Energy:  -387.13240513828197
    Total Energy =                       -387.1324051382820244
  Basis Set: 6-31G*
  Basis Set:
  Basis Set: 6-31G*
  Basis Set:
  @DF-RHF Final Energy:  -387.13242159250939
    Total Energy =                       -387.1324215925083081
  Basis Set: 6-31G*
  Basis Set:
  Charge       = 0
  Multiplicity = 1
  Basis Set: 6-31G*
  Basis Set:

    Orbital Energies (a.u.)
    -----------------------

    Doubly Occupied:

       1A    -20.545311     2A    -11.325543     3A    -11.230933
       4A    -11.230310     5A    -11.227368     6A    -11.224183
       7A    -11.220726     8A    -11.220025     9A    -11.212663
      10A     -1.392223    11A     -1.101502    12A     -1.060603
      13A     -1.009760    14A     -0.971616    15A     -0.898336
      16A     -0.821939    17A     -0.797531    18A     -0.730760
      19A     -0.668577    20A     -0.648159    21A     -0.635244
      22A     -0.623384    23A     -0.597420    24A     -0.589944
      25A     -0.564037    26A     -0.559985    27A     -0.546358
      28A     -0.530310    29A     -0.523584    30A     -0.496788
      31A     -0.490522    32A     -0.471275    33A     -0.469567
      34A     -0.468262    35A     -0.459869    36A     -0.395389

  @DF-RHF Final Energy:  -387.13242169052597

   => Energetics <=

    Nuclear Repulsion Energy =            438.5023212279014047
    One-Electron Energy =               -1393.3494777246694412
    Two-Electron Energy =                 567.7147348062417223
    DFT Exchange-Correlation Energy =       0.0000000000000000
    Empirical Dispersion Energy =           0.0000000000000000
    PCM Polarization Energy =               0.0000000000000000
    EFP Energy =                            0.0000000000000000
    Total Energy =                       -387.1324216905263711
    Molecular point group: c1
  Basis Set: 6-31G*
  Basis Set:

  -Total Gradient:
     Atom            X                  Y                   Z
    ------   -----------------  -----------------  -----------------
       1        0.000214836346    -0.000357973591     0.001421583669
       2       -0.000417988935     0.000713336178    -0.002179447699
       3        0.000780167009    -0.001375753109     0.001490168143
       4        0.000017751879    -0.000011920119     0.000054985495
       5        0.000003425941    -0.000025085474     0.000078793623
       6       -0.000574628331     0.001031708263    -0.000818244129
       7       -0.000006806324     0.000010464671     0.000003007987
       8       -0.000006732376     0.000008862976    -0.000009313901
       9        0.000010611203    -0.000005634948     0.000008024361
      10       -0.000028253796     0.000001349260     0.000003841842
      11       -0.000000614466     0.000000877917    -0.000014787508
      12        0.000002621093    -0.000007946611     0.000001873415
      13        0.000003120348     0.000011800181     0.000003206658
      14        0.000003088154    -0.000001771826    -0.000012629247
      15       -0.000002245844     0.000003324552    -0.000000166040
      16        0.000003905437    -0.000003127338    -0.000000390328
      17        0.000000727713     0.000001263481     0.000004128985
      18       -0.000001118041    -0.000000603458    -0.000001105949
      19        0.000000890163    -0.000000210144    -0.000001199941
      20       -0.000000200059    -0.000001950528    -0.000000562364
      21        0.000000710484    -0.000000323142     0.000002284958
      22        0.000000109988     0.000002074470    -0.000000799675
      23        0.000011344843     0.000007553624    -0.000011720522
      24       -0.000004527383    -0.000008123066    -0.000004684028
      25       -0.000010195055     0.000007807783    -0.000016847804

  **** Optimization is complete! (in 7 steps) ****
    Final optimized geometry and variables:
    Molecular point group: c1

    Geometry (in Angstrom), charge = 0, multiplicity = 1:

    O            3.895061660655    -0.492317860085    -0.313934151122
    C            2.905449624833     0.107535106692    -0.021477252372
    C            1.565515163876    -0.619004786386    -0.002943372092
    C            2.973949085546     1.563489742691     0.386638998730
    C            0.295208618138     0.234820656704    -0.000913065230
    H            1.567328725631    -1.281615565758    -0.862095278146
    H            1.582247022008    -1.259477061910     0.876946014650
    C           -0.973496130722    -0.620862491292    -0.005514802227
    H            0.287571717679     0.885005064430    -0.873126946592
    H            0.279956734478     0.886240024905     0.869046491855
    C           -2.258360730176     0.208866240078    -0.011245509978
    H           -0.962598858020    -1.274696640994    -0.875415005556
    H           -0.969374635285    -1.273275595709     0.865845602200
    C           -3.528126600229    -0.644278828693    -0.016815239504
    H           -2.261615280151     0.862092803675    -0.882264447801
    H           -2.269480520919     0.862504401180     0.859470924268
    C           -4.808108103602     0.190647435297    -0.022208387776
    H           -3.519332649630    -1.296736656130    -0.887239327466
    H           -3.526878030563    -1.297028585190     0.853481062482
    H           -4.855965496876     0.829457920248    -0.899584941736
    H           -5.690166427744    -0.442044113714    -0.025680385907
    H           -4.863170956268     0.829886313771     0.854459677866
    H            2.584964918634     1.695295598976     1.392113555228
    H            4.003482957722     1.890902215262     0.352513040895
    H            2.374547598897     2.181619658323    -0.273897848010

  Mulliken Charges: (a.u.)
   Center  Symbol    Alpha    Beta     Spin     Total
       1     O     4.26361  4.26361  0.00000 -0.52722
       2     C     2.73536  2.73536  0.00000  0.52928
       3     C     3.20528  3.20528  0.00000 -0.41056
       4     C     3.29190  3.29190  0.00000 -0.58379
       5     C     3.16238  3.16238  0.00000 -0.32477
       6     H     0.39932  0.39932  0.00000  0.20137
       7     H     0.40255  0.40255  0.00000  0.19489
       8     C     3.15254  3.15254  0.00000 -0.30508
       9     H     0.41934  0.41934  0.00000  0.16131
      10     H     0.41973  0.41973  0.00000  0.16054
      11     C     3.15094  3.15094  0.00000 -0.30189
      12     H     0.42043  0.42043  0.00000  0.15914
      13     H     0.42161  0.42161  0.00000  0.15678
      14     C     3.15194  3.15194  0.00000 -0.30387
      15     H     0.42319  0.42319  0.00000  0.15361
      16     H     0.42365  0.42365  0.00000  0.15270
      17     C     3.23959  3.23959  0.00000 -0.47919
      18     H     0.42206  0.42206  0.00000  0.15588
      19     H     0.42237  0.42237  0.00000  0.15526
      20     H     0.42140  0.42140  0.00000  0.15721
      21     H     0.41830  0.41830  0.00000  0.16341
      22     H     0.42158  0.42158  0.00000  0.15683
      23     H     0.40837  0.40837  0.00000  0.18327
      24     H     0.39560  0.39560  0.00000  0.20881
      25     H     0.40696  0.40696  0.00000  0.18608

   Total alpha = 36.00000, Total beta = 36.00000, Total charge =  0.00000
