                              Psi4 1.0.54 Driver

  ==> Input File <==

--------------------------------------------------------------------------
set {
	reference rhf
	basis cc-pvtz
}

set_num_threads( 4 )
memory 2 gb

molecule MOL {
0 1

O	 -2.440701	 -0.934798	 -0.415053
C	 -1.922978	 0.063265	 -0.045005
C	 -2.632749	 1.372204	 0.158357
O	 -0.637375	 0.157174	 0.243149
H	 -2.187724	 2.129143	 -0.474664
H	 -3.677681	 1.257276	 -0.079438
H	 -2.516788	 1.693160	 1.185542
C	 0.162530	 -1.009518	 0.097799
C	 1.587210	 -0.664190	 0.477086
H	 0.096803	 -1.356267	 -0.924704
H	 -0.233803	 -1.785900	 0.736810
C	 2.256770	 0.342732	 -0.454344
H	 2.154716	 -1.590834	 0.479041
H	 1.598751	 -0.289614	 1.496104
C	 3.646861	 -0.100490	 -0.897982
H	 1.628914	 0.491279	 -1.328890
H	 2.324266	 1.303274	 0.043298
H	 4.097008	 0.629402	 -1.560562
H	 3.608009	 -1.047248	 -1.426690
H	 4.307603	 -0.225499	 -0.046625

	symmetry c1
}
set optking {
	frozen_dihedral = ("
		16 12 9 8
	")
}

ee,wfn = optimize('scf', return_wfn=True)
oeprop( wfn, 'DIPOLE', 'QUADRUPOLE', 'MULLIKEN_CHARGES')
f=open( 'psi4out.xyz', 'w' )
f.write( "20  " )
f.write( str(ee) + "\n" )
f.write( MOL.save_string_xyz() )
f.close()
--------------------------------------------------------------------------

    Molecular point group: c1
  Charge       = 0
  Multiplicity = 1
  Basis Set: CC-PVTZ
  Basis Set:
  @DF-RHF Final Energy:  -384.08266852759698
    Total Energy =                       -384.0826685275968657
    Molecular point group: c1
  Basis Set: CC-PVTZ
  Basis Set:
  Basis Set: CC-PVTZ
  Basis Set:
  @DF-RHF Final Energy:  -384.08294490822180
    Total Energy =                       -384.0829449082217479
  Basis Set: CC-PVTZ
  Basis Set:
  Basis Set: CC-PVTZ
  Basis Set:
  @DF-RHF Final Energy:  -384.08285676542067
    Total Energy =                       -384.0828567654210701
  Basis Set: CC-PVTZ
  Basis Set:
  Basis Set: CC-PVTZ
  Basis Set:
  @DF-RHF Final Energy:  -384.08302274775173
    Total Energy =                       -384.0830227477518974
  Basis Set: CC-PVTZ
  Basis Set:
  Basis Set: CC-PVTZ
  Basis Set:
  @DF-RHF Final Energy:  -384.08302267718085
    Total Energy =                       -384.0830226771803382
  Basis Set: CC-PVTZ
  Basis Set:
  Charge       = 0
  Multiplicity = 1
  Basis Set: CC-PVTZ
  Basis Set:

    Orbital Energies (a.u.)
    -----------------------

    Doubly Occupied:

       1A    -20.594086     2A    -20.532554     3A    -11.366494
       4A    -11.280315     5A    -11.231504     6A    -11.223339
       7A    -11.219410     8A    -11.212365     9A     -1.470779
      10A     -1.364929    11A     -1.085500    12A     -1.028753
      13A     -0.982450    14A     -0.881565    15A     -0.814126
      16A     -0.774571    17A     -0.692067    18A     -0.689878
      19A     -0.669553    20A     -0.628702    21A     -0.601242
      22A     -0.591961    23A     -0.573324    24A     -0.557349
      25A     -0.546098    26A     -0.531030    27A     -0.511694
      28A     -0.486291    29A     -0.476165    30A     -0.469017
      31A     -0.451814    32A     -0.441637

  @DF-RHF Final Energy:  -384.08302567234233

   => Energetics <=

    Nuclear Repulsion Energy =            385.7453131755198115
    One-Electron Energy =               -1287.6955472042550355
    Two-Electron Energy =                 517.8672083563925526
    DFT Exchange-Correlation Energy =       0.0000000000000000
    Empirical Dispersion Energy =           0.0000000000000000
    PCM Polarization Energy =               0.0000000000000000
    EFP Energy =                            0.0000000000000000
    Total Energy =                       -384.0830256723426146
    Molecular point group: c1
  Basis Set: CC-PVTZ
  Basis Set:

  -Total Gradient:
     Atom            X                  Y                   Z
    ------   -----------------  -----------------  -----------------
       1       -0.000087948288    -0.000148015297    -0.000056255162
       2        0.000012593135     0.000109411517     0.000027313380
       3        0.000006131038    -0.000032924741    -0.000003621731
       4        0.000084053296     0.000025921694     0.000027691220
       5        0.000025218315     0.000037453893    -0.000030068679
       6       -0.000022840904    -0.000016084947    -0.000008775653
       7        0.000007291205     0.000020992172     0.000050551649
       8        0.000679438726    -0.001572143240    -0.001212107130
       9       -0.001275518104     0.002710392201     0.001971923967
      10        0.000004275692     0.000009504828     0.000010048182
      11       -0.000007986570    -0.000014718822     0.000006341752
      12        0.001902991247    -0.003242054049    -0.002089718355
      13       -0.000005333046     0.000004956319    -0.000002168467
      14       -0.000011134175     0.000009398519     0.000004706489
      15        0.000009927447    -0.000002834444    -0.000009775808
      16       -0.001318682769     0.002089301289     0.001307693618
      17        0.000019399670    -0.000006588133     0.000005386966
      18        0.000004617830     0.000010042740    -0.000006974734
      19       -0.000014236779     0.000005818241     0.000003802989
      20       -0.000012256968     0.000002170262     0.000004005506

  **** Optimization is complete! (in 6 steps) ****
    Final optimized geometry and variables:
    Molecular point group: c1

    Geometry (in Angstrom), charge = 0, multiplicity = 1:

    O           -2.435440121282    -0.822521202808    -0.341198325752
    C           -1.911157785251     0.172069890937     0.029305461586
    C           -2.603986063891     1.494721291686     0.196863790983
    O           -0.631678357874     0.248661086188     0.348205909008
    H           -2.129369958645     2.235633669349    -0.433654514022
    H           -3.644163876287     1.393869544169    -0.066968785439
    H           -2.509412824803     1.827023923235     1.222657184577
    C            0.152464517744    -0.932918033893     0.237728661087
    C            1.577286870146    -0.595220032078     0.619003173401
    H            0.093890551833    -1.300493014510    -0.777710758700
    H           -0.260593005311    -1.689442402571     0.890131747815
    C            2.259046059184     0.420214528291    -0.316714077126
    H            2.127435458863    -1.531554045727     0.606484699967
    H            1.597594622771    -0.242734434748     1.643790839084
    C            3.665393950504     0.007689334125    -0.736611015352
    H            1.641702746941     0.581290835414    -1.194100775452
    H            2.304798622176     1.385265333368     0.175284189357
    H            4.121866308331     0.759537060429    -1.369954834758
    H            3.651369562801    -0.926909335340    -1.287557760897
    H            4.306176419369    -0.129807531630     0.128227036306

  Mulliken Charges: (a.u.)
   Center  Symbol    Alpha    Beta     Spin     Total
       1     O     4.19746  4.19746  0.00000 -0.39493
       2     C     2.80916  2.80916  0.00000  0.38167
       3     C     3.13807  3.13807  0.00000 -0.27614
       4     O     4.15413  4.15413  0.00000 -0.30826
       5     H     0.44599  0.44599  0.00000  0.10802
       6     H     0.43807  0.43807  0.00000  0.12386
       7     H     0.44574  0.44574  0.00000  0.10852
       8     C     2.99271  2.99271  0.00000  0.01458
       9     C     3.08849  3.08849  0.00000 -0.17698
      10     H     0.45138  0.45138  0.00000  0.09724
      11     H     0.44471  0.44471  0.00000  0.11058
      12     C     3.08480  3.08480  0.00000 -0.16959
      13     H     0.45250  0.45250  0.00000  0.09500
      14     H     0.44872  0.44872  0.00000  0.10255
      15     C     3.14812  3.14812  0.00000 -0.29624
      16     H     0.45251  0.45251  0.00000  0.09498
      17     H     0.44934  0.44934  0.00000  0.10132
      18     H     0.44839  0.44839  0.00000  0.10322
      19     H     0.45559  0.45559  0.00000  0.08882
      20     H     0.45411  0.45411  0.00000  0.09179

   Total alpha = 32.00000, Total beta = 32.00000, Total charge = -0.00000

*** Psi4 exiting successfully. Buy a developer a beer!
