  ==> Input File <==

--------------------------------------------------------------------------
set {
	reference rhf
	basis 6-31G*
}

set_num_threads( 4 )
memory 2 gb

molecule MOL {
0 1

H	 -2.805646	 0.411550	 -0.615383
O	 -2.315789	 -0.143634	 -0.024262
C	 -0.945151	 -0.064130	 -0.333158
H	 -0.813375	 -0.223047	 -1.403232
C	 -0.232801	 -1.184051	 0.407206
C	 -0.355424	 1.302939	 0.054523
H	 -0.318824	 -0.992899	 1.473524
H	 -0.742411	 -2.122033	 0.217954
C	 1.248522	 -1.270719	 -0.013048
H	 -0.546144	 2.018388	 -0.742941
H	 -0.890929	 1.656788	 0.930149
C	 1.156425	 1.235120	 0.355905
H	 1.825384	 -1.683246	 0.809111
H	 1.357782	 -1.965923	 -0.840362
C	 1.828244	 0.099899	 -0.419275
H	 1.626109	 2.185622	 0.123525
H	 1.309438	 1.071213	 1.419539
H	 2.901447	 0.112642	 -0.255830
H	 1.681817	 0.263413	 -1.484607

	symmetry c1
}
set optking {
	frozen_dihedral = ("
		1 2 3 4
	")
}

ee = optimize('scf')
oeprop('DIPOLE', 'QUADRUPOLE', 'MULLIKEN_CHARGES')
f=open( 'psi4out.xyz', 'w' )
f.write( "19  " )
f.write( str(ee) + "\n" )
f.write( MOL.save_string_xyz() )
f.close()
--------------------------------------------------------------------------

    Molecular point group: c1
  Charge       = 0
  Multiplicity = 1
  Basis Set: 6-31G*
  Basis Set:
  @DF-RHF Final Energy:  -309.04838078834126
    Total Energy =                       -309.0483807883413192
    Molecular point group: c1
  Basis Set: 6-31G*
  Basis Set:
  Basis Set: 6-31G*
  Basis Set:
  @DF-RHF Final Energy:  -309.04838987145837
    Total Energy =                       -309.0483898714579709
  Basis Set: 6-31G*
  Basis Set:
  Charge       = 0
  Multiplicity = 1
  Basis Set: 6-31G*
  Basis Set:

    Orbital Energies (a.u.)
    -----------------------

    Doubly Occupied:

       1A    -20.550017     2A    -11.269205     3A    -11.216370
       4A    -11.215704     5A    -11.215133     6A    -11.211698
       7A    -11.208278     8A     -1.358889     9A     -1.108040
      10A     -1.001357    11A     -0.987915    12A     -0.842565
      13A     -0.834806    14A     -0.732311    15A     -0.701056
      16A     -0.659957    17A     -0.627404    18A     -0.589465
      19A     -0.573878    20A     -0.544888    21A     -0.531414
      22A     -0.517921    23A     -0.497839    24A     -0.487419
      25A     -0.461137    26A     -0.448644    27A     -0.429367
      28A     -0.410224

  @DF-RHF Final Energy:  -309.04839302479076

   => Energetics <=

    Nuclear Repulsion Energy =            331.2959994943213928
    One-Electron Energy =               -1076.2229870928722448
    Two-Electron Energy =                 435.8785945737606653
    DFT Exchange-Correlation Energy =       0.0000000000000000
    Empirical Dispersion Energy =           0.0000000000000000
    PCM Polarization Energy =               0.0000000000000000
    EFP Energy =                            0.0000000000000000
    Total Energy =                       -309.0483930247901299
    Molecular point group: c1
  Basis Set: 6-31G*
  Basis Set:

  -Total Gradient:
     Atom            X                  Y                   Z
    ------   -----------------  -----------------  -----------------
       1       -0.000091282115    -0.000854486522    -0.000678371744
       2        0.000152169963     0.001296945095     0.000813066564
       3        0.000030347709    -0.001349997287     0.000019250264
       4       -0.000050338234     0.000935971047    -0.000153841120
       5        0.000024983180    -0.000066367893     0.000013505703
       6       -0.000063242497    -0.000041502573    -0.000012994392
       7        0.000006066656     0.000007168408    -0.000003585697
       8       -0.000008014578    -0.000000227540    -0.000000461911
       9       -0.000013728408     0.000005602684     0.000007756293
      10        0.000011861695     0.000011700349     0.000024752000
      11        0.000013722776     0.000013363196    -0.000009758749
      12        0.000037907030     0.000012808858    -0.000013860536
      13       -0.000017599780    -0.000010118761    -0.000001150234
      14       -0.000017768294    -0.000010945286    -0.000000439865
      15       -0.000005731037     0.000018664289    -0.000000937994
      16        0.000003843952     0.000008617964    -0.000001201936
      17       -0.000014686690     0.000000171909    -0.000005936509
      18       -0.000003582552     0.000022751354     0.000006658219
      19        0.000005071228    -0.000000119291    -0.000002448356

  **** Optimization is complete! (in 3 steps) ****
    Final optimized geometry and variables:
    Molecular point group: c1

    Geometry (in Angstrom), charge = 0, multiplicity = 1:

    H           -2.805625452091     0.421927622263    -0.605306615708
    O           -2.316358886895    -0.138180965751    -0.019069877208
    C           -0.945639774039    -0.064995192550    -0.332567495053
    H           -0.817502047092    -0.219697355835    -1.403487590743
    C           -0.231990998707    -1.185198533601     0.406163278252
    C           -0.355560351865     1.302942167626     0.053130709221
    H           -0.320152715879    -0.995778798014     1.472654721702
    H           -0.740331011978    -2.123445546351     0.214878656110
    C            1.250518719504    -1.269311254696    -0.010609692115
    H           -0.545676985259     2.017092180373    -0.745483680948
    H           -0.893943125735     1.657605025010     0.926083910352
    C            1.155844962135     1.236162673661     0.356728599572
    H            1.826478035938    -1.679810457256     0.813219924419
    H            1.362588382271    -1.965432199054    -0.836818653811
    C            1.829274058531     0.101548918995    -0.417571339463
    H            1.625690552742     2.186945144868     0.125445123723
    H            1.307791471060     1.071926007399     1.420524677499
    H            2.902462816790     0.114961721881    -0.254057399060
    H            1.682947676190     0.264241094671    -1.483139051572

  Mulliken Charges: (a.u.)
   Center  Symbol    Alpha    Beta     Spin     Total
       1     H     0.28251  0.28251  0.00000  0.43499
       2     O     4.37809  4.37809  0.00000 -0.75618
       3     C     2.91007  2.91007  0.00000  0.17987
       4     H     0.43029  0.43029  0.00000  0.13941
       5     C     3.16667  3.16667  0.00000 -0.33334
       6     C     3.17182  3.17182  0.00000 -0.34363
       7     H     0.41600  0.41600  0.00000  0.16800
       8     H     0.40953  0.40953  0.00000  0.18095
       9     C     3.16073  3.16073  0.00000 -0.32146
      10     H     0.42476  0.42476  0.00000  0.15048
      11     H     0.41069  0.41069  0.00000  0.17861
      12     C     3.16345  3.16345  0.00000 -0.32690
      13     H     0.41783  0.41783  0.00000  0.16434
      14     H     0.41877  0.41877  0.00000  0.16246
      15     C     3.16409  3.16409  0.00000 -0.32818
      16     H     0.41708  0.41708  0.00000  0.16584
      17     H     0.41875  0.41875  0.00000  0.16249
      18     H     0.41657  0.41657  0.00000  0.16686
      19     H     0.42231  0.42231  0.00000  0.15537

   Total alpha = 28.00000, Total beta = 28.00000, Total charge =  0.00000
