                              Psi4 1.0.54 Driver

  ==> Input File <==

--------------------------------------------------------------------------
set {
	reference rhf
	basis cc-pvtz
}

set_num_threads( 4 )
memory 2 gb

molecule MOL {
0 1

H	 2.815439	 0.807071	 1.306771
N	 1.948580	 0.313182	 1.291983
C	 1.263552	 0.494993	 0.021953
H	 1.397241	 0.663130	 2.047562
C	 -0.016533	 -0.325589	 -0.026925
H	 1.931675	 0.162446	 -0.765459
H	 1.028322	 1.539363	 -0.187676
C	 -1.280353	 0.525521	 0.047747
H	 -0.016686	 -0.912532	 -0.939714
H	 -0.014099	 -1.037598	 0.796369
C	 -2.560681	 -0.301323	 -0.007747
H	 -1.279957	 1.241025	 -0.770189
H	 -1.270445	 1.110526	 0.963468
H	 -2.617064	 -0.872870	 -0.928010
H	 -3.439525	 0.331102	 0.043462
H	 -2.609427	 -1.002736	 0.818585

	symmetry c1
}
set optking {
	frozen_dihedral = ("
		6 3 5 9
	")
}

ee,wfn = optimize('scf', return_wfn=True)
oeprop( wfn, 'DIPOLE', 'QUADRUPOLE', 'MULLIKEN_CHARGES')
f=open( 'psi4out.xyz', 'w' )
f.write( "16  " )
f.write( str(ee) + "\n" )
f.write( MOL.save_string_xyz() )
f.close()
--------------------------------------------------------------------------

    Molecular point group: c1
  Charge       = 0
  Multiplicity = 1
  Basis Set: CC-PVTZ
  Basis Set:
  @DF-RHF Final Energy:  -212.39435565582335
    Total Energy =                       -212.3943556558232331
    Molecular point group: c1
  Basis Set: CC-PVTZ
  Basis Set:
  Basis Set: CC-PVTZ
  Basis Set:
  @DF-RHF Final Energy:  -212.39477021683345
    Total Energy =                       -212.3947702168336491
  Basis Set: CC-PVTZ
  Basis Set:
  Basis Set: CC-PVTZ
  Basis Set:
  @DF-RHF Final Energy:  -212.39487548109548
    Total Energy =                       -212.3948754810954256
  Basis Set: CC-PVTZ
  Basis Set:
  Basis Set: CC-PVTZ
  Basis Set:
  @DF-RHF Final Energy:  -212.39487758769860
    Total Energy =                       -212.3948775876986588
  Basis Set: CC-PVTZ
  Basis Set:
  Charge       = 0
  Multiplicity = 1
  Basis Set: CC-PVTZ
  Basis Set:

    Orbital Energies (a.u.)
    -----------------------

    Doubly Occupied:

       1A    -15.527135     2A    -11.238174     3A    -11.214234
       4A    -11.207774     5A    -11.206353     6A     -1.177652
       7A     -1.059692     8A     -0.958970     9A     -0.848504
      10A     -0.789998    11A     -0.667812    12A     -0.632182
      13A     -0.608429    14A     -0.581506    15A     -0.555484
      16A     -0.526740    17A     -0.511220    18A     -0.472534
      19A     -0.465488    20A     -0.454626    21A     -0.382761

  @DF-RHF Final Energy:  -212.39487782344779

   => Energetics <=

    Nuclear Repulsion Energy =            187.4206706019066644
    One-Electron Energy =                -657.4565651609955239
    Two-Electron Energy =                 257.6410167356411876
    DFT Exchange-Correlation Energy =       0.0000000000000000
    Empirical Dispersion Energy =           0.0000000000000000
    PCM Polarization Energy =               0.0000000000000000
    EFP Energy =                            0.0000000000000000
    Total Energy =                       -212.3948778234477004
    Molecular point group: c1
  Basis Set: CC-PVTZ
  Basis Set:

  -Total Gradient:
     Atom            X                  Y                   Z
    ------   -----------------  -----------------  -----------------
       1        0.000024035253     0.000007012288     0.000014259222
       2       -0.000014704998    -0.000003063999    -0.000022280234
       3        0.001686842184    -0.002946827842     0.002521493755
       4       -0.000003130189     0.000011157245     0.000008692321
       5       -0.001885115569     0.003152076699    -0.002114721005
       6       -0.001122132880     0.001933102793    -0.001784111736
       7        0.000000782989     0.000013163624     0.000010258842
       8        0.000028077218    -0.000023148126     0.000012937199
       9        0.001292429153    -0.002143501565     0.001354254006
      10       -0.000000011284    -0.000000371920     0.000007681467
      11       -0.000010473347     0.000007074619    -0.000002633564
      12        0.000005333534    -0.000004986742     0.000003622472
      13        0.000001691822    -0.000005172394    -0.000004583131
      14        0.000002386092     0.000000798189     0.000003272568
      15       -0.000011059145    -0.000006685561    -0.000003396378
      16        0.000005049164     0.000009372693    -0.000004745806

  **** Optimization is complete! (in 5 steps) ****
    Final optimized geometry and variables:
    Molecular point group: c1

    Geometry (in Angstrom), charge = 0, multiplicity = 1:

    H            2.891528207837     0.729371156787     1.055193538663
    N            2.052521353348     0.189540963613     1.017932487832
    C            1.388281239437     0.351592594254    -0.267953636841
    H            1.467477389791     0.510120427712     1.761695527274
    C            0.093680861658    -0.472188397060    -0.344780372887
    H            2.074500629633     0.035709351883    -1.043938815351
    H            1.156693558773     1.394781835776    -0.486350266236
    C           -1.182548400017     0.359832567287    -0.250326862178
    H            0.082568210092    -1.058254555818    -1.258277458057
    H            0.112468920257    -1.198407107271     0.461475282921
    C           -2.450160085959    -0.487109719970    -0.263587359864
    H           -1.213178783054     1.067083083530    -1.074402063723
    H           -1.157939757709     0.956175966475     0.658856142286
    H           -2.518859474055    -1.071768227927    -1.175004513435
    H           -3.337980559808     0.131609826117    -0.200078906975
    H           -2.467160211556    -1.178589479572     0.572128479655

  Mulliken Charges: (a.u.)
   Center  Symbol    Alpha    Beta     Spin     Total
       1     H     0.43011  0.43011  0.00000  0.13978
       2     N     3.68624  3.68624  0.00000 -0.37247
       3     C     3.03366  3.03366  0.00000 -0.06732
       4     H     0.43122  0.43122  0.00000  0.13756
       5     C     3.09651  3.09651  0.00000 -0.19303
       6     H     0.45316  0.45316  0.00000  0.09367
       7     H     0.46821  0.46821  0.00000  0.06359
       8     C     3.08156  3.08156  0.00000 -0.16312
       9     H     0.45002  0.45002  0.00000  0.09995
      10     H     0.44850  0.44850  0.00000  0.10300
      11     C     3.15031  3.15031  0.00000 -0.30062
      12     H     0.45488  0.45488  0.00000  0.09024
      13     H     0.45747  0.45747  0.00000  0.08506
      14     H     0.45478  0.45478  0.00000  0.09045
      15     H     0.44896  0.44896  0.00000  0.10208
      16     H     0.45441  0.45441  0.00000  0.09119

   Total alpha = 21.00000, Total beta = 21.00000, Total charge =  0.00000

*** Psi4 exiting successfully. Buy a developer a beer!
