                              Psi4 1.0.54 Driver

  ==> Input File <==

--------------------------------------------------------------------------
set {
	reference rhf
	basis cc-pvtz
}

set_num_threads( 4 )
memory 2 gb

molecule MOL {
0 1

H	 -4.022669	 -0.467479	 0.154292
C	 -2.960734	 -0.311179	 0.160493
C	 -2.451400	 0.959109	 0.361962
C	 -2.106137	 -1.379942	 -0.032881
H	 -3.115334	 1.788195	 0.511990
C	 -1.086698	 1.159167	 0.369798
H	 -2.502128	 -2.364664	 -0.189038
C	 -0.739406	 -1.181230	 -0.025306
H	 -0.675383	 2.135893	 0.524342
C	 -0.225716	 0.089995	 0.176238
H	 -0.074817	 -2.006770	 -0.174757
C	 1.240758	 0.358464	 0.193537
O	 1.968286	 -0.725612	 -0.000027
O	 1.712532	 1.432641	 0.363107
C	 3.373556	 -0.568203	 0.000011
H	 3.695416	 -0.031588	 -0.879663
H	 3.782700	 -1.565294	 -0.000152
H	 3.695405	 -0.031851	 0.879862

	symmetry c1
}
set optking {
	frozen_dihedral = ("
		12 13 15 16
	")
}

ee,wfn = optimize('scf', return_wfn=True)
oeprop( wfn, 'DIPOLE', 'QUADRUPOLE', 'MULLIKEN_CHARGES')
f=open( 'psi4out.xyz', 'w' )
f.write( "18  " )
f.write( str(ee) + "\n" )
f.write( MOL.save_string_xyz() )
f.close()
--------------------------------------------------------------------------

    Molecular point group: c1
  Charge       = 0
  Multiplicity = 1
  Basis Set: CC-PVTZ
  Basis Set:
  @DF-RHF Final Energy:  -457.51008323513281
    Total Energy =                       -457.5100832351329245
    Molecular point group: c1
  Basis Set: CC-PVTZ
  Basis Set:
  Basis Set: CC-PVTZ
  Basis Set:
  @DF-RHF Final Energy:  -457.51009378488328
    Total Energy =                       -457.5100937848833382
  Basis Set: CC-PVTZ
  Basis Set:
  Basis Set: CC-PVTZ
  Basis Set:
  @DF-RHF Final Energy:  -457.51002119832418
    Total Energy =                       -457.5100211983246936
  Basis Set: CC-PVTZ
  Basis Set:
  Basis Set: CC-PVTZ
  Basis Set:
  @DF-RHF Final Energy:  -457.51010084687334
    Total Energy =                       -457.5101008468737973
  Basis Set: CC-PVTZ
  Basis Set:
  Charge       = 0
  Multiplicity = 1
  Basis Set: CC-PVTZ
  Basis Set:

    Orbital Energies (a.u.)
    -----------------------

    Doubly Occupied:

       1A    -20.600966     2A    -20.534431     3A    -11.371830
       4A    -11.281202     5A    -11.244981     6A    -11.243508
       7A    -11.242705     8A    -11.240057     9A    -11.236074
      10A    -11.235313    11A     -1.476916    12A     -1.368524
      13A     -1.170807    14A     -1.051871    15A     -1.029073
      16A     -0.980635    17A     -0.863240    18A     -0.838484
      19A     -0.781198    20A     -0.745051    21A     -0.687895
      22A     -0.681770    23A     -0.676404    24A     -0.634106
      25A     -0.630081    26A     -0.601313    27A     -0.587477
      28A     -0.565550    29A     -0.531459    30A     -0.520327
      31A     -0.509572    32A     -0.502238    33A     -0.464117
      34A     -0.449443    35A     -0.350233    36A     -0.346269

  @DF-RHF Final Energy:  -457.51010153043632

   => Energetics <=

    Nuclear Repulsion Energy =            494.0140483294807723
    One-Electron Energy =               -1602.4980608468572427
    Two-Electron Energy =                 650.9739109869398135
    DFT Exchange-Correlation Energy =       0.0000000000000000
    Empirical Dispersion Energy =           0.0000000000000000
    PCM Polarization Energy =               0.0000000000000000
    EFP Energy =                            0.0000000000000000
    Total Energy =                       -457.5101015304366001
    Molecular point group: c1
  Basis Set: CC-PVTZ
  Basis Set:

  -Total Gradient:
     Atom            X                  Y                   Z
    ------   -----------------  -----------------  -----------------
       1        0.000002824208    -0.000001582736    -0.000000406826
       2        0.000005047132     0.000014132850     0.000002824761
       3       -0.000005502712    -0.000012574435    -0.000005004618
       4        0.000017032290    -0.000002967733     0.000000618711
       5        0.000005009176     0.000000069132     0.000001111752
       6        0.000022917609    -0.000004452317     0.000003300664
       7        0.000001170093     0.000001478391    -0.000001157162
       8       -0.000007674784    -0.000005211740    -0.000003412035
       9        0.000000116017     0.000002580818    -0.000001303523
      10        0.000013359843     0.000009449822    -0.000001339278
      11        0.000003056761    -0.000000397373     0.000001080796
      12        0.000039369339    -0.000132564957     0.000744069253
      13       -0.000045026424    -0.000072123054    -0.001175240751
      14       -0.000016328554     0.000030942767     0.000003364468
      15       -0.000050376124     0.000932166658     0.000856701859
      16        0.000063307034    -0.000756903194    -0.000424310710
      17       -0.000024712840    -0.000001587441     0.000000046546
      18       -0.000023588059    -0.000000455457    -0.000000943906

  **** Optimization is complete! (in 5 steps) ****
    Final optimized geometry and variables:
    Molecular point group: c1

    Geometry (in Angstrom), charge = 0, multiplicity = 1:

    H           -4.021727784164    -0.470646754001     0.065555966809
    C           -2.960465402868    -0.309959538545     0.053434054812
    C           -2.453532103465     0.964927718561     0.231090604259
    C           -2.104298925036    -1.377457913070    -0.139738075122
    H           -3.118651509990     1.793163548178     0.380926898694
    C           -1.089776632297     1.170699732403     0.215316939271
    H           -2.498216447349    -2.365780526766    -0.277507901704
    C           -0.738368358960    -1.173014218744    -0.155703211155
    H           -0.680455766979     2.151100307775     0.351109388899
    C           -0.227246687979     0.102675381366     0.021998586853
    H           -0.072713181642    -1.997760378951    -0.305142957708
    C            1.238370755882     0.377821968827     0.013568722309
    O            1.967037419851    -0.705266386635    -0.180627078830
    O            1.707359527561     1.456005314152     0.164058679167
    C            3.372252170721    -0.549075414922    -0.187341391299
    H            3.687504940852    -0.014059418862    -1.071366011494
    H            3.780444134023    -1.546752009862    -0.198150512715
    H            3.702836507593    -0.017369407289     0.690916151248

  Mulliken Charges: (a.u.)
   Center  Symbol    Alpha    Beta     Spin     Total
       1     H     0.42029  0.42029  0.00000  0.15943
       2     C     3.06974  3.06974  0.00000 -0.13949
       3     C     3.07551  3.07551  0.00000 -0.15101
       4     C     3.07493  3.07493  0.00000 -0.14987
       5     H     0.42038  0.42038  0.00000  0.15923
       6     C     3.07589  3.07589  0.00000 -0.15177
       7     H     0.42189  0.42189  0.00000  0.15623
       8     C     3.08212  3.08212  0.00000 -0.16424
       9     H     0.40665  0.40665  0.00000  0.18670
      10     C     3.01283  3.01283  0.00000 -0.02565
      11     H     0.41104  0.41104  0.00000  0.17792
      12     C     2.78179  2.78179  0.00000  0.43641
      13     O     4.14848  4.14848  0.00000 -0.29697
      14     O     4.21133  4.21133  0.00000 -0.42265
      15     C     3.03666  3.03666  0.00000 -0.07331
      16     H     0.45423  0.45423  0.00000  0.09153
      17     H     0.44565  0.44565  0.00000  0.10869
      18     H     0.45059  0.45059  0.00000  0.09882

   Total alpha = 36.00000, Total beta = 36.00000, Total charge =  0.00000

*** Psi4 exiting successfully. Buy a developer a beer!
