                              Psi4 1.0.54 Driver

  ==> Input File <==

--------------------------------------------------------------------------
set {
	reference rhf
	basis cc-pvtz
}

set_num_threads( 4 )
memory 2 gb

molecule MOL {
0 1

O	 1.216069	 1.304886	 0.000821
C	 1.121787	 0.124983	 0.000110
C	 -0.170912	 -0.649867	 -0.000147
O	 2.167739	 -0.685178	 -0.000678
C	 -1.413045	 0.229353	 0.001137
H	 -0.152877	 -1.303435	 -0.866175
H	 -0.152278	 -1.305116	 0.864586
C	 -1.094431	 1.685984	 -0.322930
H	 -1.895820	 0.165767	 0.969860
H	 -2.127339	 -0.158763	 -0.716285
C	 -2.332056	 2.576588	 -0.322107
H	 -0.375798	 2.068276	 0.397251
H	 -0.610746	 1.743312	 -1.294525
H	 -2.819008	 2.567654	 0.647110
H	 -2.076125	 3.603722	 -0.554858
H	 -3.055602	 2.240440	 -1.057000
C	 3.449556	 -0.089977	 -0.000570
H	 3.585694	 0.522473	 -0.879546
H	 4.155805	 -0.904274	 -0.001389
H	 3.586173	 0.521118	 0.879272

	symmetry c1
}
set optking {
	frozen_dihedral = ("
		9 5 3 6
	")
}

ee,wfn = optimize('scf', return_wfn=True)
oeprop( wfn, 'DIPOLE', 'QUADRUPOLE', 'MULLIKEN_CHARGES')
f=open( 'psi4out.xyz', 'w' )
f.write( "20  " )
f.write( str(ee) + "\n" )
f.write( MOL.save_string_xyz() )
f.close()
--------------------------------------------------------------------------

    Molecular point group: c1
  Charge       = 0
  Multiplicity = 1
  Basis Set: CC-PVTZ
  Basis Set:
  @DF-RHF Final Energy:  -384.04592251314540
    Total Energy =                       -384.0459225131450012
    Molecular point group: c1
  Basis Set: CC-PVTZ
  Basis Set:
  Basis Set: CC-PVTZ
  Basis Set:
  @DF-RHF Final Energy:  -384.06558620640766
    Total Energy =                       -384.0655862064073744
  Basis Set: CC-PVTZ
  Basis Set:
  Basis Set: CC-PVTZ
  Basis Set:
  @DF-RHF Final Energy:  -384.06956474470252
    Total Energy =                       -384.0695647447025749
  Basis Set: CC-PVTZ
  Basis Set:
  Basis Set: CC-PVTZ
  Basis Set:
  @DF-RHF Final Energy:  -384.06829603777970
    Total Energy =                       -384.0682960377801010
  Basis Set: CC-PVTZ
  Basis Set:
  @DF-RHF Final Energy:  -384.07185467744921
    Total Energy =                       -384.0718546774494371
  @DF-RHF Final Energy:  -384.07214030189226
    Total Energy =                       -384.0721403018924320
  @DF-RHF Final Energy:  -384.07230007767521
    Total Energy =                       -384.0723000776752087
  @DF-RHF Final Energy:  -384.07244533633485
    Total Energy =                       -384.0724453363344537
  @DF-RHF Final Energy:  -384.07259297484694
    Total Energy =                       -384.0725929748473391
  @DF-RHF Final Energy:  -384.07296486029054
    Total Energy =                       -384.0729648602903126
  @DF-RHF Final Energy:  -384.07216006502381
    Total Energy =                       -384.0721600650240362
  @DF-RHF Final Energy:  -384.07258372783815
    Total Energy =                       -384.0725837278380368
  @DF-RHF Final Energy:  -384.07361215648672
    Total Energy =                       -384.0736121564870018
  @DF-RHF Final Energy:  -384.07385136566279
    Total Energy =                       -384.0738513656626765
  @DF-RHF Final Energy:  -384.07404981799880
    Total Energy =                       -384.0740498179986844
  @DF-RHF Final Energy:  -384.07418313405509
    Total Energy =                       -384.0741831340553745
  @DF-RHF Final Energy:  -384.07404629289641
    Total Energy =                       -384.0740462928964689
  @DF-RHF Final Energy:  -384.07439438347393
    Total Energy =                       -384.0743943834745551
  @DF-RHF Final Energy:  -384.07445953611511
    Total Energy =                       -384.0744595361153415
  @DF-RHF Final Energy:  -384.07445327964177
    Total Energy =                       -384.0744532796418298
  Basis Set: CC-PVTZ
  Basis Set:
  @DF-RHF Final Energy:  -384.07457582526911
    Total Energy =                       -384.0745758252693349
  Basis Set: CC-PVTZ
  Basis Set:
  Basis Set: CC-PVTZ
  Basis Set:
  @DF-RHF Final Energy:  -384.07459888081934
    Total Energy =                       -384.0745988808191669
  Basis Set: CC-PVTZ
  Basis Set:
  Basis Set: CC-PVTZ
  Basis Set:
  @DF-RHF Final Energy:  -384.07460320786004
    Total Energy =                       -384.0746032078601502
  Basis Set: CC-PVTZ
  Basis Set:
  Charge       = 0
  Multiplicity = 1
  Basis Set: CC-PVTZ
  Basis Set:

    Orbital Energies (a.u.)
    -----------------------

    Doubly Occupied:

       1A    -20.598078     2A    -20.531302     3A    -11.364097
       4A    -11.278489     5A    -11.232130     6A    -11.228156
       7A    -11.218180     8A    -11.210460     9A     -1.472175
      10A     -1.364245    11A     -1.088750    12A     -1.023046
      13A     -0.969310    14A     -0.890480    15A     -0.814166
      16A     -0.770055    17A     -0.692296    18A     -0.680992
      19A     -0.676440    20A     -0.644189    21A     -0.596194
      22A     -0.593409    23A     -0.584134    24A     -0.553488
      25A     -0.532460    26A     -0.521512    27A     -0.512136
      28A     -0.484326    29A     -0.473318    30A     -0.467034
      31A     -0.456578    32A     -0.435029

  @DF-RHF Final Energy:  -384.07460580332486

   => Energetics <=

    Nuclear Repulsion Energy =            394.7749261982880853
    One-Electron Energy =               -1305.7857505108854639
    Two-Electron Energy =                 526.9362185092725213
    DFT Exchange-Correlation Energy =       0.0000000000000000
    Empirical Dispersion Energy =           0.0000000000000000
    PCM Polarization Energy =               0.0000000000000000
    EFP Energy =                            0.0000000000000000
    Total Energy =                       -384.0746058033248573
    Molecular point group: c1
  Basis Set: CC-PVTZ
  Basis Set:

  -Total Gradient:
     Atom            X                  Y                   Z
    ------   -----------------  -----------------  -----------------
       1        0.000049226260     0.000046351426     0.000056586707
       2       -0.000057528277    -0.000051545487    -0.000000008859
       3        0.001342275560     0.002526595724    -0.003446029555
       4        0.000005533572    -0.000014175510    -0.000030168932
       5        0.002435761195     0.003303243940     0.001354983570
       6       -0.001507871555    -0.002642419045     0.002667635089
       7       -0.000000044234     0.000001876585     0.000004286120
       8        0.000020697236    -0.000010675028    -0.000019192034
       9       -0.002282038993    -0.003216217420    -0.000581630954
      10       -0.000005974857     0.000002774429     0.000001192988
      11       -0.000032306580     0.000007041738     0.000006693412
      12        0.000012714837     0.000016570383     0.000010060965
      13       -0.000009156903     0.000006515824     0.000010245494
      14        0.000008248030    -0.000000371367    -0.000003961907
      15        0.000000021163     0.000001233849    -0.000001852193
      16        0.000003209365    -0.000004136994    -0.000001818402
      17       -0.000000085705     0.000075595891     0.000013119928
      18       -0.000021771937     0.000004580326    -0.000000690651
      19        0.000021254676    -0.000003092619    -0.000060717748
      20        0.000017837150    -0.000049746646     0.000021266960

  **** Optimization is complete! (in 24 steps) ****
    Final optimized geometry and variables:
    Molecular point group: c1

    Geometry (in Angstrom), charge = 0, multiplicity = 1:

    O            1.552912217563    -0.056302441274     1.071439731308
    C            0.920605749797    -0.572299926534     0.212501457167
    C           -0.347603287631    -1.352534778810     0.443824718968
    O            1.258112565627    -0.517139087538    -1.064673774841
    C           -1.621523643715    -0.478137640500     0.593902722194
    H           -0.480273008156    -2.076178736564    -0.346919764096
    H           -0.192369033076    -1.906606005350     1.359165357358
    C           -1.543063138671     0.947628076568     0.052819229289
    H           -1.913723621227    -0.460398593765     1.637041752805
    H           -2.427719127484    -0.993591421839     0.082765742767
    C           -2.865666635628     1.691786678545     0.203047390396
    H           -0.764652382049     1.494483574930     0.573362553209
    H           -1.261209252788     0.923427596814    -0.995277246362
    H           -3.161401752073     1.756849269840     1.244684465544
    H           -2.789961655237     2.701732931107    -0.182383896038
    H           -3.662456249246     1.190455052742    -0.336218649478
    C            2.425112259173     0.209332879832    -1.394686760964
    H            2.325471878015     1.243879838692    -1.101438364063
    H            2.530074402244     0.133778793811    -2.464909294480
    H            3.288372587930    -0.214669100660    -0.903778280299

  Mulliken Charges: (a.u.)
   Center  Symbol    Alpha    Beta     Spin     Total
       1     O     4.20797  4.20797  0.00000 -0.41594
       2     C     2.79262  2.79262  0.00000  0.41476
       3     C     3.09111  3.09111  0.00000 -0.18221
       4     O     4.15273  4.15273  0.00000 -0.30545
       5     C     3.09101  3.09101  0.00000 -0.18202
       6     H     0.44126  0.44126  0.00000  0.11747
       7     H     0.43811  0.43811  0.00000  0.12377
       8     C     3.09707  3.09707  0.00000 -0.19415
       9     H     0.44788  0.44788  0.00000  0.10424
      10     H     0.45128  0.45128  0.00000  0.09743
      11     C     3.15168  3.15168  0.00000 -0.30335
      12     H     0.44427  0.44427  0.00000  0.11146
      13     H     0.44733  0.44733  0.00000  0.10533
      14     H     0.45387  0.45387  0.00000  0.09226
      15     H     0.44718  0.44718  0.00000  0.10565
      16     H     0.45543  0.45543  0.00000  0.08915
      17     C     3.03998  3.03998  0.00000 -0.07996
      18     H     0.45369  0.45369  0.00000  0.09263
      19     H     0.44506  0.44506  0.00000  0.10989
      20     H     0.45048  0.45048  0.00000  0.09904

   Total alpha = 32.00000, Total beta = 32.00000, Total charge = -0.00000

*** Psi4 exiting successfully. Buy a developer a beer!
