  ==> Input File <==

--------------------------------------------------------------------------
set {
	reference rhf
	basis cc-pvtz
}

set_num_threads( 4 )
memory 2 gb

molecule MOL {
0 1

H	 1.486304	 1.236844	 0.401984
C	 0.848385	 0.440008	 0.000011
C	 -0.623497	 0.751021	 0.000090
O	 1.330006	 -0.566408	 -0.390388
C	 -1.523725	 -0.474323	 -0.000013
H	 -0.813143	 1.382932	 -0.864897
H	 -0.813071	 1.382716	 0.865253
H	 -1.342980	 -1.087348	 -0.873016
H	 -2.565269	 -0.177464	 0.000070
H	 -1.342898	 -1.087564	 0.872820

	symmetry c1
}
set optking {
	frozen_dihedral = ("
		4 2 3 6
	")
}

ee = optimize('scf')
oeprop('DIPOLE', 'QUADRUPOLE', 'MULLIKEN_CHARGES')
f=open( 'psi4out.xyz', 'w' )
f.write( "10  " )
f.write( str(ee) + "\n" )
f.write( MOL.save_string_xyz() )
f.close()
--------------------------------------------------------------------------

    Molecular point group: c1
  Charge       = 0
  Multiplicity = 1
  Basis Set: CC-PVTZ
  Basis Set:
  @DF-RHF Final Energy:  -192.02359405602505
    Total Energy =                       -192.0235940560249333
    Molecular point group: c1
  Basis Set: CC-PVTZ
  Basis Set:
  Basis Set: CC-PVTZ
  Basis Set:
  @DF-RHF Final Energy:  -192.02252194845533
    Total Energy =                       -192.0225219484552781
  Basis Set: CC-PVTZ
  Basis Set:
  Basis Set: CC-PVTZ
  Basis Set:
  @DF-RHF Final Energy:  -192.02381627147145
    Total Energy =                       -192.0238162714715031
  Basis Set: CC-PVTZ
  Basis Set:
  Charge       = 0
  Multiplicity = 1
  Basis Set: CC-PVTZ
  Basis Set:

    Orbital Energies (a.u.)
    -----------------------

    Doubly Occupied:

       1A    -20.553586     2A    -11.323593     3A    -11.239475
       4A    -11.218797     5A     -1.409245     6A     -1.061274
       7A     -0.910471     8A     -0.775547     9A     -0.686017
      10A     -0.639254    11A     -0.629573    12A     -0.547910
      13A     -0.535819    14A     -0.517928    15A     -0.495361
      16A     -0.416269

  @DF-RHF Final Energy:  -192.02390705785064

   => Energetics <=

    Nuclear Repulsion Energy =            119.2836252467915443
    One-Electron Energy =                -496.6948240274719524
    Two-Electron Energy =                 185.3872917228296728
    DFT Exchange-Correlation Energy =       0.0000000000000000
    Empirical Dispersion Energy =           0.0000000000000000
    PCM Polarization Energy =               0.0000000000000000
    EFP Energy =                            0.0000000000000000
    Total Energy =                       -192.0239070578507494
    Molecular point group: c1
  Basis Set: CC-PVTZ
  Basis Set:

  -Total Gradient:
     Atom            X                  Y                   Z
    ------   -----------------  -----------------  -----------------
       1        0.000080879489     0.000002079724     0.000016170085
       2       -0.000257541012    -0.001492743606     0.002743422923
       3        0.000520279728     0.002408704253     0.000325534102
       4        0.000119855503     0.000860425399    -0.002053431374
       5       -0.000032358093     0.000052472320     0.000125104270
       6       -0.000336407243    -0.001646830453    -0.001142690119
       7       -0.000033954005    -0.000067559108    -0.000030283291
       8       -0.000002127809     0.000032247059     0.000013800456
       9       -0.000004734936    -0.000044860040    -0.000015705086
      10       -0.000053891622    -0.000103935549     0.000018078035

  **** Optimization is complete! (in 4 steps) ****
    Final optimized geometry and variables:
    Molecular point group: c1

    Geometry (in Angstrom), charge = 0, multiplicity = 1:

    H            1.505606339031     1.233044784396     0.432062159563
    C            0.848546434198     0.420874619468     0.097763660410
    C           -0.624622220412     0.737014647060     0.119216108434
    O            1.313093256583    -0.596271076432    -0.285690188978
    C           -1.522437139453    -0.492679018802     0.088366713457
    H           -0.806637646011     1.354102850272    -0.759267411624
    H           -0.831589295335     1.363262969762     0.980824546000
    H           -1.318870691213    -1.096071240114    -0.785001349779
    H           -2.564485790862    -0.198513398981     0.068178059653
    H           -1.362594836403    -1.113115737423     0.961606361608

  Mulliken Charges: (a.u.)
   Center  Symbol    Alpha    Beta     Spin     Total
       1     H     0.45357  0.45357  0.00000  0.09286
       2     C     2.91624  2.91624  0.00000  0.16752
       3     C     3.08344  3.08344  0.00000 -0.16687
       4     O     4.16525  4.16525  0.00000 -0.33051
       5     C     3.14143  3.14143  0.00000 -0.28285
       6     H     0.44772  0.44772  0.00000  0.10456
       7     H     0.44836  0.44836  0.00000  0.10328
       8     H     0.44376  0.44376  0.00000  0.11247
       9     H     0.44937  0.44937  0.00000  0.10126
      10     H     0.45086  0.45086  0.00000  0.09829

   Total alpha = 16.00000, Total beta = 16.00000, Total charge =  0.00000
