                              Psi4 1.0.54 Driver

  ==> Input File <==

--------------------------------------------------------------------------
set {
	reference rhf
	basis cc-pvtz
}

set_num_threads( 4 )
memory 2 gb

molecule MOL {
0 1

H	 -2.149496	 -2.244167	 0.000000
O	 -2.454378	 -1.354528	 0.000000
C	 -1.430628	 -0.482077	 0.000000
C	 -1.635558	 0.744185	 0.615594
C	 -0.212794	 -0.766126	 -0.580877
H	 -2.589326	 0.945798	 1.061359
C	 -0.622989	 1.675640	 0.645709
H	 -0.040643	 -1.710758	 -1.060441
C	 0.798329	 0.184522	 -0.541788
H	 -0.789618	 2.621241	 1.123631
C	 0.605899	 1.407930	 0.067872
C	 2.069356	 -0.121062	 -1.152048
H	 1.395665	 2.130953	 0.089833
N	 3.062003	 -0.363304	 -1.630226

	symmetry c1
}
set optking {
	frozen_dihedral = ("
		5 3 2 1
	")
}

ee,wfn = optimize('scf', return_wfn=True)
oeprop( wfn, 'DIPOLE', 'QUADRUPOLE', 'MULLIKEN_CHARGES')
f=open( 'psi4out.xyz', 'w' )
f.write( "14  " )
f.write( str(ee) + "\n" )
f.write( MOL.save_string_xyz() )
f.close()
--------------------------------------------------------------------------

    Molecular point group: c1
  Charge       = 0
  Multiplicity = 1
  Basis Set: CC-PVTZ
  Basis Set:
  @DF-RHF Final Energy:  -397.43172562099261
    Total Energy =                       -397.4317256209923244
    Molecular point group: c1
  Basis Set: CC-PVTZ
  Basis Set:
  Basis Set: CC-PVTZ
  Basis Set:
  @DF-RHF Final Energy:  -397.43180004159416
    Total Energy =                       -397.4318000415942151
  Basis Set: CC-PVTZ
  Basis Set:
  Basis Set: CC-PVTZ
  Basis Set:
  @DF-RHF Final Energy:  -397.43189027602631
    Total Energy =                       -397.4318902760264791
  Basis Set: CC-PVTZ
  Basis Set:
  Charge       = 0
  Multiplicity = 1
  Basis Set: CC-PVTZ
  Basis Set:

    Orbital Energies (a.u.)
    -----------------------

    Doubly Occupied:

       1A    -20.603761     2A    -15.565670     3A    -11.323019
       4A    -11.292742     5A    -11.269156     6A    -11.261359
       7A    -11.260257     8A    -11.257217     9A    -11.252526
      10A     -1.435265    11A     -1.238660    12A     -1.187142
      13A     -1.066954    14A     -1.042660    15A     -0.898605
      16A     -0.870965    17A     -0.783087    18A     -0.728611
      19A     -0.702667    20A     -0.671193    21A     -0.631693
      22A     -0.626031    23A     -0.585241    24A     -0.565797
      25A     -0.554116    26A     -0.546736    27A     -0.525315
      28A     -0.480654    29A     -0.479397    30A     -0.367871
      31A     -0.344796

  @DF-RHF Final Energy:  -397.43189155903212

   => Energetics <=

    Nuclear Repulsion Energy =            380.4093576989251915
    One-Electron Energy =               -1292.8441700766206850
    Two-Electron Energy =                 515.0029208186632559
    DFT Exchange-Correlation Energy =       0.0000000000000000
    Empirical Dispersion Energy =           0.0000000000000000
    PCM Polarization Energy =               0.0000000000000000
    EFP Energy =                            0.0000000000000000
    Total Energy =                       -397.4318915590322376
    Molecular point group: c1
  Basis Set: CC-PVTZ
  Basis Set:

  -Total Gradient:
     Atom            X                  Y                   Z
    ------   -----------------  -----------------  -----------------
       1        0.000017345558    -0.000045037299     0.002272599139
       2       -0.000314049623     0.000530018918    -0.003650664121
       3        0.001019931837    -0.001352120606     0.002735866493
       4        0.000109790529     0.000253246101     0.000041590200
       5       -0.000794244621     0.000618688389    -0.001370798277
       6       -0.000011389155    -0.000021774470     0.000010957097
       7       -0.000286326426    -0.000056458652     0.000024382538
       8        0.000017664315     0.000006141952    -0.000001700972
       9        0.000038977591     0.000306539322    -0.000009458205
      10        0.000007086960    -0.000002044857    -0.000007779282
      11        0.000198659898    -0.000223656689    -0.000056751151
      12        0.000005708869    -0.000022959950     0.000027264314
      13       -0.000009558047     0.000010241840     0.000001446882
      14        0.000000402314    -0.000000823998    -0.000016954652

  **** Optimization is complete! (in 4 steps) ****
    Final optimized geometry and variables:
    Molecular point group: c1

    Geometry (in Angstrom), charge = 0, multiplicity = 1:

    H           -2.105635313250    -2.302932808948     0.241760902025
    O           -2.407798606765    -1.412600435963     0.269648784328
    C           -1.376616836441    -0.542865582672     0.295762842903
    C           -1.584890882699     0.687576695163     0.898054572957
    C           -0.163855286332    -0.823580617148    -0.297929626162
    H           -2.537751423813     0.889171564215     1.345873648670
    C           -0.576442673393     1.625899121679     0.913626839644
    H            0.000206184232    -1.765183411584    -0.785499596177
    C            0.846739107730     0.126516148074    -0.263330597643
    H           -0.744875590960     2.575608495174     1.382592357287
    C            0.651457205283     1.354726678082     0.338295395326
    C            2.116660025219    -0.178460829859    -0.875893830390
    H            1.439772752503     2.079698758811     0.353284867814
    N            3.108967648424    -0.420709850951    -1.354981673455

  Mulliken Charges: (a.u.)
   Center  Symbol    Alpha    Beta     Spin     Total
       1     H     0.38363  0.38363  0.00000  0.23275
       2     O     4.17349  4.17349  0.00000 -0.34698
       3     C     2.84934  2.84934  0.00000  0.30132
       4     C     3.10580  3.10580  0.00000 -0.21161
       5     C     3.14028  3.14028  0.00000 -0.28056
       6     H     0.41298  0.41298  0.00000  0.17405
       7     C     3.05189  3.05189  0.00000 -0.10378
       8     H     0.41916  0.41916  0.00000  0.16168
       9     C     2.92925  2.92925  0.00000  0.14150
      10     H     0.41665  0.41665  0.00000  0.16670
      11     C     3.10288  3.10288  0.00000 -0.20576
      12     C     3.02569  3.02569  0.00000 -0.05138
      13     H     0.41424  0.41424  0.00000  0.17153
      14     N     3.57473  3.57473  0.00000 -0.14946

   Total alpha = 31.00000, Total beta = 31.00000, Total charge =  0.00000

*** Psi4 exiting successfully. Buy a developer a beer!
