  ==> Input File <==

--------------------------------------------------------------------------
set {
	reference rhf
	basis cc-pvtz
}

set_num_threads( 4 )
memory 2 gb

molecule MOL {
0 1

H	 -2.644180	 -0.653737	 1.272255
C	 -2.092774	 -0.380414	 0.391915
O	 -0.808934	 -0.154049	 0.752536
F	 -2.163230	 -1.351640	 -0.507133
F	 -2.627232	 0.691260	 -0.169301
C	 0.085006	 0.250800	 -0.215074
C	 1.370439	 -0.548013	 -0.012993
Cl	 0.421658	 1.987697	 -0.091007
H	 -0.272219	 0.063284	 -1.212508
F	 2.162242	 0.063832	 0.830640
F	 1.998873	 -0.643301	 -1.160732
F	 1.139535	 -1.753845	 0.428487

	symmetry c1
}
set optking {
	frozen_dihedral = ("
		10 7 6 9
	")
}

ee = optimize('scf')
oeprop('DIPOLE', 'QUADRUPOLE', 'MULLIKEN_CHARGES')
f=open( 'psi4out.xyz', 'w' )
f.write( "12  " )
f.write( str(ee) + "\n" )
f.write( MOL.save_string_xyz() )
f.close()
--------------------------------------------------------------------------

    Molecular point group: c1
  Charge       = 0
  Multiplicity = 1
  Basis Set: CC-PVTZ
  Basis Set:
  @DF-RHF Final Energy: -1146.61501392928994
    Total Energy =                      -1146.6150139292892618
    Molecular point group: c1
  Basis Set: CC-PVTZ
  Basis Set:
  Basis Set: CC-PVTZ
  Basis Set:
  @DF-RHF Final Energy: -1146.61582991025580
    Total Energy =                      -1146.6158299102560250
  Basis Set: CC-PVTZ
  Basis Set:
  Basis Set: CC-PVTZ
  Basis Set:
  @DF-RHF Final Energy: -1146.61641401936845
    Total Energy =                      -1146.6164140193670846
  Basis Set: CC-PVTZ
  Basis Set:
  Basis Set: CC-PVTZ
  Basis Set:
  @DF-RHF Final Energy: -1146.61645586355758
    Total Energy =                      -1146.6164558635564390
  Basis Set: CC-PVTZ
  Basis Set:
  @DF-RHF Final Energy: -1146.61646380203683
    Total Energy =                      -1146.6164638020366056
  @DF-RHF Final Energy: -1146.61646798973607
    Total Energy =                      -1146.6164679897360656
  @DF-RHF Final Energy: -1146.61647079817567
    Total Energy =                      -1146.6164707981754418
  @DF-RHF Final Energy: -1146.61646872101460
    Total Energy =                      -1146.6164687210143711
  @DF-RHF Final Energy: -1146.61646989020437
    Total Energy =                      -1146.6164698902048258
  @DF-RHF Final Energy: -1146.61266386650391
    Total Energy =                      -1146.6126638665039081
  @DF-RHF Final Energy: -1146.61069919768670
    Total Energy =                      -1146.6106991976869267
  @DF-RHF Final Energy: -1146.61611927560989
    Total Energy =                      -1146.6161192756101173
  @DF-RHF Final Energy: -1146.61422555270951
    Total Energy =                      -1146.6142255527104226
  @DF-RHF Final Energy: -1146.61581199192096
    Total Energy =                      -1146.6158119919209639
  @DF-RHF Final Energy: -1146.61645820952185
    Total Energy =                      -1146.6164582095213973
  @DF-RHF Final Energy: -1146.61645880746892
    Total Energy =                      -1146.6164588074689163
  @DF-RHF Final Energy: -1146.61645717565170
    Total Energy =                      -1146.6164571756517034
  @DF-RHF Final Energy: -1146.61620880829923
    Total Energy =                      -1146.6162088082990067
  @DF-RHF Final Energy: -1146.61645913063057
    Total Energy =                      -1146.6164591306323928
  @DF-RHF Final Energy: -1146.61645275638625
    Total Energy =                      -1146.6164527563855700
  @DF-RHF Final Energy: -1146.56630670405593
    Total Energy =                      -1146.5663067040550231
  @DF-RHF Final Energy: -1146.59133535374986
    Total Energy =                      -1146.5913353537507646
  @DF-RHF Final Energy: -1146.60605966860930
    Total Energy =                      -1146.6060596686088502
  @DF-RHF Final Energy: -1146.61122521665720
    Total Energy =                      -1146.6112252166567487
  @DF-RHF Final Energy: -1146.61352984094242
    Total Energy =                      -1146.6135298409433290
  @DF-RHF Final Energy: -1146.61439813417246
    Total Energy =                      -1146.6143981341708695
  @DF-RHF Final Energy: -1146.61483573327541
    Total Energy =                      -1146.6148357332756405
  @DF-RHF Final Energy: -1146.61518879303185
    Total Energy =                      -1146.6151887930313933
  @DF-RHF Final Energy: -1146.61582836583830
    Total Energy =                      -1146.6158283658376149
  @DF-RHF Final Energy: -1146.61620854775106
    Total Energy =                      -1146.6162085477510573
  @DF-RHF Final Energy: -1146.61631058988564
    Total Energy =                      -1146.6163105898858703
  @DF-RHF Final Energy: -1146.61634634761185
    Total Energy =                      -1146.6163463476123070
  @DF-RHF Final Energy: -1146.61636501782323
    Total Energy =                      -1146.6163650178234548
  @DF-RHF Final Energy: -1146.61638060768018
    Total Energy =                      -1146.6163806076799574
  @DF-RHF Final Energy: -1146.61639446191089
    Total Energy =                      -1146.6163944619111135
  @DF-RHF Final Energy: -1146.61640666440121
    Total Energy =                      -1146.6164066644009836
  Basis Set: CC-PVTZ
  Basis Set:
  @DF-RHF Final Energy: -1146.61642055559787
    Total Energy =                      -1146.6164205555978697
  Basis Set: CC-PVTZ
  Basis Set:
  Basis Set: CC-PVTZ
  Basis Set:
  @DF-RHF Final Energy: -1146.61643742698607
    Total Energy =                      -1146.6164374269862947
  Basis Set: CC-PVTZ
  Basis Set:
  Basis Set: CC-PVTZ
  Basis Set:
  @DF-RHF Final Energy: -1146.61645469206860
    Total Energy =                      -1146.6164546920676912
  Basis Set: CC-PVTZ
  Basis Set:
  Charge       = 0
  Multiplicity = 1
  Basis Set: CC-PVTZ
  Basis Set:

    Orbital Energies (a.u.)
    -----------------------

    Doubly Occupied:

       1A   -104.855105     2A    -26.356050     3A    -26.353090
       4A    -26.352026     5A    -26.344036     6A    -26.343808
       7A    -20.641816     8A    -11.521414     9A    -11.484870
      10A    -11.401976    11A    -10.580676    12A     -8.047455
      13A     -8.045490    14A     -8.045392    15A     -1.768057
      16A     -1.725443    17A     -1.663893    18A     -1.659465
      19A     -1.645449    20A     -1.489035    21A     -1.176701
      22A     -1.050435    23A     -0.992230    24A     -0.924867
      25A     -0.863324    26A     -0.859480    27A     -0.852506
      28A     -0.831146    29A     -0.819957    30A     -0.794930
      31A     -0.735095    32A     -0.733370    33A     -0.711425
      34A     -0.708630    35A     -0.686121    36A     -0.679566
      37A     -0.665611    38A     -0.663605    39A     -0.650819
      40A     -0.637520    41A     -0.599209    42A     -0.580839
      43A     -0.524021    44A     -0.477885    45A     -0.468320

  @DF-RHF Final Energy: -1146.61646574829274

   => Energetics <=

    Nuclear Repulsion Energy =            736.8419058506578949
    One-Electron Energy =               -3056.8924366139726772
    Two-Electron Energy =                1173.4340650150220426
    DFT Exchange-Correlation Energy =       0.0000000000000000
    Empirical Dispersion Energy =           0.0000000000000000
    PCM Polarization Energy =               0.0000000000000000
    EFP Energy =                            0.0000000000000000
    Total Energy =                      -1146.6164657482927396
    Molecular point group: c1
  Basis Set: CC-PVTZ
  Basis Set:

  -Total Gradient:
     Atom            X                  Y                   Z
    ------   -----------------  -----------------  -----------------
       1        0.000075735054     0.000000612940    -0.000029280938
       2        0.000699698862     0.000035651717     0.000334388971
       3       -0.000523068210    -0.000477411468    -0.000340250381
       4       -0.000048722799    -0.000044466653     0.000101163729
       5       -0.000205953704     0.000218321077    -0.000251944385
       6       -0.003356047611    -0.004775108658     0.001227542898
       7       -0.003633308432    -0.003266129812     0.005720193444
       8       -0.000025801131    -0.000184266565    -0.000115692040
       9        0.003560799860     0.005476780515    -0.002127155401
      10        0.002976433304     0.003413945684    -0.004003372112
      11        0.000058658952    -0.000289273506    -0.000130763570
      12        0.000421575879    -0.000108655176    -0.000384830221

    Molecular point group: c1

    Geometry (in Angstrom), charge = 0, multiplicity = 1:

    H           -2.669292094561    -0.611274134548     1.294253299476
    C           -2.100209411047    -0.385682729404     0.411732891052
    O           -0.834592482809    -0.094933760581     0.787881308570
    F           -2.116832272312    -1.421365225205    -0.415508303491
    F           -2.648152219863     0.625967010160    -0.241172044020
    C            0.067679180861     0.268109210117    -0.183668169475
    C            1.365093111429    -0.541254403094    -0.011174906499
    CL           0.422153950660     2.008257395033    -0.095883345498
    H           -0.279322140761     0.112526509162    -1.188972910177
    F            2.199459972106    -0.016347224789     0.842833560666
    F            1.974240375824    -0.598097766674    -1.175903490089
    F            1.094901671645    -1.764076910799     0.360331818486

  Mulliken Charges: (a.u.)
   Center  Symbol    Alpha    Beta     Spin     Total
       1     H     0.45172  0.45172  0.00000  0.09656
       2     C     2.73843  2.73843  0.00000  0.52314
       3     O     4.15379  4.15379  0.00000 -0.30759
       4     F     4.61777  4.61777  0.00000 -0.23553
       5     F     4.61560  4.61560  0.00000 -0.23120
       6     C     2.94586  2.94586  0.00000  0.10828
       7     C     2.66611  2.66611  0.00000  0.66777
       8    CL     8.57353  8.57353  0.00000 -0.14706
       9     H     0.43193  0.43193  0.00000  0.13615
      10     F     4.59767  4.59767  0.00000 -0.19533
      11     F     4.60800  4.60800  0.00000 -0.21600
      12     F     4.59959  4.59959  0.00000 -0.19918

   Total alpha = 45.00000, Total beta = 45.00000, Total charge = -0.00000
