  ==> Input File <==

--------------------------------------------------------------------------
set {
	reference rhf
	basis 6-31G*
}

set_num_threads( 1 )
memory 2 gb

molecule MOL {
0 1

H	 1.324496	 -1.580511	 -0.157522
O	 1.586534	 -0.678666	 -0.000226
C	 0.489431	 0.077273	 0.000046
C	 -0.764129	 -0.759190	 0.000191
O	 0.537743	 1.263962	 0.000257
C	 -2.038368	 0.075731	 -0.000248
H	 -0.717284	 -1.412404	 -0.866059
H	 -0.717458	 -1.411724	 0.866967
H	 -2.086483	 0.712501	 -0.875098
H	 -2.908485	 -0.571682	 -0.000042
H	 -2.086576	 0.713280	 0.874068

	symmetry c1
}
set optking {
	frozen_dihedral = ("
		2 3 4 7
	")
}

ee = energy('scf')
oeprop('DIPOLE', 'QUADRUPOLE', 'MULLIKEN_CHARGES')
f=open( 'psi4out.xyz', 'w' )
f.write( "11  " )
f.write( str(ee) + "\n" )
f.write( MOL.save_string_xyz() )
f.close()
--------------------------------------------------------------------------

    Molecular point group: c1

    Geometry (in Angstrom), charge = 0, multiplicity = 1:

       Center              X                  Y                   Z               Mass
    ------------   -----------------  -----------------  -----------------  -----------------
           H          1.338370573583    -1.560375122215    -0.155380415008     1.007825032070
           O          1.600408573583    -0.658530122215     0.001915584992    15.994914619560
           C          0.503305573583     0.097408877785     0.002187584992    12.000000000000
           C         -0.750254426417    -0.739054122215     0.002332584992    12.000000000000
           O          0.551617573583     1.284097877785     0.002398584992    15.994914619560
           C         -2.024493426417     0.095866877785     0.001893584992    12.000000000000
           H         -0.703409426417    -1.392268122215    -0.863917415008     1.007825032070
           H         -0.703583426417    -1.391588122215     0.869108584992     1.007825032070
           H         -2.072608426417     0.732636877785    -0.872956415008     1.007825032070
           H         -2.894610426417    -0.551546122215     0.002099584992     1.007825032070
           H         -2.072701426417     0.733415877785     0.876209584992     1.007825032070

  Charge       = 0
  Multiplicity = 1
  Basis Set: 6-31G*
  Basis Set:

    Orbital Energies (a.u.)
    -----------------------

    Doubly Occupied:

       1A    -20.616584     2A    -20.550487     3A    -11.382207
       4A    -11.256779     5A    -11.227890     6A     -1.472373
       7A     -1.372021     8A     -1.072772     9A     -0.911427
      10A     -0.828229    11A     -0.719753    12A     -0.670906
      13A     -0.661372    14A     -0.612794    15A     -0.597277
      16A     -0.537342    17A     -0.528924    18A     -0.515684
      19A     -0.477130    20A     -0.442729

  @DF-RHF Final Energy:  -266.83310201460091

   => Energetics <=

    Nuclear Repulsion Energy =            180.0916232475448737
    One-Electron Energy =                -720.9400669486989273
    Two-Electron Energy =                 274.0153416865537110
    DFT Exchange-Correlation Energy =       0.0000000000000000
    Empirical Dispersion Energy =           0.0000000000000000
    PCM Polarization Energy =               0.0000000000000000
    EFP Energy =                            0.0000000000000000
    Total Energy =                       -266.8331020146003993

  Mulliken Charges: (a.u.)
   Center  Symbol    Alpha    Beta     Spin     Total
       1     H     0.26736  0.26736  0.00000  0.46528
       2     O     4.34762  4.34762  0.00000 -0.69524
       3     C     2.60495  2.60495  0.00000  0.79009
       4     C     3.24076  3.24076  0.00000 -0.48151
       5     O     4.26796  4.26796  0.00000 -0.53593
       6     C     3.23751  3.23751  0.00000 -0.47502
       7     H     0.40575  0.40575  0.00000  0.18849
       8     H     0.40022  0.40022  0.00000  0.19956
       9     H     0.40582  0.40582  0.00000  0.18835
      10     H     0.41685  0.41685  0.00000  0.16630
      11     H     0.40519  0.40519  0.00000  0.18962

   Total alpha = 20.00000, Total beta = 20.00000, Total charge =  0.00000
