  ==> Input File <==

--------------------------------------------------------------------------
set {
	reference rhf
	basis cc-pvtz
}

set_num_threads( 4 )
memory 2 gb

molecule MOL {
0 1

O	 0.074770	 1.259872	 0.000487
C	 0.029490	 0.077183	 0.000078
C	 -1.232113	 -0.748027	 0.000015
O	 1.106773	 -0.690081	 -0.000204
C	 -2.501422	 0.088592	 -0.000052
H	 -1.188777	 -1.400384	 -0.865133
H	 -1.188857	 -1.400312	 0.865225
H	 -2.548170	 0.725504	 -0.873205
H	 -3.371613	 -0.556398	 -0.000040
H	 -2.548215	 0.725571	 0.873047
C	 1.999414	 -0.554904	 -1.087660
H	 1.504626	 -0.789590	 -2.018435
H	 2.799444	 -1.253742	 -0.904897
H	 2.387841	 0.451441	 -1.139036

	symmetry c1
}
set optking {
	frozen_dihedral = ("
		11 4 2 3
	")
}

ee = optimize('scf')
oeprop('DIPOLE', 'QUADRUPOLE', 'MULLIKEN_CHARGES')
f=open( 'psi4out.xyz', 'w' )
f.write( "14  " )
f.write( str(ee) + "\n" )
f.write( MOL.save_string_xyz() )
f.close()
--------------------------------------------------------------------------

    Molecular point group: c1
  Charge       = 0
  Multiplicity = 1
  Basis Set: CC-PVTZ
  Basis Set:
  @DF-RHF Final Energy:  -305.97316322988502
    Total Energy =                       -305.9731632298852446
    Molecular point group: c1
  Basis Set: CC-PVTZ
  Basis Set:
  Basis Set: CC-PVTZ
  Basis Set:
  @DF-RHF Final Energy:  -305.97223216764394
    Total Energy =                       -305.9722321676438241
  Basis Set: CC-PVTZ
  Basis Set:
  Basis Set: CC-PVTZ
  Basis Set:
  @DF-RHF Final Energy:  -305.97380317221064
    Total Energy =                       -305.9738031722104665
  Basis Set: CC-PVTZ
  Basis Set:
  Basis Set: CC-PVTZ
  Basis Set:
  @DF-RHF Final Energy:  -305.97400313535786
    Total Energy =                       -305.9740031353579752
  Basis Set: CC-PVTZ
  Basis Set:
  Basis Set: CC-PVTZ
  Basis Set:
  @DF-RHF Final Energy:  -305.97401500199004
    Total Energy =                       -305.9740150019901535
  Basis Set: CC-PVTZ
  Basis Set:
  Charge       = 0
  Multiplicity = 1
  Basis Set: CC-PVTZ
  Basis Set:

    Orbital Energies (a.u.)
    -----------------------

    Doubly Occupied:

       1A    -20.582557     2A    -20.543278     3A    -11.368009
       4A    -11.284896     5A    -11.240178     6A    -11.216778
       7A     -1.465000     8A     -1.368867     9A     -1.064788
      10A     -0.977267    11A     -0.887348    12A     -0.767669
      13A     -0.702705    14A     -0.679803    15A     -0.675200
      16A     -0.621142    17A     -0.613084    18A     -0.556359
      19A     -0.542254    20A     -0.523628    21A     -0.511234
      22A     -0.498119    23A     -0.458767    24A     -0.440165

  @DF-RHF Final Energy:  -305.97401582196392

   => Energetics <=

    Nuclear Repulsion Energy =            247.0931326547598985
    One-Electron Energy =                -906.9561063850529763
    Two-Electron Energy =                 353.8889579083293029
    DFT Exchange-Correlation Energy =       0.0000000000000000
    Empirical Dispersion Energy =           0.0000000000000000
    PCM Polarization Energy =               0.0000000000000000
    EFP Energy =                            0.0000000000000000
    Total Energy =                       -305.9740158219638033
    Molecular point group: c1
  Basis Set: CC-PVTZ
  Basis Set:

  -Total Gradient:
     Atom            X                  Y                   Z
    ------   -----------------  -----------------  -----------------
       1        0.000014069892    -0.000032438148     0.000181922032
       2       -0.001850573462    -0.001845007720     0.006841961463
       3        0.000318660734    -0.000340925414    -0.006101347702
       4        0.004900580331     0.007234498065     0.002447847033
       5        0.000010851206     0.000020007111    -0.000013988664
       6       -0.000015432100    -0.000019565311     0.000000851055
       7        0.000022255429     0.000012640006    -0.000012480846
       8       -0.000009983494    -0.000001571055     0.000006664131
       9        0.000000432003     0.000003420749    -0.000003945765
      10        0.000005950172     0.000002228948     0.000001527890
      11       -0.003453223180    -0.005031059929    -0.003384026473
      12        0.000056692244     0.000022756953    -0.000000874040
      13        0.000005047322    -0.000010170725     0.000033783095
      14       -0.000005327094    -0.000014813529     0.000002106791

  **** Optimization is complete! (in 6 steps) ****
    Final optimized geometry and variables:
    Molecular point group: c1

    Geometry (in Angstrom), charge = 0, multiplicity = 1:

    O            0.129513212881     1.347685447794     0.067352856599
    C            0.083360510740     0.175025416485     0.175586770889
    C           -1.178568226187    -0.645697053763     0.181271763024
    O            1.185786037247    -0.588754594276     0.236051690634
    C           -2.451916494919     0.180034410528     0.262858861776
    H           -1.148930359195    -1.236522195624    -0.730021635873
    H           -1.110063307112    -1.359513754653     0.994174765581
    H           -2.520995125993     0.871927275280    -0.565379090927
    H           -3.319595087022    -0.467958704453     0.242683264775
    H           -2.480933828717     0.758556066575     1.177090098840
    C            2.094925608699    -0.482191594199    -0.839288147036
    H            1.632154627753    -0.823262227883    -1.758101193719
    H            2.929310947611    -1.121823206943    -0.601717780415
    H            2.435378508751     0.535753732680    -0.959587447855

  Mulliken Charges: (a.u.)
   Center  Symbol    Alpha    Beta     Spin     Total
       1     O     4.17859  4.17859  0.00000 -0.35718
       2     C     2.79490  2.79490  0.00000  0.41020
       3     C     3.09672  3.09672  0.00000 -0.19344
       4     O     4.16580  4.16580  0.00000 -0.33160
       5     C     3.13977  3.13977  0.00000 -0.27955
       6     H     0.44626  0.44626  0.00000  0.10749
       7     H     0.43848  0.43848  0.00000  0.12305
       8     H     0.44705  0.44705  0.00000  0.10590
       9     H     0.45042  0.45042  0.00000  0.09916
      10     H     0.44864  0.44864  0.00000  0.10272
      11     C     3.03496  3.03496  0.00000 -0.06991
      12     H     0.46628  0.46628  0.00000  0.06744
      13     H     0.44500  0.44500  0.00000  0.11000
      14     H     0.44714  0.44714  0.00000  0.10572

   Total alpha = 24.00000, Total beta = 24.00000, Total charge =  0.00000
