                              Psi4 1.0.54 Driver

  ==> Input File <==

--------------------------------------------------------------------------
set {
	reference rhf
	basis cc-pvtz
}

set_num_threads( 4 )
memory 2 gb

molecule MOL {
0 1

H	 -3.096524	 0.513502	 1.947632
O	 -2.250346	 0.792831	 1.650990
C	 -2.021813	 0.336996	 0.342658
C	 -0.669613	 0.837286	 -0.127252
H	 -2.037118	 -0.749600	 0.314396
H	 -2.802208	 0.695021	 -0.326061
C	 0.490865	 -0.082543	 0.241244
H	 -0.708709	 0.967192	 -1.204587
H	 -0.507562	 1.822272	 0.303070
C	 1.839800	 0.429565	 -0.255472
H	 0.305636	 -1.070211	 -0.165276
H	 0.527397	 -0.195943	 1.322876
C	 3.001144	 -0.485193	 0.119072
H	 1.804373	 0.541073	 -1.335756
H	 2.020437	 1.423114	 0.146921
H	 2.866892	 -1.477297	 -0.298806
H	 3.943543	 -0.095749	 -0.249061
H	 3.085064	 -0.590459	 1.195790

	symmetry c1
}
set optking {
	frozen_dihedral = ("
		2 3 4 8
	")
}

ee,wfn = optimize('scf', return_wfn=True)
oeprop( wfn, 'DIPOLE', 'QUADRUPOLE', 'MULLIKEN_CHARGES')
f=open( 'psi4out.xyz', 'w' )
f.write( "18  " )
f.write( str(ee) + "\n" )
f.write( MOL.save_string_xyz() )
f.close()
--------------------------------------------------------------------------

    Molecular point group: c1
  Charge       = 0
  Multiplicity = 1
  Basis Set: CC-PVTZ
  Basis Set:
  @DF-RHF Final Energy:  -271.28452964740734
    Total Energy =                       -271.2845296474071120
    Molecular point group: c1
  Basis Set: CC-PVTZ
  Basis Set:
  Basis Set: CC-PVTZ
  Basis Set:
  @DF-RHF Final Energy:  -271.28486136874767
    Total Energy =                       -271.2848613687476700
  Basis Set: CC-PVTZ
  Basis Set:
  Basis Set: CC-PVTZ
  Basis Set:
  @DF-RHF Final Energy:  -271.28494675990316
    Total Energy =                       -271.2849467599029367
  Basis Set: CC-PVTZ
  Basis Set:
  Basis Set: CC-PVTZ
  Basis Set:
  @DF-RHF Final Energy:  -271.28495440929794
    Total Energy =                       -271.2849544092980523
  Basis Set: CC-PVTZ
  Basis Set:
  Charge       = 0
  Multiplicity = 1
  Basis Set: CC-PVTZ
  Basis Set:

    Orbital Energies (a.u.)
    -----------------------

    Doubly Occupied:

       1A    -20.545841     2A    -11.265652     3A    -11.210398
       4A    -11.209626     5A    -11.208094     6A    -11.204091
       7A     -1.363110     8A     -1.077770     9A     -1.010176
      10A     -0.914601    11A     -0.819729    12A     -0.787776
      13A     -0.707839    14A     -0.636930    15A     -0.633470
      16A     -0.581003    17A     -0.572335    18A     -0.560557
      19A     -0.526848    20A     -0.499364    21A     -0.488720
      22A     -0.470867    23A     -0.461227    24A     -0.453790
      25A     -0.428697

  @DF-RHF Final Energy:  -271.28495517890326

   => Energetics <=

    Nuclear Repulsion Energy =            248.1102026270724252
    One-Electron Energy =                -859.5132921602569240
    Two-Electron Energy =                 340.1181343542814943
    DFT Exchange-Correlation Energy =       0.0000000000000000
    Empirical Dispersion Energy =           0.0000000000000000
    PCM Polarization Energy =               0.0000000000000000
    EFP Energy =                            0.0000000000000000
    Total Energy =                       -271.2849551789029761
    Molecular point group: c1
  Basis Set: CC-PVTZ
  Basis Set:

  -Total Gradient:
     Atom            X                  Y                   Z
    ------   -----------------  -----------------  -----------------
       1       -0.000004198937     0.000016490401     0.000048443988
       2       -0.001505359212     0.002784747969    -0.001232262221
       3        0.001627130554    -0.002682683117     0.001646260691
       4        0.001139805747    -0.004437996333    -0.001034276291
       5       -0.000010970526     0.000017582062     0.000002812924
       6       -0.000012068511     0.000006084117     0.000031551067
       7       -0.000020575558     0.000046864962    -0.000008063106
       8       -0.001236143942     0.004191901635     0.000523106818
       9        0.000016426289     0.000027640474     0.000011501778
      10        0.000015462924     0.000007789407     0.000035122928
      11       -0.000023971145     0.000018584973     0.000010838545
      12       -0.000005793194     0.000012083093    -0.000011288663
      13        0.000013598786    -0.000003476444    -0.000035507220
      14        0.000005562521    -0.000000794071     0.000015113126
      15        0.000008341740    -0.000004243907     0.000002986667
      16        0.000000361055    -0.000002134682     0.000008356279
      17       -0.000001339356    -0.000011562309    -0.000006360647
      18       -0.000006269242     0.000013121771    -0.000008336665

  **** Optimization is complete! (in 5 steps) ****
    Final optimized geometry and variables:
    Molecular point group: c1

    Geometry (in Angstrom), charge = 0, multiplicity = 1:

    H           -2.994759677236     0.158064482184     1.679176796481
    O           -2.213575857442     0.514070390728     1.298004908198
    C           -2.049677038121     0.030411428241    -0.011627090505
    C           -0.700708320319     0.497872231512    -0.537160795412
    H           -2.111291685073    -1.055086177735    -0.031814077520
    H           -2.844455071673     0.415379595493    -0.645033322127
    C            0.464933832553    -0.404677172575    -0.148898325890
    H           -0.758477002306     0.618687647235    -1.615033198068
    H           -0.536632325151     1.495480309017    -0.141522949250
    C            1.820471919208     0.133694398172    -0.596257426692
    H            0.313082106826    -1.392635733479    -0.578090128553
    H            0.465663574816    -0.533888199342     0.929458321521
    C            2.982003884799    -0.779251121492    -0.218155283715
    H            1.812399277782     0.278379894894    -1.673500571862
    H            1.977064659417     1.115616639026    -0.158670772886
    H            2.872146880906    -1.760064093968    -0.669071468856
    H            3.929096301959    -0.368233345706    -0.548578705216
    H            3.037441297473    -0.915599127019     0.856703063889

  Mulliken Charges: (a.u.)
   Center  Symbol    Alpha    Beta     Spin     Total
       1     H     0.39516  0.39516  0.00000  0.20968
       2     O     4.19997  4.19997  0.00000 -0.39994
       3     C     2.97005  2.97005  0.00000  0.05991
       4     C     3.09063  3.09063  0.00000 -0.18126
       5     H     0.47527  0.47527  0.00000  0.04946
       6     H     0.46723  0.46723  0.00000  0.06554
       7     C     3.08853  3.08853  0.00000 -0.17706
       8     H     0.45228  0.45228  0.00000  0.09544
       9     H     0.45062  0.45062  0.00000  0.09876
      10     C     3.08450  3.08450  0.00000 -0.16900
      11     H     0.45837  0.45837  0.00000  0.08326
      12     H     0.44872  0.44872  0.00000  0.10257
      13     C     3.14991  3.14991  0.00000 -0.29982
      14     H     0.45617  0.45617  0.00000  0.08767
      15     H     0.45303  0.45303  0.00000  0.09393
      16     H     0.45606  0.45606  0.00000  0.08788
      17     H     0.44890  0.44890  0.00000  0.10220
      18     H     0.45461  0.45461  0.00000  0.09078

   Total alpha = 25.00000, Total beta = 25.00000, Total charge = -0.00000

*** Psi4 exiting successfully. Buy a developer a beer!
