  ==> Input File <==

--------------------------------------------------------------------------
set {
	reference rhf
	basis 6-31G*
}

set_num_threads( 4 )
memory 2 gb

molecule MOL {
0 1

H	 -0.367348	 2.047014	 -0.308205
C	 0.352277	 1.337084	 0.083769
N	 -0.000016	 0.000074	 -0.335546
H	 1.328359	 1.600444	 -0.307950
H	 0.381933	 1.450534	 1.172486
C	 1.045594	 -0.952074	 -0.038252
C	 -1.276478	 -0.415111	 0.199639
H	 0.777435	 -1.926850	 -0.429727
H	 1.969762	 -0.643999	 -0.514138
H	 1.235680	 -1.058144	 1.034827
H	 -2.047340	 0.284726	 -0.102643
H	 -1.539722	 -1.391144	 -0.192153
H	 -1.283309	 -0.475353	 1.292915

	symmetry c1
}
set optking {
	frozen_dihedral = ("
		6 3 2 1
	")
}

ee = optimize('scf')
oeprop('DIPOLE', 'QUADRUPOLE', 'MULLIKEN_CHARGES')
f=open( 'psi4out.xyz', 'w' )
f.write( "13  " )
f.write( str(ee) + "\n" )
f.write( MOL.save_string_xyz() )
f.close()
--------------------------------------------------------------------------

    Molecular point group: c1
  Charge       = 0
  Multiplicity = 1
  Basis Set: 6-31G*
  Basis Set:
  @DF-RHF Final Energy:  -173.26903945721594
    Total Energy =                       -173.2690394572160244
    Molecular point group: c1
  Basis Set: 6-31G*
  Basis Set:
  Basis Set: 6-31G*
  Basis Set:
  @DF-RHF Final Energy:  -173.26906833984381
    Total Energy =                       -173.2690683398437557
  Basis Set: 6-31G*
  Basis Set:
  Charge       = 0
  Multiplicity = 1
  Basis Set: 6-31G*
  Basis Set:

    Orbital Energies (a.u.)
    -----------------------

    Doubly Occupied:

       1A    -15.543322     2A    -11.235867     3A    -11.235798
       4A    -11.235753     5A     -1.224971     6A     -0.951891
       7A     -0.951674     8A     -0.806027     9A     -0.641482
      10A     -0.630638    11A     -0.630215    12A     -0.545020
      13A     -0.543615    14A     -0.517012    15A     -0.501600
      16A     -0.501445    17A     -0.345663

  @DF-RHF Final Energy:  -173.26907120989401

   => Energetics <=

    Nuclear Repulsion Energy =            139.2270007350770982
    One-Electron Energy =                -508.9081591652546877
    Two-Electron Energy =                 196.4120872202835812
    DFT Exchange-Correlation Energy =       0.0000000000000000
    Empirical Dispersion Energy =           0.0000000000000000
    PCM Polarization Energy =               0.0000000000000000
    EFP Energy =                            0.0000000000000000
    Total Energy =                       -173.2690712098939798
    Molecular point group: c1
  Basis Set: 6-31G*
  Basis Set:

  -Total Gradient:
     Atom            X                  Y                   Z
    ------   -----------------  -----------------  -----------------
       1        0.000797491452     0.000115907243    -0.001247180202
       2       -0.000748403984    -0.000092753018     0.001197172906
       3       -0.000429674984    -0.000192889512     0.000938474840
       4       -0.000035329675     0.000014009296    -0.000006626190
       5        0.000014333009    -0.000016029215     0.000012603414
       6        0.000555733898     0.000162263762    -0.000881905005
       7       -0.000063910065    -0.000096382376     0.000076634254
       8       -0.000054934232     0.000047601848    -0.000021009494
       9       -0.000030904515     0.000023818856    -0.000020126007
      10       -0.000014458011     0.000002278667    -0.000014781885
      11        0.000030948553     0.000011212648    -0.000015552993
      12       -0.000014644469     0.000011641712    -0.000008230637
      13       -0.000006246976     0.000009320090    -0.000009473000

  **** Optimization is complete! (in 3 steps) ****
    Final optimized geometry and variables:
    Molecular point group: c1

    Geometry (in Angstrom), charge = 0, multiplicity = 1:

    H           -0.407433351707     2.052752484133    -0.305532930392
    C            0.317253011155     1.347213699122     0.085833606626
    N           -0.030146930986     0.007089571037    -0.327927979322
    H            1.285776843062     1.615664440445    -0.320553673897
    H            0.362704572266     1.464176187416     1.173221518861
    C            1.015712420544    -0.945908368444    -0.035595464814
    C           -1.310877245059    -0.406723164220     0.196367397521
    H            0.743034640987    -1.919946258805    -0.425961431787
    H            1.937228572294    -0.639392806786    -0.517171470960
    H            1.212107914682    -1.054046269322     1.036206310299
    H           -2.076687191782     0.298388339279    -0.107039882413
    H           -1.575987936153    -1.379467902033    -0.202358299141
    H           -1.324872299269    -0.472123981738     1.289246157630

  Mulliken Charges: (a.u.)
   Center  Symbol    Alpha    Beta     Spin     Total
       1     H     0.41635  0.41635  0.00000  0.16729
       2     C     3.14259  3.14259  0.00000 -0.28518
       3     N     3.76665  3.76665  0.00000 -0.53331
       4     H     0.41740  0.41740  0.00000  0.16521
       5     H     0.43479  0.43479  0.00000  0.13043
       6     C     3.14223  3.14223  0.00000 -0.28447
       7     C     3.14239  3.14239  0.00000 -0.28478
       8     H     0.41695  0.41695  0.00000  0.16610
       9     H     0.41670  0.41670  0.00000  0.16660
      10     H     0.43527  0.43527  0.00000  0.12946
      11     H     0.41683  0.41683  0.00000  0.16635
      12     H     0.41677  0.41677  0.00000  0.16646
      13     H     0.43508  0.43508  0.00000  0.12984

   Total alpha = 17.00000, Total beta = 17.00000, Total charge = -0.00000
