  ==> Input File <==

--------------------------------------------------------------------------
set {
	reference rhf
	basis 6-31G*
}

set_num_threads( 4 )
memory 2 gb

molecule MOL {
0 1

H	 3.893188	 0.355400	 -0.101367
N	 3.092854	 -0.246221	 -0.068770
C	 1.865559	 0.531981	 0.018834
H	 3.199514	 -0.826043	 0.741946
C	 0.645745	 -0.382037	 -0.029944
H	 1.841966	 1.207024	 -0.831236
H	 1.815756	 1.155410	 0.915079
C	 -0.679275	 0.379305	 0.025956
H	 0.698998	 -0.976915	 -0.937203
H	 0.693479	 -1.083846	 0.802235
C	 -1.833605	 -0.370156	 -0.642030
H	 -0.558447	 1.349429	 -0.453742
H	 -0.938906	 0.583361	 1.063646
C	 -3.154736	 0.396094	 -0.587408
H	 -1.577012	 -0.573971	 -1.679254
H	 -1.958432	 -1.338983	 -0.163024
H	 -3.071977	 1.356394	 -1.088696
H	 -3.952839	 -0.160291	 -1.069146
H	 -3.456411	 0.585246	 0.439044

	symmetry c1
}
set optking {
	frozen_dihedral = ("
		12 8 5 9
	")
}

ee = optimize('scf')
oeprop('DIPOLE', 'QUADRUPOLE', 'MULLIKEN_CHARGES')
f=open( 'psi4out.xyz', 'w' )
f.write( "19  " )
f.write( str(ee) + "\n" )
f.write( MOL.save_string_xyz() )
f.close()
--------------------------------------------------------------------------

    Molecular point group: c1
  Charge       = 0
  Multiplicity = 1
  Basis Set: 6-31G*
  Basis Set:
  @DF-RHF Final Energy:  -251.34962675526072
    Total Energy =                       -251.3496267552608856
    Molecular point group: c1
  Basis Set: 6-31G*
  Basis Set:
  Basis Set: 6-31G*
  Basis Set:
  @DF-RHF Final Energy:  -251.34982764390384
    Total Energy =                       -251.3498276439037227
  Basis Set: 6-31G*
  Basis Set:
  Basis Set: 6-31G*
  Basis Set:
  @DF-RHF Final Energy:  -251.34987517807494
    Total Energy =                       -251.3498751780749672
  Basis Set: 6-31G*
  Basis Set:
  Basis Set: 6-31G*
  Basis Set:
  @DF-RHF Final Energy:  -251.34988814333056
    Total Energy =                       -251.3498881433306451
  Basis Set: 6-31G*
  Basis Set:
  Basis Set: 6-31G*
  Basis Set:
  @DF-RHF Final Energy:  -251.34989028297841
    Total Energy =                       -251.3498902829785493
  Basis Set: 6-31G*
  Basis Set:
  Charge       = 0
  Multiplicity = 1
  Basis Set: 6-31G*
  Basis Set:

    Orbital Energies (a.u.)
    -----------------------

    Doubly Occupied:

       1A    -15.532604     2A    -11.240221     3A    -11.214107
       4A    -11.212676     5A    -11.209333     6A    -11.207414
       7A     -1.176811     8A     -1.072254     9A     -0.998078
      10A     -0.900368    11A     -0.814184    12A     -0.789548
      13A     -0.662871    14A     -0.639286    15A     -0.620096
      16A     -0.585622    17A     -0.568452    18A     -0.549123
      19A     -0.526237    20A     -0.502099    21A     -0.479332
      22A     -0.466261    23A     -0.456375    24A     -0.450924
      25A     -0.381058

  @DF-RHF Final Energy:  -251.34989063202480

   => Energetics <=

    Nuclear Repulsion Energy =            245.6200361253951598
    One-Electron Energy =                -825.4291846647970488
    Two-Electron Energy =                 328.4592579073771503
    DFT Exchange-Correlation Energy =       0.0000000000000000
    Empirical Dispersion Energy =           0.0000000000000000
    PCM Polarization Energy =               0.0000000000000000
    EFP Energy =                            0.0000000000000000
    Total Energy =                       -251.3498906320247670
    Molecular point group: c1
  Basis Set: 6-31G*
  Basis Set:

  -Total Gradient:
     Atom            X                  Y                   Z
    ------   -----------------  -----------------  -----------------
       1        0.000003511473    -0.000002326892    -0.000000409144
       2        0.000016091544     0.000008519465    -0.000012283894
       3       -0.000004118134    -0.000022185387     0.000036930396
       4       -0.000003088868     0.000002975992    -0.000001546779
       5        0.002195230419     0.003898241942    -0.001471177689
       6       -0.000006996846    -0.000011066581     0.000003915290
       7        0.000009874358     0.000010552895     0.000002769328
       8       -0.001597801534    -0.002532228991    -0.003570745962
       9       -0.001570681139    -0.002847209433     0.001782024114
      10        0.000022775934     0.000011736521     0.000002062474
      11       -0.000007246995     0.000009640610     0.000022446509
      12        0.000973250457     0.001487042301     0.003214341075
      13       -0.000017071635    -0.000009424094    -0.000008914831
      14       -0.000010723197    -0.000007424898    -0.000003193884
      15        0.000007692116     0.000008232200     0.000008525243
      16       -0.000007332853    -0.000005921434    -0.000003556530
      17        0.000002130692    -0.000002420293    -0.000000673699
      18       -0.000005953895     0.000003181161     0.000000402037
      19        0.000000458110     0.000000084915    -0.000000914051

  **** Optimization is complete! (in 6 steps) ****
    Final optimized geometry and variables:
    Molecular point group: c1

    Geometry (in Angstrom), charge = 0, multiplicity = 1:

    H            3.883736840159     0.276879367418     0.198138843861
    N            3.076648654055    -0.316476235955     0.205585048887
    C            1.854723275088     0.474072434544     0.216337079723
    H            3.138465317793    -0.879513732130     1.032584900047
    C            0.629740314176    -0.427171532537     0.124255123981
    H            1.879079905230     1.132293242977    -0.646706930766
    H            1.765249904036     1.116121333823     1.096604916704
    C           -0.698041899355     0.340151665616     0.175296726717
    H            0.691524748793    -1.028337399780    -0.778365418153
    H            0.655006291575    -1.142623883555     0.945761223337
    C           -1.867310947647    -0.419222548659    -0.451206122502
    H           -0.583975809467     1.310807655515    -0.305617807089
    H           -0.937189915766     0.567221750715     1.213087562173
    C           -3.196374528343     0.325678214312    -0.335154703722
    H           -1.649256095026    -0.609849565512    -1.499516724637
    H           -1.956689045360    -1.394452755683     0.023191323679
    H           -3.146668374713     1.294081659637    -0.825208831516
    H           -4.003947864890    -0.235986880945    -0.794528225374
    H           -3.461551502261     0.495838630617     0.704567015639

  Mulliken Charges: (a.u.)
   Center  Symbol    Alpha    Beta     Spin     Total
       1     H     0.33242  0.33242  0.00000  0.33515
       2     N     3.92200  3.92200  0.00000 -0.84400
       3     C     3.06132  3.06132  0.00000 -0.12264
       4     H     0.33526  0.33526  0.00000  0.32948
       5     C     3.15200  3.15200  0.00000 -0.30401
       6     H     0.42044  0.42044  0.00000  0.15912
       7     H     0.43451  0.43451  0.00000  0.13098
       8     C     3.15600  3.15600  0.00000 -0.31199
       9     H     0.41290  0.41290  0.00000  0.17420
      10     H     0.42683  0.42683  0.00000  0.14634
      11     C     3.15145  3.15145  0.00000 -0.30289
      12     H     0.42402  0.42402  0.00000  0.15195
      13     H     0.42377  0.42377  0.00000  0.15247
      14     C     3.23968  3.23968  0.00000 -0.47937
      15     H     0.42151  0.42151  0.00000  0.15698
      16     H     0.42261  0.42261  0.00000  0.15478
      17     H     0.42186  0.42186  0.00000  0.15629
      18     H     0.41929  0.41929  0.00000  0.16143
      19     H     0.42214  0.42214  0.00000  0.15573

   Total alpha = 25.00000, Total beta = 25.00000, Total charge =  0.00000
