  ==> Input File <==

--------------------------------------------------------------------------
set {
	reference rhf
	basis cc-pvtz
}

set_num_threads( 4 )
memory 2 gb

molecule MOL {
0 1

H	 -0.000342	 -0.223902	 -3.352295
C	 -0.027146	 0.371068	 -2.446756
C	 0.024493	 -0.518541	 -1.216015
H	 -0.932586	 0.964979	 -2.449855
H	 0.819708	 1.049865	 -2.473332
N	 -0.042516	 0.263377	 -0.000000
H	 -0.822211	 -1.197105	 -1.225584
H	 0.921114	 -1.142847	 -1.255206
C	 0.024493	 -0.518541	 1.216015
H	 0.682568	 0.950412	 -0.000000
C	 1.194522	 -1.487469	 1.184365
H	 0.145657	 0.166298	 2.048940
H	 -0.900643	 -1.070563	 1.402074
H	 2.127027	 -0.954421	 1.047047
H	 1.251156	 -2.051782	 2.107973
H	 1.090851	 -2.197909	 0.370017

	symmetry c1
}
set optking {
	frozen_dihedral = ("
		12 9 6 3
	")
}

ee = optimize('scf')
oeprop('DIPOLE', 'QUADRUPOLE', 'MULLIKEN_CHARGES')
f=open( 'psi4out.xyz', 'w' )
f.write( "16  " )
f.write( str(ee) + "\n" )
f.write( MOL.save_string_xyz() )
f.close()
--------------------------------------------------------------------------

    Molecular point group: c1
  Charge       = 0
  Multiplicity = 1
  Basis Set: CC-PVTZ
  Basis Set:
  @DF-RHF Final Energy:  -212.38667941267238
    Total Energy =                       -212.3866794126721516
    Molecular point group: c1
  Basis Set: CC-PVTZ
  Basis Set:
  Basis Set: CC-PVTZ
  Basis Set:
  @DF-RHF Final Energy:  -212.38833850420926
    Total Energy =                       -212.3883385042089458
  Basis Set: CC-PVTZ
  Basis Set:
  Basis Set: CC-PVTZ
  Basis Set:
  @DF-RHF Final Energy:  -212.39073790393365
    Total Energy =                       -212.3907379039337116
  Basis Set: CC-PVTZ
  Basis Set:
  Basis Set: CC-PVTZ
  Basis Set:
  @DF-RHF Final Energy:  -212.39100502257827
    Total Energy =                       -212.3910050225782129
  Basis Set: CC-PVTZ
  Basis Set:
  Basis Set: CC-PVTZ
  Basis Set:
  @DF-RHF Final Energy:  -212.39103343715757
    Total Energy =                       -212.3910334371577164
  Basis Set: CC-PVTZ
  Basis Set:
  Basis Set: CC-PVTZ
  Basis Set:
  @DF-RHF Final Energy:  -212.39103644565580
    Total Energy =                       -212.3910364456558568
  Basis Set: CC-PVTZ
  Basis Set:
  Charge       = 0
  Multiplicity = 1
  Basis Set: CC-PVTZ
  Basis Set:

    Orbital Energies (a.u.)
    -----------------------

    Doubly Occupied:

       1A    -15.527817     2A    -11.239754     3A    -11.238232
       4A    -11.205983     5A    -11.204867     6A     -1.204023
       7A     -1.024645     8A     -0.967099     9A     -0.850776
      10A     -0.804347    11A     -0.661278    12A     -0.626964
      13A     -0.609564    14A     -0.576641    15A     -0.547544
      16A     -0.534108    17A     -0.511780    18A     -0.489634
      19A     -0.481044    20A     -0.474229    21A     -0.358020

  @DF-RHF Final Energy:  -212.39103676589929

   => Energetics <=

    Nuclear Repulsion Energy =            191.5975091097553218
    One-Electron Energy =                -665.7003923039550273
    Two-Electron Energy =                 261.7118464283004187
    DFT Exchange-Correlation Energy =       0.0000000000000000
    Empirical Dispersion Energy =           0.0000000000000000
    PCM Polarization Energy =               0.0000000000000000
    EFP Energy =                            0.0000000000000000
    Total Energy =                       -212.3910367658992868
    Molecular point group: c1
  Basis Set: CC-PVTZ
  Basis Set:

  -Total Gradient:
     Atom            X                  Y                   Z
    ------   -----------------  -----------------  -----------------
       1        0.000001069495    -0.000001496496     0.000004954508
       2        0.000003491763    -0.000003555580    -0.000001811242
       3        0.002689592669     0.000206194525     0.000049124191
       4       -0.000000849437     0.000002138790    -0.000000859240
       5        0.000000831029     0.000003754893    -0.000001584008
       6       -0.003215739717    -0.000376521175    -0.000101111582
       7       -0.000001712665    -0.000004498094    -0.000005185416
       8        0.000009461545    -0.000008741514    -0.000002092049
       9       -0.002844795499     0.000463148174     0.000341388351
      10       -0.000007954983    -0.000008620370     0.000022133119
      11        0.000008878650    -0.000026088971     0.000001959233
      12        0.003352952651    -0.000258217720    -0.000275063121
      13        0.000004322288     0.000014923603    -0.000021329952
      14       -0.000004132051     0.000002925160    -0.000000292729
      15       -0.000001014092    -0.000000663435    -0.000001981343
      16        0.000005598355    -0.000004681793    -0.000008248719

  **** Optimization is complete! (in 7 steps) ****
    Final optimized geometry and variables:
    Molecular point group: c1

    Geometry (in Angstrom), charge = 0, multiplicity = 1:

    H           -0.348643668293     0.246393456396    -3.138200075965
    C           -0.382298184609     0.806444610309    -2.210506519569
    C           -0.172410617341    -0.111921888043    -1.017485546098
    H           -1.338898032725     1.308699103362    -2.141810597438
    H            0.391989033293     1.566159372266    -2.256069781088
    N           -0.236032679530     0.635095863200     0.221887048468
    H           -0.957929284210    -0.861491223471    -0.998091483510
    H            0.766646079415    -0.650625689691    -1.143017453896
    C           -0.195521696920    -0.133336193479     1.452791227161
    H            0.484520076798     1.325698391599     0.232225884249
    C            0.912180728791    -1.181009211209     1.577661305949
    H           -0.071760937320     0.575927093139     2.262957242441
    H           -1.158790894748    -0.613808733991     1.591471496903
    H            1.891065690395    -0.734109141497     1.433319898034
    H            0.891468196362    -1.623685002208     2.567693164319
    H            0.801540822255    -1.983279509312     0.858614706945

  Mulliken Charges: (a.u.)
   Center  Symbol    Alpha    Beta     Spin     Total
       1     H     0.45525  0.45525  0.00000  0.08949
       2     C     3.14092  3.14092  0.00000 -0.28183
       3     C     3.02459  3.02459  0.00000 -0.04917
       4     H     0.44953  0.44953  0.00000  0.10094
       5     H     0.45947  0.45947  0.00000  0.08106
       6     N     3.63888  3.63888  0.00000 -0.27776
       7     H     0.45830  0.45830  0.00000  0.08341
       8     H     0.46952  0.46952  0.00000  0.06097
       9     C     3.04253  3.04253  0.00000 -0.08505
      10     H     0.44439  0.44439  0.00000  0.11121
      11     C     3.15179  3.15179  0.00000 -0.30358
      12     H     0.45238  0.45238  0.00000  0.09523
      13     H     0.45359  0.45359  0.00000  0.09283
      14     H     0.45740  0.45740  0.00000  0.08519
      15     H     0.44870  0.44870  0.00000  0.10260
      16     H     0.45277  0.45277  0.00000  0.09447

   Total alpha = 21.00000, Total beta = 21.00000, Total charge =  0.00000
