                              Psi4 1.0.54 Driver

  ==> Input File <==

--------------------------------------------------------------------------
set {
	reference rhf
	basis cc-pvtz
}

set_num_threads( 4 )
memory 2 gb

molecule MOL {
0 1

O	 3.219313	 0.959291	 -0.614106
C	 2.698710	 0.058177	 -0.050237
C	 1.246364	 -0.005813	 0.348416
O	 3.344101	 -1.038700	 0.312317
C	 0.453207	 1.232821	 -0.049003
H	 0.839270	 -0.907818	 -0.092281
H	 1.216683	 -0.160521	 1.422434
C	 -0.998367	 1.217982	 0.432195
H	 0.481498	 1.345443	 -1.127236
H	 0.951413	 2.105557	 0.354893
C	 -1.882951	 0.151251	 -0.211235
H	 -1.429490	 2.193659	 0.228843
H	 -1.019755	 1.099323	 1.513279
C	 -2.811765	 -0.535058	 0.786799
H	 -2.477860	 0.609053	 -0.998237
H	 -1.268455	 -0.603441	 -0.693284
C	 -3.696087	 -1.607001	 0.156176
H	 -3.441018	 0.212382	 1.263993
H	 -2.218179	 -0.982917	 1.580489
C	 -4.622330	 -2.286720	 1.159087
H	 -4.289968	 -1.160946	 -0.636957
H	 -3.068604	 -2.356335	 -0.318818
H	 -5.235198	 -3.041279	 0.679484
H	 -5.287792	 -1.568408	 1.626310
H	 -4.056767	 -2.772341	 1.947451
C	 4.720529	 -1.114346	 0.001449
H	 4.874321	 -1.055557	 -1.065852
H	 5.057824	 -2.067950	 0.373977
H	 5.264321	 -0.313596	 0.480350

	symmetry c1
}
set optking {
	frozen_dihedral = ("
		15 11 8 5
	")
}

ee,wfn = optimize('scf', return_wfn=True)
oeprop( wfn, 'DIPOLE', 'QUADRUPOLE', 'MULLIKEN_CHARGES')
f=open( 'psi4out.xyz', 'w' )
f.write( "29  " )
f.write( str(ee) + "\n" )
f.write( MOL.save_string_xyz() )
f.close()
--------------------------------------------------------------------------

    Molecular point group: c1
  Charge       = 0
  Multiplicity = 1
  Basis Set: CC-PVTZ
  Basis Set:
  @DF-RHF Final Energy:  -501.22027651219253
    Total Energy =                       -501.2202765121922994
    Molecular point group: c1
  Basis Set: CC-PVTZ
  Basis Set:
  Basis Set: CC-PVTZ
  Basis Set:
  @DF-RHF Final Energy:  -501.21919209900989
    Total Energy =                       -501.2191920990102290
  Basis Set: CC-PVTZ
  Basis Set:
  Basis Set: CC-PVTZ
  Basis Set:
  @DF-RHF Final Energy:  -501.22057521555462
    Total Energy =                       -501.2205752155546179
  Basis Set: CC-PVTZ
  Basis Set:
  Basis Set: CC-PVTZ
  Basis Set:
  @DF-RHF Final Energy:  -501.22051066729455
    Total Energy =                       -501.2205106672940929
  Basis Set: CC-PVTZ
  Basis Set:
  Basis Set: CC-PVTZ
  Basis Set:
  @DF-RHF Final Energy:  -501.22077109562395
    Total Energy =                       -501.2207710956241726
  Basis Set: CC-PVTZ
  Basis Set:
  Basis Set: CC-PVTZ
  Basis Set:
  @DF-RHF Final Energy:  -501.22045350991687
    Total Energy =                       -501.2204535099174336
  Basis Set: CC-PVTZ
  Basis Set:
  Basis Set: CC-PVTZ
  Basis Set:
  @DF-RHF Final Energy:  -501.22078897508470
    Total Energy =                       -501.2207889750850427
  Basis Set: CC-PVTZ
  Basis Set:
  Charge       = 0
  Multiplicity = 1
  Basis Set: CC-PVTZ
  Basis Set:

    Orbital Energies (a.u.)
    -----------------------

    Doubly Occupied:

       1A    -20.596222     2A    -20.534087     3A    -11.364531
       4A    -11.278431     5A    -11.233350     6A    -11.217304
       7A    -11.215346     8A    -11.214050     9A    -11.213646
      10A    -11.212852    11A    -11.207459    12A     -1.472052
      13A     -1.365741    14A     -1.098691    15A     -1.068145
      16A     -1.019715    17A     -0.978088    18A     -0.929577
      19A     -0.861497    20A     -0.801061    21A     -0.790869
      22A     -0.766651    23A     -0.703967    24A     -0.685683
      25A     -0.676053    26A     -0.649125    27A     -0.630147
      28A     -0.606160    29A     -0.597751    30A     -0.578771
      31A     -0.566402    32A     -0.556135    33A     -0.535559
      34A     -0.529098    35A     -0.514192    36A     -0.507893
      37A     -0.503763    38A     -0.476599    39A     -0.473290
      40A     -0.462803    41A     -0.459320    42A     -0.458167
      43A     -0.441372    44A     -0.437692

  @DF-RHF Final Energy:  -501.22078942173073

   => Energetics <=

    Nuclear Repulsion Energy =            616.1689334019985154
    One-Electron Energy =               -1903.8008251327821654
    Two-Electron Energy =                 786.4111023090524668
    DFT Exchange-Correlation Energy =       0.0000000000000000
    Empirical Dispersion Energy =           0.0000000000000000
    PCM Polarization Energy =               0.0000000000000000
    EFP Energy =                            0.0000000000000000
    Total Energy =                       -501.2207894217310695
    Molecular point group: c1
  Basis Set: CC-PVTZ
  Basis Set:

  -Total Gradient:
     Atom            X                  Y                   Z
    ------   -----------------  -----------------  -----------------
       1       -0.000076102330     0.000046660710    -0.000000862506
       2        0.000026721370     0.000084213284    -0.000076606147
       3       -0.000006045787    -0.000031647960    -0.000022627480
       4        0.000004309998    -0.000107249440     0.000103418182
       5        0.000529533590    -0.001260362333     0.001760529279
       6        0.000000864316    -0.000008987979    -0.000003147723
       7        0.000011297096     0.000008711303    -0.000010596238
       8       -0.001319089181     0.001948484202    -0.002098384305
       9        0.000004635415    -0.000005704218     0.000024414966
      10       -0.000020997186     0.000022624208     0.000001700859
      11        0.002946981903    -0.001506612883    -0.001612099583
      12        0.000001112839    -0.000007109766    -0.000015484918
      13       -0.000019353425    -0.000016264692    -0.000002965605
      14        0.000043954296    -0.000024566562     0.000040955650
      15       -0.002168865326     0.000839459260     0.001907431576
      16        0.000027817504     0.000010314999     0.000016883255
      17       -0.000004221989     0.000029068840    -0.000021467543
      18        0.000006403283     0.000007527232     0.000011772800
      19       -0.000005051528    -0.000025607826     0.000002912780
      20       -0.000006234686     0.000005972054     0.000014626473
      21       -0.000006007848     0.000002763381    -0.000017176652
      22        0.000004662331     0.000000117291     0.000005085705
      23        0.000004145578     0.000003200363    -0.000004442633
      24       -0.000003386796    -0.000001286767    -0.000001485466
      25        0.000003307057     0.000000290482     0.000004963568
      26        0.000001934069     0.000010197564    -0.000021207492
      27        0.000016860554    -0.000007808045     0.000004839573
      28       -0.000000705696    -0.000004762498     0.000006350583
      29        0.000001520590    -0.000011634203     0.000002669041

  **** Optimization is complete! (in 8 steps) ****
    Final optimized geometry and variables:
    Molecular point group: c1

    Geometry (in Angstrom), charge = 0, multiplicity = 1:

    O            3.006489716644     1.018628500830    -1.075970545563
    C            2.516906281455     0.297843092530    -0.274968651735
    C            1.088170436284     0.358083006254     0.201573228152
    O            3.180497567861    -0.679477190703     0.321632819158
    C            0.275272600079     1.470704916960    -0.447777016892
    H            0.654674923511    -0.619432308606     0.024788005189
    H            1.116389497968     0.477569639674     1.279820809979
    C           -1.176519178711     1.512669642720     0.033680537820
    H            0.306537619445     1.358766643390    -1.525884388418
    H            0.754201637742     2.418349953977    -0.232446566129
    C           -2.061907527212     0.363329322149    -0.483298345939
    H           -1.614004159746     2.460263543536    -0.258854842358
    H           -1.178544821591     1.509419331058     1.120730319929
    C           -3.016212282849    -0.189278332202     0.574130492935
    H           -2.656243925750     0.720340925236    -1.318702487559
    H           -1.451099625149    -0.447753823288    -0.865734564294
    C           -3.945857372955    -1.277513251979     0.046043989282
    H           -3.612132608064     0.625787441938     0.978825248600
    H           -2.438907607667    -0.583576047461     1.407491547090
    C           -4.889784102368    -1.828734399366     1.109629221059
    H           -4.528159434725    -0.881346591576    -0.781388758768
    H           -3.351229875032    -2.090024015357    -0.363136550916
    H           -5.535285090674    -2.598077649362     0.701721400203
    H           -5.523132062643    -1.046139910156     1.514081723666
    H           -4.337369424006    -2.264535238642     1.935548081073
    C            4.538522207926    -0.850706134495    -0.029851248166
    H            4.635572000461    -1.067793008599    -1.083275400935
    H            4.894936064896    -1.682560817257     0.555748250204
    H            5.107142207717     0.038010572707     0.200545825265

  Mulliken Charges: (a.u.)
   Center  Symbol    Alpha    Beta     Spin     Total
       1     O     4.19655  4.19655  0.00000 -0.39310
       2     C     2.80481  2.80481  0.00000  0.39038
       3     C     3.10116  3.10116  0.00000 -0.20233
       4     O     4.14755  4.14755  0.00000 -0.29509
       5     C     3.09080  3.09080  0.00000 -0.18161
       6     H     0.43990  0.43990  0.00000  0.12021
       7     H     0.43956  0.43956  0.00000  0.12089
       8     C     3.10678  3.10678  0.00000 -0.21356
       9     H     0.44518  0.44518  0.00000  0.10964
      10     H     0.44132  0.44132  0.00000  0.11736
      11     C     3.10122  3.10122  0.00000 -0.20245
      12     H     0.44210  0.44210  0.00000  0.11580
      13     H     0.45572  0.45572  0.00000  0.08856
      14     C     3.08549  3.08549  0.00000 -0.17097
      15     H     0.44607  0.44607  0.00000  0.10786
      16     H     0.45255  0.45255  0.00000  0.09491
      17     C     3.08459  3.08459  0.00000 -0.16917
      18     H     0.45333  0.45333  0.00000  0.09334
      19     H     0.45590  0.45590  0.00000  0.08820
      20     C     3.15008  3.15008  0.00000 -0.30016
      21     H     0.45420  0.45420  0.00000  0.09160
      22     H     0.45473  0.45473  0.00000  0.09054
      23     H     0.44826  0.44826  0.00000  0.10349
      24     H     0.45502  0.45502  0.00000  0.08996
      25     H     0.45531  0.45531  0.00000  0.08938
      26     C     3.03799  3.03799  0.00000 -0.07597
      27     H     0.45434  0.45434  0.00000  0.09132
      28     H     0.44527  0.44527  0.00000  0.10946
      29     H     0.45424  0.45424  0.00000  0.09152

   Total alpha = 44.00000, Total beta = 44.00000, Total charge = -0.00000

*** Psi4 exiting successfully. Buy a developer a beer!
