                              Psi4 1.0.54 Driver

  ==> Input File <==

--------------------------------------------------------------------------
set {
	reference rhf
	basis cc-pvtz
}

set_num_threads( 4 )
memory 2 gb

molecule MOL {
0 1

H	 -0.936409	 2.996335	 3.460104
O	 -0.251994	 2.419520	 3.175400
C	 -0.626047	 1.776574	 1.985810
C	 0.500687	 0.857359	 1.559620
H	 -1.537506	 1.201293	 2.134359
H	 -0.823745	 2.507150	 1.204143
C	 0.196029	 0.106276	 0.266738
H	 0.692280	 0.153149	 2.363112
H	 1.402456	 1.449979	 1.443296
C	 1.330220	 -0.826136	 -0.155230
H	 -0.721275	 -0.460788	 0.392062
H	 0.007880	 0.820755	 -0.531824
C	 2.719700	 -0.407669	 0.328325
H	 1.339388	 -0.911200	 -1.239363
H	 1.119001	 -1.821953	 0.224128
C	 3.241564	 0.893452	 -0.276737
H	 3.418299	 -1.204729	 0.093035
H	 2.711776	 -0.323368	 1.411960
H	 3.254204	 0.841071	 -1.360784
H	 2.634460	 1.745075	 0.005842
H	 4.254264	 1.092401	 0.054971

	symmetry c1
}
set optking {
	frozen_dihedral = ("
		4 7 10 14
	")
}

ee,wfn = optimize('scf', return_wfn=True)
oeprop( wfn, 'DIPOLE', 'QUADRUPOLE', 'MULLIKEN_CHARGES')
f=open( 'psi4out.xyz', 'w' )
f.write( "21  " )
f.write( str(ee) + "\n" )
f.write( MOL.save_string_xyz() )
f.close()
--------------------------------------------------------------------------

    Molecular point group: c1
  Charge       = 0
  Multiplicity = 1
  Basis Set: CC-PVTZ
  Basis Set:
  @DF-RHF Final Energy:  -310.32241924247802
    Total Energy =                       -310.3224192424780199
    Molecular point group: c1
  Basis Set: CC-PVTZ
  Basis Set:
  Basis Set: CC-PVTZ
  Basis Set:
  @DF-RHF Final Energy:  -310.28730305830203
    Total Energy =                       -310.2873030583019727
  Basis Set: CC-PVTZ
  Basis Set:
  Basis Set: CC-PVTZ
  Basis Set:
  @DF-RHF Final Energy:  -310.32426171555380
    Total Energy =                       -310.3242617155539165
  Basis Set: CC-PVTZ
  Basis Set:
  Basis Set: CC-PVTZ
  Basis Set:
  @DF-RHF Final Energy:  -310.32621196420195
    Total Energy =                       -310.3262119642018888
  Basis Set: CC-PVTZ
  Basis Set:
  Basis Set: CC-PVTZ
  Basis Set:
  @DF-RHF Final Energy:  -310.32648653861708
    Total Energy =                       -310.3264865386170186
  Basis Set: CC-PVTZ
  Basis Set:
  Basis Set: CC-PVTZ
  Basis Set:
  @DF-RHF Final Energy:  -310.32650130374094
    Total Energy =                       -310.3265013037407130
  Basis Set: CC-PVTZ
  Basis Set:
  Charge       = 0
  Multiplicity = 1
  Basis Set: CC-PVTZ
  Basis Set:

    Orbital Energies (a.u.)
    -----------------------

    Doubly Occupied:

       1A    -20.545533     2A    -11.265066     3A    -11.214166
       4A    -11.212084     5A    -11.210602     6A    -11.208794
       7A    -11.204601     8A     -1.363342     9A     -1.085527
      10A     -1.030422    11A     -0.956428    12A     -0.875158
      13A     -0.821159    14A     -0.763599    15A     -0.692404
      16A     -0.662515    17A     -0.628014    18A     -0.618489
      19A     -0.572334    20A     -0.565328    21A     -0.547218
      22A     -0.527545    23A     -0.503660    24A     -0.494851
      25A     -0.478879    26A     -0.452466    27A     -0.448809
      28A     -0.446358    29A     -0.437782

  @DF-RHF Final Energy:  -310.32650207216375

   => Energetics <=

    Nuclear Repulsion Energy =            320.4701407034776821
    One-Electron Energy =               -1055.9270172664655547
    Two-Electron Energy =                 425.1303744908240105
    DFT Exchange-Correlation Energy =       0.0000000000000000
    Empirical Dispersion Energy =           0.0000000000000000
    PCM Polarization Energy =               0.0000000000000000
    EFP Energy =                            0.0000000000000000
    Total Energy =                       -310.3265020721638621
    Molecular point group: c1
  Basis Set: CC-PVTZ
  Basis Set:

  -Total Gradient:
     Atom            X                  Y                   Z
    ------   -----------------  -----------------  -----------------
       1       -0.000083258938     0.000017849264     0.000016629231
       2        0.000093822322    -0.000022693351     0.000027231627
       3       -0.000008268005     0.000050104265    -0.000059442014
       4        0.000679994658     0.004728535005    -0.003062376333
       5       -0.000005094197    -0.000032485699     0.000010736164
       6        0.000003145790    -0.000008962978    -0.000000196482
       7       -0.000431408988    -0.005274648113     0.004336137968
       8        0.000046497991     0.000005682813     0.000014299403
       9       -0.000028197821     0.000040024337     0.000001306343
      10       -0.002694069289    -0.006537011848    -0.000727765512
      11       -0.000000195058    -0.000030826593    -0.000027748896
      12        0.000022424578    -0.000013691272    -0.000035047161
      13        0.000008784832     0.000078151034     0.000212096380
      14        0.002382350304     0.007066215485    -0.000616061512
      15       -0.000018157516    -0.000027621875     0.000013270460
      16        0.000046908213    -0.000029868297    -0.000132121564
      17       -0.000021482822    -0.000003175806    -0.000025172959
      18        0.000047981126    -0.000019739338    -0.000016943939
      19       -0.000004397950     0.000052572581     0.000080574834
      20        0.000014266737    -0.000008773626     0.000002047113
      21       -0.000051645974    -0.000029635990    -0.000011453154

  **** Optimization is complete! (in 7 steps) ****
    Final optimized geometry and variables:
    Molecular point group: c1

    Geometry (in Angstrom), charge = 0, multiplicity = 1:

    H           -2.719403889293     1.405693558727     2.480032505292
    O           -1.856110400164     1.159980488258     2.203236558762
    C           -1.926469358990     0.373691680757     1.043223172272
    C           -0.516768714413     0.002682580613     0.627210459893
    H           -2.508340184121    -0.526619028522     1.228455260328
    H           -2.417232936298     0.921591653939     0.241374062786
    C           -0.501106549279    -0.835369178884    -0.650102506637
    H           -0.052768516343    -0.536994394670     1.447287795156
    H            0.046984692904     0.916915157263     0.497596608410
    C            0.875663322233    -1.347887377616    -1.123812169478
    H           -1.159402413927    -1.690159798723    -0.529229550244
    H           -0.942123752444    -0.236724258410    -1.442790926725
    C            2.091121788980    -0.468318247028    -0.803797256688
    H            0.848937409616    -1.430480026992    -2.206219305293
    H            1.050381530898    -2.338408035833    -0.719035255615
    C            2.137806451549     0.837854883782    -1.593984063665
    H            2.983965889787    -1.040347155748    -1.037503532764
    H            2.142196296977    -0.258433375810     0.258423893915
    H            2.168645557922     0.641676496298    -2.660831060404
    H            1.273922751492     1.463060893329    -1.402383383012
    H            3.020366329549     1.413724702938    -1.340037684020

  Mulliken Charges: (a.u.)
   Center  Symbol    Alpha    Beta     Spin     Total
       1     H     0.39765  0.39765  0.00000  0.20469
       2     O     4.19481  4.19481  0.00000 -0.38962
       3     C     2.96695  2.96695  0.00000  0.06610
       4     C     3.08953  3.08953  0.00000 -0.17906
       5     H     0.47271  0.47271  0.00000  0.05458
       6     H     0.47480  0.47480  0.00000  0.05039
       7     C     3.11438  3.11438  0.00000 -0.22875
       8     H     0.44951  0.44951  0.00000  0.10098
       9     H     0.44642  0.44642  0.00000  0.10717
      10     C     3.09540  3.09540  0.00000 -0.19079
      11     H     0.44680  0.44680  0.00000  0.10640
      12     H     0.45198  0.45198  0.00000  0.09604
      13     C     3.10076  3.10076  0.00000 -0.20152
      14     H     0.45225  0.45225  0.00000  0.09550
      15     H     0.44643  0.44643  0.00000  0.10715
      16     C     3.14926  3.14926  0.00000 -0.29852
      17     H     0.44438  0.44438  0.00000  0.11124
      18     H     0.44901  0.44901  0.00000  0.10197
      19     H     0.45471  0.45471  0.00000  0.09058
      20     H     0.45503  0.45503  0.00000  0.08993
      21     H     0.44722  0.44722  0.00000  0.10555

   Total alpha = 29.00000, Total beta = 29.00000, Total charge = -0.00000

*** Psi4 exiting successfully. Buy a developer a beer!
