                              Psi4 1.0.54 Driver

  ==> Input File <==

--------------------------------------------------------------------------
set {
	reference rhf
	basis cc-pvtz
}

set_num_threads( 4 )
memory 2 gb

molecule MOL {
0 1

O	 2.203513	 -0.342450	 -0.111411
C	 1.121787	 0.124983	 0.000110
C	 -0.170912	 -0.649867	 -0.000147
O	 0.904547	 1.422185	 0.143116
C	 -1.413045	 0.229353	 0.001137
H	 -0.152877	 -1.303435	 -0.866175
H	 -0.152278	 -1.305116	 0.864586
C	 -2.702562	 -0.586401	 0.000228
H	 -1.390744	 0.882001	 -0.864365
H	 -1.390549	 0.879837	 0.868264
C	 -3.953810	 0.284959	 -0.000782
H	 -2.717793	 -1.238567	 -0.869075
H	 -2.719108	 -1.238472	 0.869576
H	 -3.983727	 0.924403	 -0.876454
H	 -4.852989	 -0.320147	 -0.001515
H	 -3.985140	 0.924399	 0.874841
C	 2.034191	 2.271254	 0.160600
H	 2.688783	 2.018193	 0.981391
H	 1.652596	 3.271789	 0.283818
H	 2.584118	 2.193414	 -0.765545

	symmetry c1
}
set optking {
	frozen_dihedral = ("
		1 2 3 6
	")
}

ee,wfn = optimize('scf', return_wfn=True)
oeprop( wfn, 'DIPOLE', 'QUADRUPOLE', 'MULLIKEN_CHARGES')
f=open( 'psi4out.xyz', 'w' )
f.write( "20  " )
f.write( str(ee) + "\n" )
f.write( MOL.save_string_xyz() )
f.close()
--------------------------------------------------------------------------

    Molecular point group: c1
  Charge       = 0
  Multiplicity = 1
  Basis Set: CC-PVTZ
  Basis Set:
  @DF-RHF Final Energy:  -384.07925842857162
    Total Energy =                       -384.0792584285715066
    Molecular point group: c1
  Basis Set: CC-PVTZ
  Basis Set:
  Basis Set: CC-PVTZ
  Basis Set:
  @DF-RHF Final Energy:  -384.07987031435312
    Total Energy =                       -384.0798703143532293
  Basis Set: CC-PVTZ
  Basis Set:
  Basis Set: CC-PVTZ
  Basis Set:
  @DF-RHF Final Energy:  -384.08062448596252
    Total Energy =                       -384.0806244859625167
  Basis Set: CC-PVTZ
  Basis Set:
  Basis Set: CC-PVTZ
  Basis Set:
  @DF-RHF Final Energy:  -384.08055779316572
    Total Energy =                       -384.0805577931658945
  Basis Set: CC-PVTZ
  Basis Set:
  Basis Set: CC-PVTZ
  Basis Set:
  @DF-RHF Final Energy:  -384.08068888328086
    Total Energy =                       -384.0806888832806862
  Basis Set: CC-PVTZ
  Basis Set:
  Basis Set: CC-PVTZ
  Basis Set:
  @DF-RHF Final Energy:  -384.08069317709618
    Total Energy =                       -384.0806931770957817
  Basis Set: CC-PVTZ
  Basis Set:
  Charge       = 0
  Multiplicity = 1
  Basis Set: CC-PVTZ
  Basis Set:

    Orbital Energies (a.u.)
    -----------------------

    Doubly Occupied:

       1A    -20.599507     2A    -20.529296     3A    -11.365042
       4A    -11.279532     5A    -11.234142     6A    -11.221756
       7A    -11.220591     8A    -11.211570     9A     -1.473530
      10A     -1.364092    11A     -1.092585    12A     -1.024804
      13A     -0.968011    14A     -0.893293    15A     -0.806736
      16A     -0.777067    17A     -0.695052    18A     -0.687569
      19A     -0.674672    20A     -0.648818    21A     -0.594452
      22A     -0.593755    23A     -0.582334    24A     -0.543517
      25A     -0.532631    26A     -0.524245    27A     -0.503343
      28A     -0.496861    29A     -0.479484    30A     -0.476110
      31A     -0.455174    32A     -0.430799

  @DF-RHF Final Energy:  -384.08069331228830

   => Energetics <=

    Nuclear Repulsion Energy =            384.2738111623299346
    One-Electron Energy =               -1284.7482708276731955
    Two-Electron Energy =                 516.3937663530550708
    DFT Exchange-Correlation Energy =       0.0000000000000000
    Empirical Dispersion Energy =           0.0000000000000000
    PCM Polarization Energy =               0.0000000000000000
    EFP Energy =                            0.0000000000000000
    Total Energy =                       -384.0806933122881901
    Molecular point group: c1
  Basis Set: CC-PVTZ
  Basis Set:

  -Total Gradient:
     Atom            X                  Y                   Z
    ------   -----------------  -----------------  -----------------
       1       -0.000051519488     0.000008072131     0.000265468600
       2        0.000035269444    -0.000046181058    -0.000398941653
       3        0.000116042632    -0.000220233511     0.000293490494
       4        0.000021004068     0.000085494955     0.000011408239
       5       -0.000004015865     0.000008002014    -0.000000012117
       6       -0.000101563458     0.000182212216    -0.000154182357
       7        0.000003627307     0.000002648365    -0.000000443385
       8       -0.000003327291    -0.000007742412    -0.000009856744
       9        0.000000153226    -0.000005148224     0.000001958606
      10       -0.000000141515     0.000002247884    -0.000004078260
      11        0.000012808881     0.000000658151     0.000006538403
      12       -0.000003909261     0.000001981519    -0.000001189848
      13       -0.000000387074     0.000000471612    -0.000002742255
      14        0.000001386276    -0.000003447933     0.000001560030
      15        0.000004643876    -0.000002526939     0.000002372114
      16       -0.000000071120     0.000001821397    -0.000001353282
      17       -0.000038953724    -0.000013460679    -0.000020968736
      18       -0.000001436990    -0.000007509865     0.000002637212
      19        0.000008911848     0.000011504282     0.000001974390
      20        0.000001478227     0.000001136092     0.000006360549

  **** Optimization is complete! (in 7 steps) ****
    Final optimized geometry and variables:
    Molecular point group: c1

    Geometry (in Angstrom), charge = 0, multiplicity = 1:

    O            2.373978516230    -0.784960937160    -0.047744403669
    C            1.332072263740    -0.224667750098     0.016132387955
    C            0.005774746387    -0.949485681778    -0.003236165828
    O            1.224621685881     1.086307923519     0.122949908709
    C           -1.255876277134    -0.095534969404    -0.050707976967
    H            0.048969017230    -1.621624348709    -0.852291787511
    H            0.005246227873    -1.584464400057     0.876627087145
    C           -2.522367026229    -0.946806347728    -0.081571179142
    H           -1.229235903046     0.545675525032    -0.925303682588
    H           -1.283051101822     0.564498214875     0.808784276789
    C           -3.796925445421    -0.111252640453    -0.128238910025
    H           -2.492978662317    -1.607268101909    -0.943894696752
    H           -2.545730639453    -1.590546456340     0.793590205112
    H           -3.819639543771     0.518305675842    -1.011377740731
    H           -4.678154460672    -0.741700868041    -0.148770799977
    H           -3.872566339132     0.535447011303     0.739420520668
    C            2.424740847988     1.832938360217     0.160139351176
    H            3.026694501374     1.542835740145     1.008224913455
    H            2.129321414418     2.865868790440     0.247527589959
    H            2.994476349928     1.681984204139    -0.744462770889

  Mulliken Charges: (a.u.)
   Center  Symbol    Alpha    Beta     Spin     Total
       1     O     4.20476  4.20476  0.00000 -0.40952
       2     C     2.81272  2.81272  0.00000  0.37455
       3     C     3.09236  3.09236  0.00000 -0.18471
       4     O     4.13982  4.13982  0.00000 -0.27964
       5     C     3.08176  3.08176  0.00000 -0.16351
       6     H     0.43755  0.43755  0.00000  0.12491
       7     H     0.43962  0.43962  0.00000  0.12075
       8     C     3.08860  3.08860  0.00000 -0.17721
       9     H     0.44955  0.44955  0.00000  0.10090
      10     H     0.44823  0.44823  0.00000  0.10355
      11     C     3.14970  3.14970  0.00000 -0.29940
      12     H     0.45375  0.45375  0.00000  0.09251
      13     H     0.45398  0.45398  0.00000  0.09205
      14     H     0.45441  0.45441  0.00000  0.09117
      15     H     0.44734  0.44734  0.00000  0.10533
      16     H     0.45444  0.45444  0.00000  0.09111
      17     C     3.03772  3.03772  0.00000 -0.07544
      18     H     0.45329  0.45329  0.00000  0.09343
      19     H     0.44717  0.44717  0.00000  0.10565
      20     H     0.45323  0.45323  0.00000  0.09353

   Total alpha = 32.00000, Total beta = 32.00000, Total charge = -0.00000

*** Psi4 exiting successfully. Buy a developer a beer!
