                              Psi4 1.0.54 Driver

  ==> Input File <==

--------------------------------------------------------------------------
set {
	reference rhf
	basis cc-pvtz
}

set_num_threads( 4 )
memory 2 gb

molecule MOL {
0 1

O	 2.582685	 -0.056419	 0.773458
C	 1.704209	 0.119472	 -0.000093
C	 0.380337	 -0.600947	 -0.000234
O	 1.774941	 0.994798	 -0.989648
C	 -0.824290	 0.329213	 -0.000115
H	 0.371455	 -1.255476	 -0.865660
H	 0.371410	 -1.255787	 0.864952
C	 -2.146151	 -0.432825	 -0.000068
H	 -0.773936	 0.979158	 -0.866319
H	 -0.773838	 0.979034	 0.866186
C	 -3.366283	 0.483552	 0.000557
H	 -2.189286	 -1.084450	 -0.869996
H	 -2.188867	 -1.085083	 0.869399
C	 -4.687436	 -0.278003	 0.000108
H	 -3.325150	 1.134819	 -0.867957
H	 -3.325087	 1.133730	 0.869885
H	 -4.773783	 -0.912098	 -0.876078
H	 -5.531922	 0.401392	 0.000363
H	 -4.773901	 -0.912898	 0.875703
C	 2.966973	 1.744583	 -1.108839
H	 3.137936	 2.332864	 -0.219508
H	 2.828684	 2.389923	 -1.961048
H	 3.813102	 1.092744	 -1.268170

	symmetry c1
}
set optking {
	frozen_dihedral = ("
		1 2 3 6
	")
}

ee,wfn = optimize('scf', return_wfn=True)
oeprop( wfn, 'DIPOLE', 'QUADRUPOLE', 'MULLIKEN_CHARGES')
f=open( 'psi4out.xyz', 'w' )
f.write( "23  " )
f.write( str(ee) + "\n" )
f.write( MOL.save_string_xyz() )
f.close()
--------------------------------------------------------------------------

    Molecular point group: c1
  Charge       = 0
  Multiplicity = 1
  Basis Set: CC-PVTZ
  Basis Set:
  @DF-RHF Final Energy:  -423.12934516914487
    Total Energy =                       -423.1293451691446990
    Molecular point group: c1
  Basis Set: CC-PVTZ
  Basis Set:
  Basis Set: CC-PVTZ
  Basis Set:
  @DF-RHF Final Energy:  -423.12855612659496
    Total Energy =                       -423.1285561265946171
  Basis Set: CC-PVTZ
  Basis Set:
  Basis Set: CC-PVTZ
  Basis Set:
  @DF-RHF Final Energy:  -423.12943641481320
    Total Energy =                       -423.1294364148130853
  Basis Set: CC-PVTZ
  Basis Set:
  Basis Set: CC-PVTZ
  Basis Set:
  @DF-RHF Final Energy:  -423.12965200481386
    Total Energy =                       -423.1296520048133516
  Basis Set: CC-PVTZ
  Basis Set:
  Basis Set: CC-PVTZ
  Basis Set:
  @DF-RHF Final Energy:  -423.12965645041112
    Total Energy =                       -423.1296564504109483
  Basis Set: CC-PVTZ
  Basis Set:
  Charge       = 0
  Multiplicity = 1
  Basis Set: CC-PVTZ
  Basis Set:

    Orbital Energies (a.u.)
    -----------------------

    Doubly Occupied:

       1A    -20.597032     2A    -20.532398     3A    -11.363591
       4A    -11.278670     5A    -11.232815     6A    -11.225141
       7A    -11.219241     8A    -11.217923     9A    -11.210147
      10A     -1.472017    11A     -1.364431    12A     -1.098160
      13A     -1.046603    14A     -0.984682    15A     -0.935965
      16A     -0.848556    17A     -0.798728    18A     -0.775659
      19A     -0.695525    20A     -0.684074    21A     -0.676013
      22A     -0.655248    23A     -0.609957    24A     -0.594096
      25A     -0.579916    26A     -0.570148    27A     -0.548691
      28A     -0.530535    29A     -0.525262    30A     -0.507162
      31A     -0.490696    32A     -0.479250    33A     -0.471093
      34A     -0.469355    35A     -0.458568    36A     -0.429519

  @DF-RHF Final Energy:  -423.12965727144365

   => Energetics <=

    Nuclear Repulsion Energy =            455.6877949803691763
    One-Electron Energy =               -1479.2811704594892035
    Two-Electron Energy =                 600.4637182076763793
    DFT Exchange-Correlation Energy =       0.0000000000000000
    Empirical Dispersion Energy =           0.0000000000000000
    PCM Polarization Energy =               0.0000000000000000
    EFP Energy =                            0.0000000000000000
    Total Energy =                       -423.1296572714436479
    Molecular point group: c1
  Basis Set: CC-PVTZ
  Basis Set:

  -Total Gradient:
     Atom            X                  Y                   Z
    ------   -----------------  -----------------  -----------------
       1        0.000214441291    -0.000436410695    -0.000498195228
       2       -0.000251216936     0.000507972239     0.000821374712
       3       -0.000197796491     0.000386441345    -0.000641222466
       4        0.000025346737     0.000044597411    -0.000025510543
       5       -0.000001459967     0.000018458576     0.000005113731
       6        0.000257227220    -0.000479415589     0.000366604292
       7       -0.000008525987    -0.000008717509    -0.000012233462
       8       -0.000001165236    -0.000015011357    -0.000001153392
       9        0.000018790281     0.000006618465     0.000005999477
      10       -0.000008341091    -0.000004689405    -0.000025153628
      11       -0.000003552685     0.000009127311     0.000008069317
      12        0.000000460548    -0.000001589475    -0.000000917536
      13       -0.000005723199    -0.000006830011    -0.000003696853
      14       -0.000002547480    -0.000005798923     0.000007655291
      15        0.000005029681    -0.000003178721     0.000005314019
      16       -0.000002772752     0.000005699782    -0.000002102386
      17       -0.000001664677     0.000000590570     0.000000078672
      18       -0.000001123585    -0.000000566407    -0.000002110668
      19       -0.000004317325    -0.000000873915    -0.000000749991
      20       -0.000052418335    -0.000022488048    -0.000014282753
      21        0.000003212107     0.000003918515     0.000004449429
      22        0.000006351314     0.000001604825     0.000002555054
      23        0.000011766566     0.000000541019     0.000000114910

  **** Optimization is complete! (in 6 steps) ****
    Final optimized geometry and variables:
    Molecular point group: c1

    Geometry (in Angstrom), charge = 0, multiplicity = 1:

    O            2.728810900395    -0.292745445287     0.908216997404
    C            1.850952111720    -0.102685860461     0.136569938488
    C            0.539819546290    -0.846197238223     0.132520611636
    O            1.931042945347     0.781689093853    -0.843897717194
    C           -0.694500406144     0.056823271414     0.127427611349
    H            0.535705791968    -1.483144108095    -0.746849295222
    H            0.544719789792    -1.489254846873     1.000904258781
    C           -1.993630433169    -0.742121867614     0.171325707142
    H           -0.679504625510     0.683870099599    -0.755455096359
    H           -0.652759649404     0.723827073732     0.984043919288
    C           -3.239852168304     0.138475617651     0.174467966119
    H           -2.031173924493    -1.413208127716    -0.683631983247
    H           -1.999599471580    -1.374779269215     1.055412310765
    C           -4.537334879865    -0.661697804016     0.216402740035
    H           -3.234385588630     0.770370944853    -0.709291459142
    H           -3.202609288441     0.809093701081     1.028455838406
    H           -4.620685582397    -1.317755465260    -0.643661241306
    H           -5.401535347293    -0.007622791354     0.217783337240
    H           -4.588188827442    -1.278603580393     1.107369403394
    C            3.128377242404     1.524702982388    -0.951147092597
    H            3.301169941187     2.100331795870    -0.054020388827
    H            2.996583019611     2.181646139954    -1.795562664463
    H            3.970188427708     0.868799124171    -1.116395305377

  Mulliken Charges: (a.u.)
   Center  Symbol    Alpha    Beta     Spin     Total
       1     O     4.19973  4.19973  0.00000 -0.39946
       2     C     2.81239  2.81239  0.00000  0.37522
       3     C     3.07806  3.07806  0.00000 -0.15612
       4     O     4.14826  4.14826  0.00000 -0.29652
       5     C     3.09854  3.09854  0.00000 -0.19707
       6     H     0.44720  0.44720  0.00000  0.10560
       7     H     0.43667  0.43667  0.00000  0.12667
       8     C     3.09114  3.09114  0.00000 -0.18228
       9     H     0.44251  0.44251  0.00000  0.11499
      10     H     0.44971  0.44971  0.00000  0.10058
      11     C     3.08398  3.08398  0.00000 -0.16796
      12     H     0.45426  0.45426  0.00000  0.09148
      13     H     0.45279  0.45279  0.00000  0.09443
      14     C     3.15035  3.15035  0.00000 -0.30070
      15     H     0.45382  0.45382  0.00000  0.09236
      16     H     0.45356  0.45356  0.00000  0.09288
      17     H     0.45492  0.45492  0.00000  0.09015
      18     H     0.44769  0.44769  0.00000  0.10462
      19     H     0.45456  0.45456  0.00000  0.09089
      20     C     3.03692  3.03692  0.00000 -0.07384
      21     H     0.45409  0.45409  0.00000  0.09182
      22     H     0.44589  0.44589  0.00000  0.10823
      23     H     0.45298  0.45298  0.00000  0.09404

   Total alpha = 36.00000, Total beta = 36.00000, Total charge = -0.00000

*** Psi4 exiting successfully. Buy a developer a beer!
