                              Psi4 1.0.54 Driver

  ==> Input File <==

--------------------------------------------------------------------------
set {
	reference rhf
	basis cc-pvtz
}

set_num_threads( 4 )
memory 2 gb

molecule MOL {
0 1

H	 -1.835082	 1.385983	 0.000069
C	 -1.300516	 0.441153	 -0.000028
O	 -0.006604	 0.654344	 -0.000106
O	 -1.828920	 -0.612308	 0.000113
C	 0.852093	 -0.482521	 -0.000161
C	 2.264273	 0.006295	 -0.218126
H	 0.537957	 -1.157421	 -0.783606
H	 0.749398	 -0.997831	 0.944229
H	 2.351364	 0.523401	 -1.165220
H	 2.944779	 -0.836757	 -0.223523
H	 2.563862	 0.683819	 0.571290

	symmetry c1
}
set optking {
	frozen_dihedral = ("
		7 5 3 2
	")
}

ee,wfn = optimize('scf', return_wfn=True)
oeprop( wfn, 'DIPOLE', 'QUADRUPOLE', 'MULLIKEN_CHARGES')
f=open( 'psi4out.xyz', 'w' )
f.write( "11  " )
f.write( str(ee) + "\n" )
f.write( MOL.save_string_xyz() )
f.close()
--------------------------------------------------------------------------

    Molecular point group: c1
  Charge       = 0
  Multiplicity = 1
  Basis Set: CC-PVTZ
  Basis Set:
  @DF-RHF Final Energy:  -266.93176559704625
    Total Energy =                       -266.9317655970463647
    Molecular point group: c1
  Basis Set: CC-PVTZ
  Basis Set:
  Basis Set: CC-PVTZ
  Basis Set:
  @DF-RHF Final Energy:  -266.93177383417378
    Total Energy =                       -266.9317738341736117
  Basis Set: CC-PVTZ
  Basis Set:
  Basis Set: CC-PVTZ
  Basis Set:
  @DF-RHF Final Energy:  -266.93167747698078
    Total Energy =                       -266.9316774769808944
  Basis Set: CC-PVTZ
  Basis Set:
  Basis Set: CC-PVTZ
  Basis Set:
  @DF-RHF Final Energy:  -266.93177998610042
    Total Energy =                       -266.9317799861005369
  Basis Set: CC-PVTZ
  Basis Set:
  Charge       = 0
  Multiplicity = 1
  Basis Set: CC-PVTZ
  Basis Set:

    Orbital Energies (a.u.)
    -----------------------

    Doubly Occupied:

       1A    -20.605644     2A    -20.545703     3A    -11.370174
       4A    -11.289936     5A    -11.225218     6A     -1.479458
       7A     -1.377445     8A     -1.053894     9A     -0.904046
      10A     -0.805989    11A     -0.740954    12A     -0.692945
      13A     -0.682391    14A     -0.593911    15A     -0.578339
      16A     -0.558287    17A     -0.520853    18A     -0.514807
      19A     -0.463714    20A     -0.457977

  @DF-RHF Final Energy:  -266.93178162487624

   => Energetics <=

    Nuclear Repulsion Energy =            179.6346021321788271
    One-Electron Energy =                -720.2093976955213748
    Two-Electron Energy =                 273.6430139384660833
    DFT Exchange-Correlation Energy =       0.0000000000000000
    Empirical Dispersion Energy =           0.0000000000000000
    PCM Polarization Energy =               0.0000000000000000
    EFP Energy =                            0.0000000000000000
    Total Energy =                       -266.9317816248765212
    Molecular point group: c1
  Basis Set: CC-PVTZ
  Basis Set:

  -Total Gradient:
     Atom            X                  Y                   Z
    ------   -----------------  -----------------  -----------------
       1        0.000006920692    -0.000001877882     0.000002641550
       2       -0.000005057459     0.000007330407    -0.000674599840
       3       -0.000132835949    -0.000083185295     0.001072723451
       4        0.000018759642     0.000002945199     0.000003707893
       5        0.000572105178     0.000407526974    -0.000894607005
       6        0.000006365973     0.000008975034     0.000003952369
       7       -0.000455846675    -0.000341127937     0.000489629512
       8       -0.000003021991     0.000003538392     0.000000817172
       9       -0.000004599278     0.000000786097    -0.000002158929
      10       -0.000003406962    -0.000002059442     0.000000268823
      11        0.000000616825    -0.000002851549    -0.000002374999

  **** Optimization is complete! (in 5 steps) ****
    Final optimized geometry and variables:
    Molecular point group: c1

    Geometry (in Angstrom), charge = 0, multiplicity = 1:

    H           -1.831816738229     1.388134343780     0.037449331175
    C           -1.298376280755     0.442756314603     0.046098979578
    O           -0.004265699296     0.654938278297     0.040557430746
    O           -1.828195726291    -0.609920055836     0.059413060567
    C            0.856159891704    -0.480629385805     0.033371563885
    C            2.268644211414     0.010019687768    -0.177128835195
    H            0.541770088132    -1.155224092352    -0.749190754108
    H            0.752210059368    -0.998741495172     0.976984745168
    H            2.360028891460     0.525769366228    -1.124587829848
    H            2.950481960175    -0.831989577857    -0.177294556396
    H            2.562855163636     0.689225060808     0.612835369262

  Mulliken Charges: (a.u.)
   Center  Symbol    Alpha    Beta     Spin     Total
       1     H     0.44797  0.44797  0.00000  0.10406
       2     C     2.84606  2.84606  0.00000  0.30789
       3     O     4.14436  4.14436  0.00000 -0.28872
       4     O     4.19504  4.19504  0.00000 -0.39007
       5     C     2.97279  2.97279  0.00000  0.05443
       6     C     3.13308  3.13308  0.00000 -0.26616
       7     H     0.45155  0.45155  0.00000  0.09689
       8     H     0.45425  0.45425  0.00000  0.09151
       9     H     0.45044  0.45044  0.00000  0.09913
      10     H     0.45422  0.45422  0.00000  0.09155
      11     H     0.45025  0.45025  0.00000  0.09951

   Total alpha = 20.00000, Total beta = 20.00000, Total charge = -0.00000

*** Psi4 exiting successfully. Buy a developer a beer!
