                              Psi4 1.0.54 Driver

  ==> Input File <==

--------------------------------------------------------------------------
set {
	reference rhf
	basis cc-pvtz
}

set_num_threads( 4 )
memory 2 gb

molecule MOL {
0 1

H	 1.274177	 -1.136065	 1.568275
C	 0.362945	 -1.251216	 0.999850
O	 0.000000	 0.000000	 0.518769
H	 0.542814	 -1.953397	 0.188404
H	 -0.404806	 -1.666535	 1.649406
C	 -1.165153	 0.000000	 -0.236961
H	 -1.229451	 0.882440	 -0.870223
H	 -2.002557	 0.000000	 0.445289
H	 -1.229451	 -0.882440	 -0.870223

	symmetry c1
}
set optking {
	frozen_dihedral = ("
		2 3 6 7
	")
}

ee,wfn = optimize('scf', return_wfn=True)
oeprop( wfn, 'DIPOLE', 'QUADRUPOLE', 'MULLIKEN_CHARGES')
f=open( 'psi4out.xyz', 'w' )
f.write( "9  " )
f.write( str(ee) + "\n" )
f.write( MOL.save_string_xyz() )
f.close()
--------------------------------------------------------------------------

    Molecular point group: c1
  Charge       = 0
  Multiplicity = 1
  Basis Set: CC-PVTZ
  Basis Set:
  @DF-RHF Final Energy:  -154.12526990073897
    Total Energy =                       -154.1252699007390277
    Molecular point group: c1
  Basis Set: CC-PVTZ
  Basis Set:
  Basis Set: CC-PVTZ
  Basis Set:
  @DF-RHF Final Energy:  -154.12608989978486
    Total Energy =                       -154.1260898997848869
  Basis Set: CC-PVTZ
  Basis Set:
  Basis Set: CC-PVTZ
  Basis Set:
  @DF-RHF Final Energy:  -154.12628442581206
    Total Energy =                       -154.1262844258120595
  Basis Set: CC-PVTZ
  Basis Set:
  Charge       = 0
  Multiplicity = 1
  Basis Set: CC-PVTZ
  Basis Set:

    Orbital Energies (a.u.)
    -----------------------

    Doubly Occupied:

       1A    -20.549542     2A    -11.263337     3A    -11.263055
       4A     -1.381676     5A     -0.975866     6A     -0.872740
       7A     -0.663277     8A     -0.655255     9A     -0.646537
      10A     -0.554275    11A     -0.528410    12A     -0.476337
      13A     -0.419394

  @DF-RHF Final Energy:  -154.12628493797425

   => Energetics <=

    Nuclear Repulsion Energy =             84.7962393668125571
    One-Electron Energy =                -377.3456497241360239
    Two-Electron Energy =                 138.4231254193492191
    DFT Exchange-Correlation Energy =       0.0000000000000000
    Empirical Dispersion Energy =           0.0000000000000000
    PCM Polarization Energy =               0.0000000000000000
    EFP Energy =                            0.0000000000000000
    Total Energy =                       -154.1262849379742761
    Molecular point group: c1
  Basis Set: CC-PVTZ
  Basis Set:

  -Total Gradient:
     Atom            X                  Y                   Z
    ------   -----------------  -----------------  -----------------
       1       -0.000015879465     0.000052036026    -0.000014405736
       2        0.001069535341    -0.000415439626    -0.001680079195
       3       -0.001298331955     0.000271041031     0.001902509807
       4        0.000006483436    -0.000008257016    -0.000004934978
       5        0.000000227468     0.000033424415    -0.000005731172
       6       -0.001014974301     0.001287032879     0.001527980855
       7        0.001247225462    -0.001234229510    -0.001726961690
       8        0.000014274601     0.000012164350     0.000008574999
       9       -0.000008560587     0.000002227452    -0.000006952889

  **** Optimization is complete! (in 4 steps) ****
    Final optimized geometry and variables:
    Molecular point group: c1

    Geometry (in Angstrom), charge = 0, multiplicity = 1:

    H            1.510435571422    -0.694397114683     1.204392148163
    C            0.620536577827    -0.818590928093     0.604481362890
    O            0.272507861099     0.427131888038     0.098334597942
    H            0.831421769120    -1.526274615595    -0.194112973892
    H           -0.166794653358    -1.232640243332     1.231598458747
    C           -0.870563429433     0.429241812727    -0.692812795289
    H           -0.853252068602     1.320128456659    -1.304456731910
    H           -1.774497342091     0.421689863220    -0.088712717072
    H           -0.895183897824    -0.431486156581    -1.357602380077

  Mulliken Charges: (a.u.)
   Center  Symbol    Alpha    Beta     Spin     Total
       1     H     0.44880  0.44880  0.00000  0.10240
       2     C     3.02176  3.02176  0.00000 -0.04352
       3     O     4.16862  4.16862  0.00000 -0.33724
       4     H     0.47205  0.47205  0.00000  0.05591
       5     H     0.47380  0.47380  0.00000  0.05241
       6     C     3.02034  3.02034  0.00000 -0.04067
       7     H     0.45012  0.45012  0.00000  0.09977
       8     H     0.46853  0.46853  0.00000  0.06294
       9     H     0.47600  0.47600  0.00000  0.04801

   Total alpha = 13.00000, Total beta = 13.00000, Total charge =  0.00000

*** Psi4 exiting successfully. Buy a developer a beer!
