  ==> Input File <==

--------------------------------------------------------------------------
set {
	reference rhf
	basis 6-31G*
}

set_num_threads( 4 )
memory 2 gb

molecule MOL {
0 1

H	 3.089270	 -1.380733	 0.000000
O	 2.178328	 -1.639175	 0.000000
C	 1.368216	 -0.558384	 0.000000
C	 1.640778	 0.575940	 -0.753873
C	 0.231782	 -0.608609	 0.788305
H	 2.525722	 0.612978	 -1.366686
C	 0.777627	 1.658264	 -0.719033
H	 0.020071	 -1.484172	 1.371096
C	 -0.627137	 0.479262	 0.817512
H	 0.999096	 2.530577	 -1.306741
C	 -0.360423	 1.616731	 0.065982
C	 -1.849841	 0.431948	 1.662276
H	 -1.032247	 2.456280	 0.094542
O	 -2.165867	 -0.492956	 2.339938
H	 -2.470369	 1.332424	 1.625731

	symmetry c1
}
set optking {
	frozen_dihedral = ("
		4 3 2 1
	")
}

ee = optimize('scf')
oeprop('DIPOLE', 'QUADRUPOLE', 'MULLIKEN_CHARGES')
f=open( 'psi4out.xyz', 'w' )
f.write( "15  " )
f.write( str(ee) + "\n" )
f.write( MOL.save_string_xyz() )
f.close()
--------------------------------------------------------------------------

    Molecular point group: c1
  Charge       = 0
  Multiplicity = 1
  Basis Set: 6-31G*
  Basis Set:
  @DF-RHF Final Energy:  -418.28433383874886
    Total Energy =                       -418.2843338387488075
    Molecular point group: c1
  Basis Set: 6-31G*
  Basis Set:
  Basis Set: 6-31G*
  Basis Set:
  @DF-RHF Final Energy:  -418.28449248505865
    Total Energy =                       -418.2844924850586494
  Basis Set: 6-31G*
  Basis Set:
  Basis Set: 6-31G*
  Basis Set:
  @DF-RHF Final Energy:  -418.28452710140442
    Total Energy =                       -418.2845271014041373
  Basis Set: 6-31G*
  Basis Set:
  Basis Set: 6-31G*
  Basis Set:
  @DF-RHF Final Energy:  -418.28448703911062
    Total Energy =                       -418.2844870391110135
  Basis Set: 6-31G*
  Basis Set:
  Basis Set: 6-31G*
  Basis Set:
  @DF-RHF Final Energy:  -418.28460219752276
    Total Energy =                       -418.2846021975223039
  Basis Set: 6-31G*
  Basis Set:
  Charge       = 0
  Multiplicity = 1
  Basis Set: 6-31G*
  Basis Set:

    Orbital Energies (a.u.)
    -----------------------

    Doubly Occupied:

       1A    -20.595760     2A    -20.564406     3A    -11.332712
       4A    -11.308930     5A    -11.252732     6A    -11.251647
       7A    -11.250115     8A    -11.248951     9A    -11.240861
      10A     -1.413973    11A     -1.404992    12A     -1.169885
      13A     -1.048759    14A     -1.026885    15A     -0.898767
      16A     -0.845154    17A     -0.809744    18A     -0.736739
      19A     -0.700572    20A     -0.684977    21A     -0.641147
      22A     -0.636336    23A     -0.615310    24A     -0.606157
      25A     -0.559100    26A     -0.548777    27A     -0.540231
      28A     -0.508781    29A     -0.486282    30A     -0.423575
      31A     -0.352934    32A     -0.331694

  @DF-RHF Final Energy:  -418.28460268275541

   => Energetics <=

    Nuclear Repulsion Energy =            402.9153031762779733
    One-Electron Energy =               -1368.3260389865417892
    Two-Electron Energy =                 547.1261331275084103
    DFT Exchange-Correlation Energy =       0.0000000000000000
    Empirical Dispersion Energy =           0.0000000000000000
    PCM Polarization Energy =               0.0000000000000000
    EFP Energy =                            0.0000000000000000
    Total Energy =                       -418.2846026827553487
    Molecular point group: c1
  Basis Set: 6-31G*
  Basis Set:

  -Total Gradient:
     Atom            X                  Y                   Z
    ------   -----------------  -----------------  -----------------
       1        0.000091041231    -0.000004411092     0.002145958546
       2       -0.000552313975    -0.000374517512    -0.003314505984
       3        0.001404918999     0.001072981054     0.002282523286
       4       -0.000842437774    -0.000766101929    -0.001164483242
       5       -0.000102800702     0.000065887167     0.000034643686
       6       -0.000003761629     0.000004581768    -0.000006261652
       7       -0.000118139863     0.000088789015     0.000093185978
       8        0.000006839131    -0.000009355602    -0.000004135622
       9        0.000030070682    -0.000124987912     0.000077491929
      10        0.000008268559    -0.000008306748    -0.000002767869
      11        0.000082578185     0.000050636008    -0.000136114444
      12       -0.000003547005     0.000007688542    -0.000026167724
      13       -0.000008932529    -0.000004054668     0.000007445445
      14        0.000005378009    -0.000002209258     0.000007163330
      15        0.000002838681     0.000003381167     0.000006024337

  **** Optimization is complete! (in 6 steps) ****
    Final optimized geometry and variables:
    Molecular point group: c1

    Geometry (in Angstrom), charge = 0, multiplicity = 1:

    H            2.949501876065    -1.498787163534    -0.543085205485
    O            2.037577988698    -1.752382467620    -0.508431291036
    C            1.232608876126    -0.659046856533    -0.472750868081
    C            1.500128942046     0.468429905827    -1.240041238595
    C            0.092937641397    -0.712536700543     0.305755756960
    H            2.378523741312     0.491981749405    -1.861629541550
    C            0.638845571444     1.550917176383    -1.208393215583
    H           -0.117921150654    -1.586387112800     0.891382733515
    C           -0.775459817946     0.371352844790     0.323055663988
    H            0.856842796601     2.421050810073    -1.800441435913
    C           -0.504568167283     1.506026190456    -0.428490821543
    C           -2.002479717052     0.323112288128     1.159881505581
    H           -1.179204623021     2.343767031480    -0.406870569618
    O           -2.316449596094    -0.598121850121     1.843886566493
    H           -2.629049382141     1.218901398183     1.112359427712

  Mulliken Charges: (a.u.)
   Center  Symbol    Alpha    Beta     Spin     Total
       1     H     0.27118  0.27118  0.00000  0.45765
       2     O     4.37958  4.37958  0.00000 -0.75916
       3     C     2.80492  2.80492  0.00000  0.39017
       4     C     3.12468  3.12468  0.00000 -0.24936
       5     C     3.11052  3.11052  0.00000 -0.22104
       6     H     0.39560  0.39560  0.00000  0.20880
       7     C     3.09758  3.09758  0.00000 -0.19516
       8     H     0.37044  0.37044  0.00000  0.25912
       9     C     3.04802  3.04802  0.00000 -0.09605
      10     H     0.39288  0.39288  0.00000  0.21425
      11     C     3.11217  3.11217  0.00000 -0.22434
      12     C     2.83242  2.83242  0.00000  0.33516
      13     H     0.39273  0.39273  0.00000  0.21453
      14     O     4.24535  4.24535  0.00000 -0.49071
      15     H     0.42193  0.42193  0.00000  0.15615

   Total alpha = 32.00000, Total beta = 32.00000, Total charge =  0.00000
