                              Psi4 1.0.54 Driver

  ==> Input File <==

--------------------------------------------------------------------------
set {
	reference rhf
	basis cc-pvtz
}

set_num_threads( 4 )
memory 2 gb

molecule MOL {
0 1

H	 -2.241140	 1.854023	 -0.068659
O	 -1.401399	 1.419824	 -0.073669
C	 -1.605397	 0.107680	 0.001145
C	 -0.310616	 -0.658853	 0.000791
O	 -2.690598	 -0.357662	 0.062511
C	 0.926581	 0.227233	 0.000178
H	 -0.327628	 -1.313681	 -0.864448
H	 -0.327041	 -1.313334	 0.866298
C	 2.220156	 -0.582071	 -0.000088
H	 0.899945	 0.878221	 -0.866390
H	 0.900542	 0.878581	 0.866486
C	 3.466689	 0.296012	 -0.000457
H	 2.239073	 -1.234095	 -0.869382
H	 2.239505	 -1.233985	 0.869270
H	 3.493549	 0.935857	 -0.875887
H	 4.368821	 -0.304526	 -0.001199
H	 3.494559	 0.935166	 0.875458

	symmetry c1
}
set optking {
	frozen_dihedral = ("
		2 3 4 7
	")
}

ee,wfn = optimize('scf', return_wfn=True)
oeprop( wfn, 'DIPOLE', 'QUADRUPOLE', 'MULLIKEN_CHARGES')
f=open( 'psi4out.xyz', 'w' )
f.write( "17  " )
f.write( str(ee) + "\n" )
f.write( MOL.save_string_xyz() )
f.close()
--------------------------------------------------------------------------

    Molecular point group: c1
  Charge       = 0
  Multiplicity = 1
  Basis Set: CC-PVTZ
  Basis Set:
  @DF-RHF Final Energy:  -345.04479869336637
    Total Energy =                       -345.0447986933663742
    Molecular point group: c1
  Basis Set: CC-PVTZ
  Basis Set:
  Basis Set: CC-PVTZ
  Basis Set:
  @DF-RHF Final Energy:  -345.04574409394257
    Total Energy =                       -345.0457440939426874
  Basis Set: CC-PVTZ
  Basis Set:
  Basis Set: CC-PVTZ
  Basis Set:
  @DF-RHF Final Energy:  -345.04598905312292
    Total Energy =                       -345.0459890531230940
  Basis Set: CC-PVTZ
  Basis Set:
  Basis Set: CC-PVTZ
  Basis Set:
  @DF-RHF Final Energy:  -345.04600506375141
    Total Energy =                       -345.0460050637513518
  Basis Set: CC-PVTZ
  Basis Set:
  Basis Set: CC-PVTZ
  Basis Set:
  @DF-RHF Final Energy:  -345.04613675597187
    Total Energy =                       -345.0461367559716450
  Basis Set: CC-PVTZ
  Basis Set:
  Charge       = 0
  Multiplicity = 1
  Basis Set: CC-PVTZ
  Basis Set:

    Orbital Energies (a.u.)
    -----------------------

    Doubly Occupied:

       1A    -20.607142     2A    -20.535959     3A    -11.374290
       4A    -11.239646     5A    -11.225286     6A    -11.223190
       7A    -11.213290     8A     -1.479097     9A     -1.367689
      10A     -1.095081    11A     -1.019938    12A     -0.910029
      13A     -0.828473    14A     -0.809198    15A     -0.702947
      16A     -0.677990    17A     -0.672925    18A     -0.632435
      19A     -0.593563    20A     -0.581685    21A     -0.576747
      22A     -0.535712    23A     -0.518842    24A     -0.500852
      25A     -0.483902    26A     -0.482707    27A     -0.468166
      28A     -0.436431

  @DF-RHF Final Energy:  -345.04613918245877

   => Energetics <=

    Nuclear Repulsion Energy =            305.3474453629648906
    One-Electron Energy =               -1075.2007472671098185
    Two-Electron Energy =                 424.8071627216860406
    DFT Exchange-Correlation Energy =       0.0000000000000000
    Empirical Dispersion Energy =           0.0000000000000000
    PCM Polarization Energy =               0.0000000000000000
    EFP Energy =                            0.0000000000000000
    Total Energy =                       -345.0461391824588873
    Molecular point group: c1
  Basis Set: CC-PVTZ
  Basis Set:

  -Total Gradient:
     Atom            X                  Y                   Z
    ------   -----------------  -----------------  -----------------
       1        0.000021802243    -0.000056706878     0.000000523828
       2       -0.000019073983    -0.000004415315     0.000145328162
       3        0.000105270340     0.000022698365    -0.000174665852
       4        0.000025886744     0.000181302311    -0.000055942583
       5       -0.000096733176    -0.000013562353    -0.000001711370
       6        0.000002724273     0.000014033798    -0.000010301488
       7       -0.000058004887    -0.000131431049     0.000103474654
       8       -0.000005471085    -0.000006752419    -0.000003787726
       9        0.000017442861    -0.000003470718    -0.000000691088
      10        0.000009883432    -0.000001943163     0.000007652659
      11        0.000007544309    -0.000008641206    -0.000013408848
      12        0.000003096532     0.000001477876     0.000002426754
      13       -0.000003939247     0.000007118325    -0.000001526677
      14       -0.000004242765     0.000003305477     0.000000969478
      15       -0.000001416903    -0.000001516067    -0.000001594825
      16       -0.000004327453    -0.000001841615     0.000001206195
      17       -0.000000441232     0.000000344630     0.000002048725

  **** Optimization is complete! (in 6 steps) ****
    Final optimized geometry and variables:
    Molecular point group: c1

    Geometry (in Angstrom), charge = 0, multiplicity = 1:

    H           -2.524910375718     1.600213387507     0.060390763723
    O           -1.636036180047     1.280663752796     0.015278414752
    C           -1.671632646290    -0.045013829713     0.062887154672
    C           -0.317695885747    -0.708517559541    -0.007089375795
    O           -2.690175791197    -0.641431679733     0.148832676192
    C            0.903126026034     0.204018196186    -0.026986550188
    H           -0.344478565671    -1.336820202994    -0.890968390162
    H           -0.279992501905    -1.389307899402     0.835494276036
    C            2.206986624552    -0.586758265881    -0.089926850776
    H            0.843830599891     0.874702473994    -0.876741796257
    H            0.902657547567     0.832534178259     0.856944223131
    C            3.441531325784     0.307804211391    -0.109575019083
    H            2.204357551907    -1.216698721978    -0.975316149330
    H            2.262834609282    -1.259266866652     0.761691002946
    H            3.431949395517     0.968651771795    -0.969716444308
    H            4.350421789851    -0.280578901310    -0.154433358531
    H            3.490744990955     0.925911488718     0.780477989295

  Mulliken Charges: (a.u.)
   Center  Symbol    Alpha    Beta     Spin     Total
       1     H     0.38600  0.38600  0.00000  0.22799
       2     O     4.14788  4.14788  0.00000 -0.29575
       3     C     2.81219  2.81219  0.00000  0.37562
       4     C     3.10228  3.10228  0.00000 -0.20455
       5     O     4.19778  4.19778  0.00000 -0.39556
       6     C     3.08703  3.08703  0.00000 -0.17405
       7     H     0.43709  0.43709  0.00000  0.12583
       8     H     0.43585  0.43585  0.00000  0.12831
       9     C     3.08809  3.08809  0.00000 -0.17618
      10     H     0.44650  0.44650  0.00000  0.10699
      11     H     0.44722  0.44722  0.00000  0.10556
      12     C     3.14960  3.14960  0.00000 -0.29920
      13     H     0.45369  0.45369  0.00000  0.09262
      14     H     0.45355  0.45355  0.00000  0.09291
      15     H     0.45408  0.45408  0.00000  0.09183
      16     H     0.44710  0.44710  0.00000  0.10580
      17     H     0.45408  0.45408  0.00000  0.09184

   Total alpha = 28.00000, Total beta = 28.00000, Total charge =  0.00000

*** Psi4 exiting successfully. Buy a developer a beer!
