  ==> Input File <==

--------------------------------------------------------------------------
set {
	reference rhf
	basis 6-31G*
}

set_num_threads( 4 )
memory 2 gb

molecule MOL {
0 1

H	 -2.540319	 1.038766	 1.187947
C	 -1.910240	 1.756398	 1.709623
O	 -0.560670	 1.457906	 1.551819
H	 -2.078044	 2.739003	 1.290731
H	 -2.197831	 1.768367	 2.760135
C	 -0.189244	 0.213645	 2.054916
C	 1.263565	 -0.043037	 1.729850
H	 -0.324481	 0.187603	 3.136918
H	 -0.798711	 -0.576749	 1.621522
O	 1.392611	 -0.295398	 0.366430
H	 1.854541	 0.823035	 2.020836
H	 1.614343	 -0.899054	 2.307676
C	 2.706965	 -0.449871	 -0.062409
H	 2.756559	 -0.644779	 -1.131878
H	 3.305899	 0.433456	 0.155466
H	 3.125548	 -1.294566	 0.467107

	symmetry c1
}
set optking {
	frozen_dihedral = ("
		7 10 13 14
	")
}

ee = optimize('scf')
oeprop('DIPOLE', 'QUADRUPOLE', 'MULLIKEN_CHARGES')
f=open( 'psi4out.xyz', 'w' )
f.write( "16  " )
f.write( str(ee) + "\n" )
f.write( MOL.save_string_xyz() )
f.close()
--------------------------------------------------------------------------

    Molecular point group: c1
  Charge       = 0
  Multiplicity = 1
  Basis Set: 6-31G*
  Basis Set:
  @DF-RHF Final Energy:  -306.97650331677966
    Total Energy =                       -306.9765033167794286
    Molecular point group: c1
  Basis Set: 6-31G*
  Basis Set:
  Basis Set: 6-31G*
  Basis Set:
  @DF-RHF Final Energy:  -306.97744462478431
    Total Energy =                       -306.9774446247843116
  Basis Set: 6-31G*
  Basis Set:
  Basis Set: 6-31G*
  Basis Set:
  @DF-RHF Final Energy:  -306.97773029232661
    Total Energy =                       -306.9777302923266689
  Basis Set: 6-31G*
  Basis Set:
  Basis Set: 6-31G*
  Basis Set:
  @DF-RHF Final Energy:  -306.97773138921872
    Total Energy =                       -306.9777313892187749
  Basis Set: 6-31G*
  Basis Set:
  Charge       = 0
  Multiplicity = 1
  Basis Set: 6-31G*
  Basis Set:

    Orbital Energies (a.u.)
    -----------------------

    Doubly Occupied:

       1A    -20.553586     2A    -20.553583     3A    -11.269080
       4A    -11.268422     5A    -11.263550     6A    -11.263548
       7A     -1.388274     8A     -1.370663     9A     -1.030827
      10A     -0.936060    11A     -0.891972    12A     -0.824038
      13A     -0.684128    14A     -0.680511    15A     -0.656935
      16A     -0.635740    17A     -0.629898    18A     -0.597141
      19A     -0.550599    20A     -0.535426    21A     -0.508986
      22A     -0.477534    23A     -0.462653    24A     -0.419767
      25A     -0.410560

  @DF-RHF Final Energy:  -306.97773176006899

   => Energetics <=

    Nuclear Repulsion Energy =            258.8309509665172072
    One-Electron Energy =                -931.8904088651313486
    Two-Electron Energy =                 366.0817261385453207
    DFT Exchange-Correlation Energy =       0.0000000000000000
    Empirical Dispersion Energy =           0.0000000000000000
    PCM Polarization Energy =               0.0000000000000000
    EFP Energy =                            0.0000000000000000
    Total Energy =                       -306.9777317600688207
    Molecular point group: c1
  Basis Set: 6-31G*
  Basis Set:

  -Total Gradient:
     Atom            X                  Y                   Z
    ------   -----------------  -----------------  -----------------
       1       -0.000001043270     0.000000337280     0.000000109938
       2        0.000000772959    -0.000000765617    -0.000001669129
       3       -0.000006973363    -0.000002653791    -0.000003524544
       4       -0.000000034022     0.000000125257     0.000000041798
       5        0.000000497115    -0.000000183651     0.000000291178
       6        0.000005296739     0.000010041860     0.000008198061
       7        0.000001903571     0.000029749744    -0.000002137312
       8       -0.000002825673    -0.000001406510     0.000003549239
       9        0.000003627231     0.000005185588    -0.000002159018
      10       -0.000001178814    -0.000037613520     0.000002910769
      11       -0.000004060646    -0.000001839850    -0.000005009509
      12        0.000003781897    -0.000001847765    -0.000004439752
      13        0.000020345125    -0.000051442666     0.000005293262
      14       -0.000003482085     0.000051749112    -0.000005931763
      15       -0.000011865816    -0.000000032514     0.000001691198
      16       -0.000004760949     0.000000597047     0.000002785582

  **** Optimization is complete! (in 5 steps) ****
    Final optimized geometry and variables:
    Molecular point group: c1

    Geometry (in Angstrom), charge = 0, multiplicity = 1:

    H           -2.988761969499     0.601564148146    -0.042708887341
    C           -2.359404823214     1.316974986656     0.482880305763
    O           -1.009722414505     1.015837606717     0.330662273394
    H           -2.523355762876     2.300648758563     0.065001983388
    H           -2.651254946170     1.327527826640     1.532170088140
    C           -0.643123479999    -0.229999021661     0.833535477412
    C            0.810526681284    -0.489545103869     0.514468207877
    H           -0.783534397981    -0.257622311953     1.914831598411
    H           -1.252391029632    -1.018210039423     0.396007190737
    O            0.945363981740    -0.739100680069    -0.848957109882
    H            1.402161804365     0.374541962522     0.809806353702
    H            1.156927783001    -1.347476678564     1.092084959514
    C            2.261400173345    -0.895839548494    -1.272048906918
    H            2.241656705730    -1.082954728298    -2.336802520225
    H            2.849735443806    -0.000175314458    -1.082874662172
    H            2.743914738403    -1.736758353918    -0.775754541007

  Mulliken Charges: (a.u.)
   Center  Symbol    Alpha    Beta     Spin     Total
       1     H     0.42807  0.42807  0.00000  0.14386
       2     C     3.07951  3.07951  0.00000 -0.15901
       3     O     4.30090  4.30090  0.00000 -0.60180
       4     H     0.41128  0.41128  0.00000  0.17744
       5     H     0.43188  0.43188  0.00000  0.13625
       6     C     2.99336  2.99336  0.00000  0.01327
       7     C     2.99336  2.99336  0.00000  0.01328
       8     H     0.43226  0.43226  0.00000  0.13549
       9     H     0.42275  0.42275  0.00000  0.15450
      10     O     4.30090  4.30090  0.00000 -0.60181
      11     H     0.42274  0.42274  0.00000  0.15451
      12     H     0.43227  0.43227  0.00000  0.13547
      13     C     3.07950  3.07950  0.00000 -0.15901
      14     H     0.41127  0.41127  0.00000  0.17747
      15     H     0.42811  0.42811  0.00000  0.14377
      16     H     0.43184  0.43184  0.00000  0.13632

   Total alpha = 25.00000, Total beta = 25.00000, Total charge =  0.00000
