  ==> Input File <==

--------------------------------------------------------------------------
set {
	reference rhf
	basis cc-pvtz
}

set_num_threads( 4 )
memory 2 gb

molecule MOL {
0 1

H	 -3.144994	 -1.202467	 -0.018751
O	 -2.321472	 -0.864941	 -0.318626
C	 -2.021813	 0.336996	 0.342658
C	 -0.669613	 0.837286	 -0.127252
H	 -2.780861	 1.084746	 0.127159
H	 -2.006390	 0.184138	 1.420053
C	 0.490865	 -0.082543	 0.241244
H	 -0.708709	 0.967192	 -1.204587
H	 -0.507562	 1.822272	 0.303070
C	 0.165850	 -1.560887	 0.047671
H	 0.772570	 0.095010	 1.272832
H	 1.357526	 0.175552	 -0.364073
C	 1.327734	 -2.480517	 0.408355
H	 -0.698337	 -1.819490	 0.653482
H	 -0.123805	 -1.735732	 -0.985392
H	 1.617619	 -2.354367	 1.446126
H	 1.065264	 -3.522191	 0.262311
H	 2.198323	 -2.270047	 -0.204198

	symmetry c1
}
set optking {
	frozen_dihedral = ("
		10 7 4 8
	")
}

ee = optimize('scf')
oeprop('DIPOLE', 'QUADRUPOLE', 'MULLIKEN_CHARGES')
f=open( 'psi4out.xyz', 'w' )
f.write( "18  " )
f.write( str(ee) + "\n" )
f.write( MOL.save_string_xyz() )
f.close()
--------------------------------------------------------------------------

    Molecular point group: c1
  Charge       = 0
  Multiplicity = 1
  Basis Set: CC-PVTZ
  Basis Set:
  @DF-RHF Final Energy:  -271.27308102418056
    Total Energy =                       -271.2730810241803283
    Molecular point group: c1
  Basis Set: CC-PVTZ
  Basis Set:
  Basis Set: CC-PVTZ
  Basis Set:
  @DF-RHF Final Energy:  -271.28004076484893
    Total Energy =                       -271.2800407648489909
  Basis Set: CC-PVTZ
  Basis Set:
  Basis Set: CC-PVTZ
  Basis Set:
  @DF-RHF Final Energy:  -271.28144582368736
    Total Energy =                       -271.2814458236871360
  Basis Set: CC-PVTZ
  Basis Set:
  Basis Set: CC-PVTZ
  Basis Set:
  @DF-RHF Final Energy:  -271.28179467399389
    Total Energy =                       -271.2817946739937724
  Basis Set: CC-PVTZ
  Basis Set:
  Basis Set: CC-PVTZ
  Basis Set:
  @DF-RHF Final Energy:  -271.28185329058203
    Total Energy =                       -271.2818532905819211
  Basis Set: CC-PVTZ
  Basis Set:
  Basis Set: CC-PVTZ
  Basis Set:
  @DF-RHF Final Energy:  -271.28188459626676
    Total Energy =                       -271.2818845962669911
  Basis Set: CC-PVTZ
  Basis Set:
  Basis Set: CC-PVTZ
  Basis Set:
  @DF-RHF Final Energy:  -271.28188789691023
    Total Energy =                       -271.2818878969102343
  Basis Set: CC-PVTZ
  Basis Set:
  Charge       = 0
  Multiplicity = 1
  Basis Set: CC-PVTZ
  Basis Set:

    Orbital Energies (a.u.)
    -----------------------

    Doubly Occupied:

       1A    -20.546339     2A    -11.267273     3A    -11.211763
       4A    -11.208629     5A    -11.202034     6A    -11.199624
       7A     -1.364548     8A     -1.073291     9A     -1.007567
      10A     -0.914121    11A     -0.830085    12A     -0.770863
      13A     -0.705637    14A     -0.651140    15A     -0.619425
      16A     -0.579077    17A     -0.571310    18A     -0.553818
      19A     -0.532950    20A     -0.505169    21A     -0.486321
      22A     -0.466362    23A     -0.450918    24A     -0.449121
      25A     -0.428660

  @DF-RHF Final Energy:  -271.28188814488863

   => Energetics <=

    Nuclear Repulsion Energy =            254.9539757494032983
    One-Electron Energy =                -873.2796338018235929
    Two-Electron Energy =                 347.0437699075317823
    DFT Exchange-Correlation Energy =       0.0000000000000000
    Empirical Dispersion Energy =           0.0000000000000000
    PCM Polarization Energy =               0.0000000000000000
    EFP Energy =                            0.0000000000000000
    Total Energy =                       -271.2818881448885122
    Molecular point group: c1
  Basis Set: CC-PVTZ
  Basis Set:

  -Total Gradient:
     Atom            X                  Y                   Z
    ------   -----------------  -----------------  -----------------
       1        0.000005465470     0.000010307763     0.000000824559
       2        0.000006808186     0.000007948334     0.000007112151
       3       -0.000012031944    -0.000001727499    -0.000006841585
       4       -0.003764022521    -0.004350994092     0.000931396439
       5       -0.000002788747     0.000001797224    -0.000001611281
       6        0.000005329186    -0.000000402578    -0.000003261781
       7        0.002279340043     0.001088380678    -0.004299437558
       8        0.002604066895     0.003419930571     0.000348146052
       9       -0.000012368030    -0.000005110617     0.000003645727
      10       -0.001111803824    -0.000139024964     0.003019299806
      11       -0.000005632148    -0.000004881628    -0.000007430141
      12        0.000011448954    -0.000002802718     0.000000385959
      13       -0.000015379864    -0.000003174777    -0.000016002527
      14       -0.000008250526    -0.000005850933     0.000014675667
      15        0.000009011234     0.000002265288     0.000003949810
      16       -0.000000253766     0.000002145990    -0.000000978821
      17        0.000007854605    -0.000018692730     0.000000655471
      18        0.000003206795    -0.000000113312     0.000005472052

  **** Optimization is complete! (in 8 steps) ****
    Final optimized geometry and variables:
    Molecular point group: c1

    Geometry (in Angstrom), charge = 0, multiplicity = 1:

    H           -2.874877963003    -0.246099401415    -0.207449416134
    O           -2.021283795130    -0.007231822138    -0.518312765716
    C           -1.497122320277     1.031772428111     0.267373445582
    C           -0.113662020610     1.410416945023    -0.229256302891
    H           -2.143660222804     1.903094778031     0.205061574881
    H           -1.450338438644     0.735110010978     1.313761376228
    C            1.048512658686     0.485100011977     0.155870790693
    H           -0.149094961797     1.546980351462    -1.305329480846
    H            0.110249478556     2.394327226069     0.175018024780
    C            0.821639799636    -1.017056218129    -0.006435902266
    H            1.305823885006     0.673981218717     1.196318046349
    H            1.918912462355     0.780911750867    -0.422600123176
    C            2.065709535219    -1.826295449382     0.346851146763
    H           -0.003336695089    -1.333893821352     0.619620344477
    H            0.521991262451    -1.235837703343    -1.025826591499
    H            2.372933645778    -1.648302352493     1.372704300352
    H            1.885593791091    -2.889728233067     0.236914745494
    H            2.900743107895    -1.565201582692    -0.295240165727

  Mulliken Charges: (a.u.)
   Center  Symbol    Alpha    Beta     Spin     Total
       1     H     0.39618  0.39618  0.00000  0.20765
       2     O     4.19819  4.19819  0.00000 -0.39639
       3     C     2.98414  2.98414  0.00000  0.03171
       4     C     3.09494  3.09494  0.00000 -0.18988
       5     H     0.45866  0.45866  0.00000  0.08268
       6     H     0.46931  0.46931  0.00000  0.06139
       7     C     3.09727  3.09727  0.00000 -0.19454
       8     H     0.45001  0.45001  0.00000  0.09998
       9     H     0.45041  0.45041  0.00000  0.09917
      10     C     3.07588  3.07588  0.00000 -0.15177
      11     H     0.45661  0.45661  0.00000  0.08677
      12     H     0.45091  0.45091  0.00000  0.09818
      13     C     3.15137  3.15137  0.00000 -0.30273
      14     H     0.45407  0.45407  0.00000  0.09187
      15     H     0.44899  0.44899  0.00000  0.10202
      16     H     0.45786  0.45786  0.00000  0.08428
      17     H     0.44898  0.44898  0.00000  0.10204
      18     H     0.45622  0.45622  0.00000  0.08757

   Total alpha = 25.00000, Total beta = 25.00000, Total charge = -0.00000
