  ==> Input File <==

--------------------------------------------------------------------------
set {
	reference rhf
	basis 6-31G*
}

set_num_threads( 4 )
memory 2 gb

molecule MOL {
0 1

H	 -3.248585	 2.013836	 -0.587631
O	 -2.546400	 1.423644	 -0.821114
C	 -2.306886	 0.532354	 0.237577
C	 -1.177863	 -0.397191	 -0.171080
H	 -2.034111	 1.075531	 1.141380
H	 -3.202549	 -0.045301	 0.462171
C	 0.198102	 0.111031	 0.262842
H	 -1.208843	 -0.518759	 -1.250427
H	 -1.368741	 -1.376554	 0.258909
C	 1.331804	 -0.827780	 -0.158768
H	 0.361943	 1.100838	 -0.156218
H	 0.217265	 0.229072	 1.345532
C	 2.723619	 -0.410569	 0.329459
H	 1.342964	 -0.912588	 -1.244120
H	 1.116806	 -1.824343	 0.220779
C	 3.243875	 0.895854	 -0.272975
H	 3.424222	 -1.207124	 0.091250
H	 2.714788	 -0.329854	 1.414619
H	 3.251977	 0.848779	 -1.358681
H	 2.637085	 1.747371	 0.016682
H	 4.259473	 1.094070	 0.055697

	symmetry c1
}
set optking {
	frozen_dihedral = ("
		2 3 4 8
	")
}

ee = optimize('scf')
oeprop('DIPOLE', 'QUADRUPOLE', 'MULLIKEN_CHARGES')
f=open( 'psi4out.xyz', 'w' )
f.write( "21  " )
f.write( str(ee) + "\n" )
f.write( MOL.save_string_xyz() )
f.close()
--------------------------------------------------------------------------

    Molecular point group: c1
  Charge       = 0
  Multiplicity = 1
  Basis Set: 6-31G*
  Basis Set:
  @DF-RHF Final Energy:  -310.20960492427480
    Total Energy =                       -310.2096049242747995
    Molecular point group: c1
  Basis Set: 6-31G*
  Basis Set:
  Basis Set: 6-31G*
  Basis Set:
  @DF-RHF Final Energy:  -310.21002688929048
    Total Energy =                       -310.2100268892903614
  Basis Set: 6-31G*
  Basis Set:
  Basis Set: 6-31G*
  Basis Set:
  @DF-RHF Final Energy:  -310.21013361652564
    Total Energy =                       -310.2101336165258658
  Basis Set: 6-31G*
  Basis Set:
  Basis Set: 6-31G*
  Basis Set:
  @DF-RHF Final Energy:  -310.21012956397487
    Total Energy =                       -310.2101295639753289
  Basis Set: 6-31G*
  Basis Set:
  Basis Set: 6-31G*
  Basis Set:
  @DF-RHF Final Energy:  -310.21013574686560
    Total Energy =                       -310.2101357468655465
  Basis Set: 6-31G*
  Basis Set:
  Basis Set: 6-31G*
  Basis Set:
  @DF-RHF Final Energy:  -310.21014065646386
    Total Energy =                       -310.2101406564638069
  Basis Set: 6-31G*
  Basis Set:
  Charge       = 0
  Multiplicity = 1
  Basis Set: 6-31G*
  Basis Set:

    Orbital Energies (a.u.)
    -----------------------

    Doubly Occupied:

       1A    -20.552295     2A    -11.267467     3A    -11.212443
       4A    -11.211086     5A    -11.210282     6A    -11.209426
       7A    -11.204842     8A     -1.358377     9A     -1.082280
      10A     -1.029950    11A     -0.952356    12A     -0.874863
      13A     -0.804259    14A     -0.774929    15A     -0.704408
      16A     -0.638300    17A     -0.626954    18A     -0.600820
      19A     -0.590524    20A     -0.561717    21A     -0.539888
      22A     -0.518213    23A     -0.503834    24A     -0.492596
      25A     -0.476559    26A     -0.458097    27A     -0.455066
      28A     -0.445263    29A     -0.423546

  @DF-RHF Final Energy:  -310.21014142112438

   => Energetics <=

    Nuclear Repulsion Energy =            315.7822132395997414
    One-Electron Energy =               -1046.4234374884435965
    Two-Electron Energy =                 420.4310828277195355
    DFT Exchange-Correlation Energy =       0.0000000000000000
    Empirical Dispersion Energy =           0.0000000000000000
    PCM Polarization Energy =               0.0000000000000000
    EFP Energy =                            0.0000000000000000
    Total Energy =                       -310.2101414211243195
    Molecular point group: c1
  Basis Set: 6-31G*
  Basis Set:

  -Total Gradient:
     Atom            X                  Y                   Z
    ------   -----------------  -----------------  -----------------
       1       -0.000008832714     0.000033662635    -0.000029827302
       2       -0.002578411332    -0.002383987182    -0.001497412271
       3        0.003991439402     0.003833979608     0.001869557677
       4       -0.004512578226    -0.005286512288     0.000105249123
       5       -0.000002539203     0.000011614193    -0.000019005878
       6       -0.000007869056     0.000000375411     0.000011526313
       7       -0.000023811423    -0.000008798522     0.000053027340
       8        0.003113403701     0.003778394255    -0.000459922948
       9       -0.000002092696     0.000018197917    -0.000002472096
      10        0.000004881708     0.000003965288    -0.000055092549
      11       -0.000008180577    -0.000019213017     0.000000554402
      12        0.000003483830     0.000009279885     0.000005437855
      13       -0.000001039427    -0.000003630114     0.000041473857
      14        0.000011064047    -0.000028929663    -0.000012980246
      15       -0.000025076402     0.000029510671    -0.000002588604
      16        0.000010430297     0.000001360220    -0.000012261310
      17        0.000007825486     0.000025789100    -0.000001831980
      18        0.000015494581    -0.000016311932     0.000010353344
      19        0.000002701687     0.000002595837    -0.000000860898
      20        0.000011833905    -0.000009748955     0.000001209813
      21       -0.000002127590     0.000008406652    -0.000004133640

  **** Optimization is complete! (in 7 steps) ****
    Final optimized geometry and variables:
    Molecular point group: c1

    Geometry (in Angstrom), charge = 0, multiplicity = 1:

    H           -3.285789675146     1.852861542957    -0.530839416513
    O           -2.647835624668     1.191388797751    -0.758158246782
    C           -2.471184453132     0.311880789242     0.325843362150
    C           -1.344683695484    -0.656426546797    -0.023405275926
    H           -2.235353884081     0.860996163372     1.235490832853
    H           -3.393955766687    -0.236048437529     0.507113031811
    C            0.037199115538    -0.138907997723     0.388727112220
    H           -1.353129021586    -0.782861963171    -1.101400487842
    H           -1.529842653347    -1.624441303274     0.433820710319
    C            1.173140180804    -1.058665086437    -0.065052080744
    H            0.169124982410     0.855454992712    -0.027524703872
    H            0.075147066523    -0.030787869058     1.472184591360
    C            2.568163962751    -0.635070028032     0.408857145797
    H            1.168925162132    -1.125387212572    -1.151797938636
    H            0.975246909982    -2.064607801503     0.300752816626
    C            3.061127264377     0.690087279989    -0.175288382845
    H            3.274872672085    -1.417494568480     0.143013194108
    H            2.576377646818    -0.576400308521     1.495531212506
    H            3.052845373160     0.664360007461    -1.261622032721
    H            2.446312947907     1.526493384373     0.139768518551
    H            4.078870512693     0.896322447870     0.141946354364

  Mulliken Charges: (a.u.)
   Center  Symbol    Alpha    Beta     Spin     Total
       1     H     0.28134  0.28134  0.00000  0.43733
       2     O     4.37093  4.37093  0.00000 -0.74185
       3     C     2.99754  2.99754  0.00000  0.00491
       4     C     3.16090  3.16090  0.00000 -0.32179
       5     H     0.43129  0.43129  0.00000  0.13743
       6     H     0.42961  0.42961  0.00000  0.14078
       7     C     3.15927  3.15927  0.00000 -0.31854
       8     H     0.40769  0.40769  0.00000  0.18461
       9     H     0.42221  0.42221  0.00000  0.15559
      10     C     3.15290  3.15290  0.00000 -0.30580
      11     H     0.41240  0.41240  0.00000  0.17519
      12     H     0.42715  0.42715  0.00000  0.14570
      13     C     3.15209  3.15209  0.00000 -0.30418
      14     H     0.42261  0.42261  0.00000  0.15478
      15     H     0.42382  0.42382  0.00000  0.15236
      16     C     3.24099  3.24099  0.00000 -0.48197
      17     H     0.42158  0.42158  0.00000  0.15683
      18     H     0.42430  0.42430  0.00000  0.15140
      19     H     0.42157  0.42157  0.00000  0.15686
      20     H     0.41961  0.41961  0.00000  0.16079
      21     H     0.42021  0.42021  0.00000  0.15957

   Total alpha = 29.00000, Total beta = 29.00000, Total charge = -0.00000
