  ==> Input File <==

--------------------------------------------------------------------------
set {
	reference rhf
	basis cc-pvtz
}

set_num_threads( 4 )
memory 2 gb

molecule MOL {
0 1

O	 -0.988175	 -1.402891	 0.050086
C	 -0.675048	 -0.248293	 -0.009686
C	 -1.742492	 0.826599	 -0.011538
N	 0.622280	 0.144970	 -0.099307
H	 -1.692153	 1.431066	 -0.908439
H	 -2.698310	 0.331559	 0.031353
H	 -1.642148	 1.483784	 0.843455
C	 1.530789	 -0.624713	 -0.922804
C	 1.250362	 1.067839	 0.815887
H	 2.211111	 0.045605	 -1.433744
H	 0.972174	 -1.187256	 -1.648529
H	 2.118388	 -1.315380	 -0.323357
H	 2.004421	 1.636041	 0.286568
H	 0.542141	 1.768350	 1.224056
H	 1.739057	 0.553025	 1.640015

	symmetry c1
}
set optking {
	frozen_dihedral = ("
		8 4 2 3
	")
}

ee = optimize('scf')
oeprop('DIPOLE', 'QUADRUPOLE', 'MULLIKEN_CHARGES')
f=open( 'psi4out.xyz', 'w' )
f.write( "15  " )
f.write( str(ee) + "\n" )
f.write( MOL.save_string_xyz() )
f.close()
--------------------------------------------------------------------------

    Molecular point group: c1
  Charge       = 0
  Multiplicity = 1
  Basis Set: CC-PVTZ
  Basis Set:
  @DF-RHF Final Energy:  -286.11849704705719
    Total Energy =                       -286.1184970470574171
    Molecular point group: c1
  Basis Set: CC-PVTZ
  Basis Set:
  Basis Set: CC-PVTZ
  Basis Set:
  @DF-RHF Final Energy:  -286.12147221102964
    Total Energy =                       -286.1214722110298112
  Basis Set: CC-PVTZ
  Basis Set:
  Basis Set: CC-PVTZ
  Basis Set:
  @DF-RHF Final Energy:  -286.12293085361313
    Total Energy =                       -286.1229308536131839
  Basis Set: CC-PVTZ
  Basis Set:
  Basis Set: CC-PVTZ
  Basis Set:
  @DF-RHF Final Energy:  -286.12345220195994
    Total Energy =                       -286.1234522019600490
  Basis Set: CC-PVTZ
  Basis Set:
  @DF-RHF Final Energy:  -286.12390872751553
    Total Energy =                       -286.1239087275157544
  @DF-RHF Final Energy:  -286.12430703279256
    Total Energy =                       -286.1243070327925011
  @DF-RHF Final Energy:  -286.12507437242004
    Total Energy =                       -286.1250743724203289
  @DF-RHF Final Energy:  -286.12569650677392
    Total Energy =                       -286.1256965067738065
  @DF-RHF Final Energy:  -286.12659889809174
    Total Energy =                       -286.1265988980915154
  @DF-RHF Final Energy:  -286.12755658312574
    Total Energy =                       -286.1275565831256813
  @DF-RHF Final Energy:  -286.12831971666691
    Total Energy =                       -286.1283197166670220
  @DF-RHF Final Energy:  -286.12889931169229
    Total Energy =                       -286.1288993116919528
  @DF-RHF Final Energy:  -286.12913719884364
    Total Energy =                       -286.1291371988434662
  @DF-RHF Final Energy:  -286.12916504958901
    Total Energy =                       -286.1291650495890622
  Basis Set: CC-PVTZ
  Basis Set:
  @DF-RHF Final Energy:  -286.12923449953189
    Total Energy =                       -286.1292344995320036
  Basis Set: CC-PVTZ
  Basis Set:
  Basis Set: CC-PVTZ
  Basis Set:
  @DF-RHF Final Energy:  -286.12924812479588
    Total Energy =                       -286.1292481247956516
  Basis Set: CC-PVTZ
  Basis Set:
  Basis Set: CC-PVTZ
  Basis Set:
  @DF-RHF Final Energy:  -286.12924932123383
    Total Energy =                       -286.1292493212338854
  Basis Set: CC-PVTZ
  Basis Set:
  Charge       = 0
  Multiplicity = 1
  Basis Set: CC-PVTZ
  Basis Set:

    Orbital Energies (a.u.)
    -----------------------

    Doubly Occupied:

       1A    -20.512029     2A    -15.574277     3A    -11.338023
       4A    -11.260820     5A    -11.249056     6A    -11.228856
       7A     -1.393496     8A     -1.244715     9A     -1.014671
      10A     -0.969814    11A     -0.918419    12A     -0.738333
      13A     -0.684203    14A     -0.661975    15A     -0.652576
      16A     -0.591476    17A     -0.577921    18A     -0.571863
      19A     -0.561244    20A     -0.551565    21A     -0.528705
      22A     -0.505811    23A     -0.418699    24A     -0.372592

  @DF-RHF Final Energy:  -286.12924971693258

   => Energetics <=

    Nuclear Repulsion Energy =            253.1836962361065559
    One-Electron Energy =                -890.3836152496521663
    Two-Electron Energy =                 351.0706692966128912
    DFT Exchange-Correlation Energy =       0.0000000000000000
    Empirical Dispersion Energy =           0.0000000000000000
    PCM Polarization Energy =               0.0000000000000000
    EFP Energy =                            0.0000000000000000
    Total Energy =                       -286.1292497169326907
    Molecular point group: c1
  Basis Set: CC-PVTZ
  Basis Set:

  -Total Gradient:
     Atom            X                  Y                   Z
    ------   -----------------  -----------------  -----------------
       1       -0.000076972585    -0.000026708555     0.000076348899
       2       -0.001823612915    -0.000222334093     0.008566071666
       3        0.001330524049     0.002123318221    -0.006965597605
       4        0.000197015568    -0.008310254566     0.002531725576
       5        0.000031664387    -0.000002189124    -0.000021532472
       6       -0.000010730978     0.000013223402     0.000003075106
       7        0.000002569755     0.000013802297    -0.000023878514
       8        0.000340185842     0.006460968806    -0.004200917987
       9        0.000012268044    -0.000038199810     0.000049131287
      10       -0.000004164031     0.000001720407    -0.000003968039
      11        0.000004144197    -0.000004767867    -0.000015975994
      12        0.000005353453    -0.000006658038     0.000000009902
      13       -0.000006247381     0.000001069736    -0.000015267302
      14       -0.000011655462     0.000004679045     0.000017930573
      15        0.000009658055    -0.000007669863     0.000002844904

  **** Optimization is complete! (in 18 steps) ****
    Final optimized geometry and variables:
    Molecular point group: c1

    Geometry (in Angstrom), charge = 0, multiplicity = 1:

    O           -1.128344350031    -1.207763648939    -0.527706754408
    C           -0.696732184959    -0.206363778453    -0.042426002738
    C           -1.600536300025     0.993021789632     0.154281288701
    N            0.638015575994    -0.071875273294     0.257243061083
    H           -1.213657813768     1.842919115692    -0.394534691246
    H           -2.577006201030     0.731733718864    -0.218418212579
    H           -1.685300969344     1.281128042693     1.194314199005
    C            1.581185772038    -0.709568167144    -0.644014628782
    C            1.147889987475     1.144955299521     0.849765368849
    H            1.848679237904    -0.042152682926    -1.460842362894
    H            1.147272996619    -1.606625097671    -1.048581818161
    H            2.484342900516    -0.969044017546    -0.106844083150
    H            1.284353790275     1.945200311687     0.123868005210
    H            0.501263963489     1.498761762791     1.636663123519
    H            2.111428617966     0.934142462276     1.293559244457

  Mulliken Charges: (a.u.)
   Center  Symbol    Alpha    Beta     Spin     Total
       1     O     4.20811  4.20811  0.00000 -0.41622
       2     C     2.84094  2.84094  0.00000  0.31812
       3     C     3.15996  3.15996  0.00000 -0.31992
       4     N     3.57397  3.57397  0.00000 -0.14794
       5     H     0.44969  0.44969  0.00000  0.10061
       6     H     0.42856  0.42856  0.00000  0.14288
       7     H     0.44700  0.44700  0.00000  0.10599
       8     C     3.09792  3.09792  0.00000 -0.19585
       9     C     3.10264  3.10264  0.00000 -0.20527
      10     H     0.46155  0.46155  0.00000  0.07691
      11     H     0.42784  0.42784  0.00000  0.14432
      12     H     0.45411  0.45411  0.00000  0.09177
      13     H     0.45878  0.45878  0.00000  0.08243
      14     H     0.44585  0.44585  0.00000  0.10831
      15     H     0.44307  0.44307  0.00000  0.11387

   Total alpha = 24.00000, Total beta = 24.00000, Total charge = -0.00000
