  ==> Input File <==

--------------------------------------------------------------------------
set {
	reference rhf
	basis 6-31G*
}

set_num_threads( 1 )
memory 2 gb

molecule MOL {
0 1

H	 3.998216	 4.862087	 -0.842634
C	 3.450893	 3.951800	 -0.673526
C	 2.078972	 3.996607	 -0.476104
C	 4.119355	 2.737840	 -0.653677
H	 1.561773	 4.938746	 -0.491742
C	 1.375910	 2.825739	 -0.258724
H	 5.182864	 2.705067	 -0.806907
C	 3.417641	 1.564512	 -0.436255
H	 0.314067	 2.841386	 -0.104072
C	 2.042594	 1.606056	 -0.238057
H	 3.930861	 0.622883	 -0.420081
C	 1.239129	 0.373821	 0.000060
O	 1.970282	 -0.730723	 0.000018
O	 0.060696	 0.370879	 0.173681
C	 3.377318	 -0.566646	 -0.000065
H	 3.695437	 -0.028981	 -0.881264
H	 3.789299	 -1.563704	 0.000236
H	 3.695516	 -0.028316	 0.880770

	symmetry c1
}
set optking {
	frozen_dihedral = ("
		12 13 15 16,
		13 12 10 6
	")
}

ee = energy('scf')
oeprop('DIPOLE', 'QUADRUPOLE', 'MULLIKEN_CHARGES')
f=open( 'psi4out.xyz', 'w' )
f.write( "18  " )
f.write( str(ee) + "\n" )
f.write( MOL.save_string_xyz() )
f.close()
--------------------------------------------------------------------------

    Molecular point group: c1

    Geometry (in Angstrom), charge = 0, multiplicity = 1:

       Center              X                  Y                   Z               Mass
    ------------   -----------------  -----------------  -----------------  -----------------
           H          1.704395422459     3.343683209570    -0.601958926516     1.007825032070
           C          1.157072422459     2.433396209570    -0.432850926516    12.000000000000
           C         -0.214848577541     2.478203209570    -0.235428926516    12.000000000000
           C          1.825534422459     1.219436209570    -0.413001926516    12.000000000000
           H         -0.732047577541     3.420342209570    -0.251066926516     1.007825032070
           C         -0.917910577541     1.307335209570    -0.018048926516    12.000000000000
           H          2.889043422459     1.186663209570    -0.566231926516     1.007825032070
           C          1.123820422459     0.046108209570    -0.195579926516    12.000000000000
           H         -1.979753577541     1.322982209570     0.136603073484     1.007825032070
           C         -0.251226577541     0.087652209570     0.002618073484    12.000000000000
           H          1.637040422459    -0.895520790430    -0.179405926516     1.007825032070
           C         -1.054691577541    -1.144582790430     0.240735073484    12.000000000000
           O         -0.323538577541    -2.249126790430     0.240693073484    15.994914619560
           O         -2.233124577541    -1.147524790430     0.414356073484    15.994914619560
           C          1.083497422459    -2.085049790430     0.240610073484    12.000000000000
           H          1.401616422459    -1.547384790430    -0.640588926516     1.007825032070
           H          1.495478422459    -3.082107790430     0.240911073484     1.007825032070
           H          1.401695422459    -1.546719790430     1.121445073484     1.007825032070

  Charge       = 0
  Multiplicity = 1
  Basis Set: 6-31G*
  Basis Set:

    Orbital Energies (a.u.)
    -----------------------

    Doubly Occupied:

       1A    -20.619907     2A    -20.541706     3A    -11.380506
       4A    -11.296107     5A    -11.250313     6A    -11.248733
       7A    -11.246881     8A    -11.240874     9A    -11.238519
      10A    -11.216554    11A     -1.478164    12A     -1.372128
      13A     -1.179263    14A     -1.102701    15A     -1.042275
      16A     -1.009678    17A     -0.887880    18A     -0.865715
      19A     -0.805099    20A     -0.736253    21A     -0.725005
      22A     -0.693284    23A     -0.673389    24A     -0.646244
      25A     -0.622945    26A     -0.612816    27A     -0.583930
      28A     -0.572881    29A     -0.549833    30A     -0.519302
      31A     -0.515400    32A     -0.465919    33A     -0.445000
      34A     -0.395179    35A     -0.350073    36A     -0.343228

  @DF-RHF Final Energy:  -457.11084934055867

   => Energetics <=

    Nuclear Repulsion Energy =            510.6331068179972021
    One-Electron Energy =               -1634.5406159164876954
    Two-Electron Energy =                 666.7966597579322752
    DFT Exchange-Correlation Energy =       0.0000000000000000
    Empirical Dispersion Energy =           0.0000000000000000
    PCM Polarization Energy =               0.0000000000000000
    EFP Energy =                            0.0000000000000000
    Total Energy =                       -457.1108493405581612

  Mulliken Charges: (a.u.)
   Center  Symbol    Alpha    Beta     Spin     Total
       1     H     0.39652  0.39652  0.00000  0.20696
       2     C     3.08806  3.08806  0.00000 -0.17612
       3     C     3.10729  3.10729  0.00000 -0.21457
       4     C     3.11358  3.11358  0.00000 -0.22716
       5     H     0.39421  0.39421  0.00000  0.21159
       6     C     3.08119  3.08119  0.00000 -0.16238
       7     H     0.40010  0.40010  0.00000  0.19979
       8     C     3.13727  3.13727  0.00000 -0.27455
       9     H     0.37357  0.37357  0.00000  0.25286
      10     C     3.09102  3.09102  0.00000 -0.18203
      11     H     0.37167  0.37167  0.00000  0.25667
      12     C     2.57045  2.57045  0.00000  0.85910
      13     O     4.30319  4.30319  0.00000 -0.60637
      14     O     4.28153  4.28153  0.00000 -0.56305
      15     C     3.11082  3.11082  0.00000 -0.22163
      16     H     0.38516  0.38516  0.00000  0.22968
      17     H     0.40140  0.40140  0.00000  0.19720
      18     H     0.39299  0.39299  0.00000  0.21402

   Total alpha = 36.00000, Total beta = 36.00000, Total charge = -0.00000
