                              Psi4 1.0.54 Driver

  ==> Input File <==

--------------------------------------------------------------------------
set {
	reference rhf
	basis cc-pvtz
}

set_num_threads( 4 )
memory 2 gb

molecule MOL {
0 1

O	 -2.440701	 -0.934798	 -0.415053
C	 -1.922978	 0.063265	 -0.045005
C	 -2.632749	 1.372204	 0.158357
O	 -0.637375	 0.157174	 0.243149
H	 -2.187724	 2.129143	 -0.474664
H	 -3.677681	 1.257276	 -0.079438
H	 -2.516788	 1.693160	 1.185542
C	 0.162530	 -1.009518	 0.097799
C	 1.587210	 -0.664190	 0.477086
H	 0.096803	 -1.356267	 -0.924704
H	 -0.233803	 -1.785900	 0.736810
C	 2.444066	 -0.174244	 -0.687180
H	 2.033028	 -1.557580	 0.905846
H	 1.570061	 0.083811	 1.263876
C	 3.878350	 0.135874	 -0.272121
H	 2.449567	 -0.929948	 -1.468192
H	 1.992059	 0.711450	 -1.118549
H	 4.464750	 0.477185	 -1.117122
H	 4.368075	 -0.741628	 0.137208
H	 3.907038	 0.912389	 0.484991

	symmetry c1
}
set optking {
	frozen_dihedral = ("
		12 9 8 10
	")
}

ee,wfn = optimize('scf', return_wfn=True)
oeprop( wfn, 'DIPOLE', 'QUADRUPOLE', 'MULLIKEN_CHARGES')
f=open( 'psi4out.xyz', 'w' )
f.write( "20  " )
f.write( str(ee) + "\n" )
f.write( MOL.save_string_xyz() )
f.close()
--------------------------------------------------------------------------

    Molecular point group: c1
  Charge       = 0
  Multiplicity = 1
  Basis Set: CC-PVTZ
  Basis Set:
  @DF-RHF Final Energy:  -384.08506586665709
    Total Energy =                       -384.0850658666568052
    Molecular point group: c1
  Basis Set: CC-PVTZ
  Basis Set:
  Basis Set: CC-PVTZ
  Basis Set:
  @DF-RHF Final Energy:  -384.08528320995248
    Total Energy =                       -384.0852832099521947
  Basis Set: CC-PVTZ
  Basis Set:
  Basis Set: CC-PVTZ
  Basis Set:
  @DF-RHF Final Energy:  -384.08532498707905
    Total Energy =                       -384.0853249870789341
  Basis Set: CC-PVTZ
  Basis Set:
  Basis Set: CC-PVTZ
  Basis Set:
  @DF-RHF Final Energy:  -384.08518730277211
    Total Energy =                       -384.0851873027717147
  Basis Set: CC-PVTZ
  Basis Set:
  Basis Set: CC-PVTZ
  Basis Set:
  @DF-RHF Final Energy:  -384.08537109820338
    Total Energy =                       -384.0853710982032680
  Basis Set: CC-PVTZ
  Basis Set:
  Basis Set: CC-PVTZ
  Basis Set:
  @DF-RHF Final Energy:  -384.08537365935348
    Total Energy =                       -384.0853736593537633
  Basis Set: CC-PVTZ
  Basis Set:
  Charge       = 0
  Multiplicity = 1
  Basis Set: CC-PVTZ
  Basis Set:

    Orbital Energies (a.u.)
    -----------------------

    Doubly Occupied:

       1A    -20.593315     2A    -20.531872     3A    -11.365738
       4A    -11.280380     5A    -11.231104     6A    -11.223103
       7A    -11.220821     8A    -11.212307     9A     -1.469764
      10A     -1.363937    11A     -1.087172    12A     -1.029295
      13A     -0.981442    14A     -0.881852    15A     -0.808880
      16A     -0.780843    17A     -0.691746    18A     -0.684871
      19A     -0.669590    20A     -0.631847    21A     -0.604458
      22A     -0.593737    23A     -0.572241    24A     -0.553255
      25A     -0.544948    26A     -0.528965    27A     -0.514578
      28A     -0.482292    29A     -0.479088    30A     -0.476666
      31A     -0.450662    32A     -0.440720

  @DF-RHF Final Energy:  -384.08537385404765

   => Energetics <=

    Nuclear Repulsion Energy =            383.7615828703425791
    One-Electron Energy =               -1283.7309389902061412
    Two-Electron Energy =                 515.8839822658158027
    DFT Exchange-Correlation Energy =       0.0000000000000000
    Empirical Dispersion Energy =           0.0000000000000000
    PCM Polarization Energy =               0.0000000000000000
    EFP Energy =                            0.0000000000000000
    Total Energy =                       -384.0853738540477025
    Molecular point group: c1
  Basis Set: CC-PVTZ
  Basis Set:

  -Total Gradient:
     Atom            X                  Y                   Z
    ------   -----------------  -----------------  -----------------
       1        0.000046977351     0.000080533109     0.000034468141
       2       -0.000066021828    -0.000034957779    -0.000045903211
       3        0.000030263572     0.000000677250     0.000015961525
       4        0.000044262272    -0.000003813415     0.000005358673
       5       -0.000015787561    -0.000039858424     0.000022692338
       6       -0.000000292720     0.000002944424    -0.000000799026
       7        0.000003769548    -0.000015324459    -0.000040346445
       8        0.001214263306    -0.006740271911     0.001360270806
       9       -0.001459990186     0.005475494737     0.000693688525
      10       -0.000701727554     0.004344347256    -0.001305723126
      11        0.000009482554     0.000001485693    -0.000003327473
      12        0.000918921381    -0.003060856881    -0.000711448585
      13       -0.000003718230     0.000017425504    -0.000001144451
      14       -0.000006128149    -0.000015722885    -0.000014717113
      15       -0.000003874176    -0.000021999464    -0.000005351326
      16       -0.000002144839     0.000006100042     0.000001487615
      17       -0.000002443273     0.000008397371    -0.000000301059
      18        0.000000935360    -0.000006185538    -0.000003789306
      19        0.000001730734     0.000002272387     0.000004610514
      20       -0.000008477562    -0.000000687020    -0.000005687018

  **** Optimization is complete! (in 7 steps) ****
    Final optimized geometry and variables:
    Molecular point group: c1

    Geometry (in Angstrom), charge = 0, multiplicity = 1:

    O           -2.481708159453    -0.782666648734    -0.389394316369
    C           -1.951331463534     0.201060396974     0.001386045112
    C           -2.638188460317     1.522927451410     0.198488301536
    O           -0.671751376230     0.264826295647     0.319911135313
    H           -2.160311986539     2.275559824320    -0.415214700739
    H           -3.678802706000     1.432868096150    -0.067423918849
    H           -2.542298374195     1.831652801651     1.231372324318
    C            0.108381315091    -0.921602988914     0.179907514535
    C            1.542437716243    -0.577947843743     0.547820443701
    H            0.027389653743    -1.243522427042    -0.848614906888
    H           -0.305652909274    -1.686026277781     0.820016326927
    C            2.370074369504    -0.057025180321    -0.624380846103
    H            2.016002516181    -1.475824633768     0.934646064918
    H            1.531078756535     0.140459067406     1.359419479093
    C            3.794149506809     0.313399732844    -0.226263355756
    H            2.397056394954    -0.815698043845    -1.401015182515
    H            1.878542959378     0.809303502666    -1.057120617169
    H            4.360434472864     0.665588966009    -1.080418247294
    H            4.319345855076    -0.540247703587     0.189513110716
    H            3.799157024388     1.099448046503     0.521261824996

  Mulliken Charges: (a.u.)
   Center  Symbol    Alpha    Beta     Spin     Total
       1     O     4.19776  4.19776  0.00000 -0.39551
       2     C     2.80940  2.80940  0.00000  0.38120
       3     C     3.13803  3.13803  0.00000 -0.27606
       4     O     4.15510  4.15510  0.00000 -0.31021
       5     H     0.44622  0.44622  0.00000  0.10756
       6     H     0.43812  0.43812  0.00000  0.12377
       7     H     0.44579  0.44579  0.00000  0.10842
       8     C     2.98827  2.98827  0.00000  0.02346
       9     C     3.08459  3.08459  0.00000 -0.16919
      10     H     0.45321  0.45321  0.00000  0.09358
      11     H     0.44499  0.44499  0.00000  0.11003
      12     C     3.08613  3.08613  0.00000 -0.17225
      13     H     0.45152  0.45152  0.00000  0.09696
      14     H     0.44972  0.44972  0.00000  0.10055
      15     C     3.15059  3.15059  0.00000 -0.30117
      16     H     0.45332  0.45332  0.00000  0.09336
      17     H     0.45102  0.45102  0.00000  0.09796
      18     H     0.44724  0.44724  0.00000  0.10551
      19     H     0.45514  0.45514  0.00000  0.08972
      20     H     0.45384  0.45384  0.00000  0.09232

   Total alpha = 32.00000, Total beta = 32.00000, Total charge = -0.00000

*** Psi4 exiting successfully. Buy a developer a beer!
