                              Psi4 1.0.54 Driver

  ==> Input File <==

--------------------------------------------------------------------------
set {
	reference rhf
	basis cc-pvtz
}

set_num_threads( 4 )
memory 2 gb

molecule MOL {
0 1

H	 -2.832566	 -0.713903	 -2.893541
O	 -2.674567	 -0.771851	 -1.969489
C	 -1.392490	 -0.288580	 -1.667587
C	 -1.175688	 -0.398187	 -0.171891
H	 -0.634716	 -0.864238	 -2.195005
H	 -1.292985	 0.748520	 -1.981199
C	 0.196029	 0.106276	 0.266738
H	 -1.300875	 -1.436610	 0.118326
H	 -1.957591	 0.162069	 0.330759
C	 1.330220	 -0.826136	 -0.155230
H	 0.359542	 1.097229	 -0.145561
H	 0.212134	 0.218135	 1.348778
C	 2.719700	 -0.407669	 0.328325
H	 1.339388	 -0.911200	 -1.239363
H	 1.119001	 -1.821953	 0.224128
C	 3.241564	 0.893452	 -0.276737
H	 3.418299	 -1.204729	 0.093035
H	 2.711776	 -0.323368	 1.411960
H	 3.254204	 0.841071	 -1.360784
H	 2.634460	 1.745075	 0.005842
H	 4.254264	 1.092401	 0.054971

	symmetry c1
}
set optking {
	frozen_dihedral = ("
		8 4 7 10
	")
}

ee,wfn = optimize('scf', return_wfn=True)
oeprop( wfn, 'DIPOLE', 'QUADRUPOLE', 'MULLIKEN_CHARGES')
f=open( 'psi4out.xyz', 'w' )
f.write( "21  " )
f.write( str(ee) + "\n" )
f.write( MOL.save_string_xyz() )
f.close()
--------------------------------------------------------------------------

    Molecular point group: c1
  Charge       = 0
  Multiplicity = 1
  Basis Set: CC-PVTZ
  Basis Set:
  @DF-RHF Final Energy:  -310.33063499532955
    Total Energy =                       -310.3306349953293193
    Molecular point group: c1
  Basis Set: CC-PVTZ
  Basis Set:
  Basis Set: CC-PVTZ
  Basis Set:
  @DF-RHF Final Energy:  -310.31069197781250
    Total Energy =                       -310.3106919778123256
  Basis Set: CC-PVTZ
  Basis Set:
  Basis Set: CC-PVTZ
  Basis Set:
  @DF-RHF Final Energy:  -310.33086724236108
    Total Energy =                       -310.3308672423612506
  Basis Set: CC-PVTZ
  Basis Set:
  Basis Set: CC-PVTZ
  Basis Set:
  @DF-RHF Final Energy:  -310.33114059855319
    Total Energy =                       -310.3311405985529063
  Basis Set: CC-PVTZ
  Basis Set:
  Basis Set: CC-PVTZ
  Basis Set:
  @DF-RHF Final Energy:  -310.33113462931703
    Total Energy =                       -310.3311346293169777
  Basis Set: CC-PVTZ
  Basis Set:
  Basis Set: CC-PVTZ
  Basis Set:
  @DF-RHF Final Energy:  -310.33114984806252
    Total Energy =                       -310.3311498480628075
  Basis Set: CC-PVTZ
  Basis Set:
  Charge       = 0
  Multiplicity = 1
  Basis Set: CC-PVTZ
  Basis Set:

    Orbital Energies (a.u.)
    -----------------------

    Doubly Occupied:

       1A    -20.545075     2A    -11.264366     3A    -11.213978
       4A    -11.213405     5A    -11.212186     6A    -11.209194
       7A    -11.206935     8A     -1.362800     9A     -1.087539
      10A     -1.033415    11A     -0.953156    12A     -0.882661
      13A     -0.812647    14A     -0.772154    15A     -0.698316
      16A     -0.653591    17A     -0.629084    18A     -0.609319
      19A     -0.592679    20A     -0.554532    21A     -0.552905
      22A     -0.520228    23A     -0.512354    24A     -0.497634
      25A     -0.476689    26A     -0.457257    27A     -0.453158
      28A     -0.448305    29A     -0.434313

  @DF-RHF Final Energy:  -310.33115159392844

   => Energetics <=

    Nuclear Repulsion Energy =            316.6922240385532632
    One-Electron Energy =               -1048.3269982930642072
    Two-Electron Energy =                 421.3036226605827324
    DFT Exchange-Correlation Energy =       0.0000000000000000
    Empirical Dispersion Energy =           0.0000000000000000
    PCM Polarization Energy =               0.0000000000000000
    EFP Energy =                            0.0000000000000000
    Total Energy =                       -310.3311515939282117
    Molecular point group: c1
  Basis Set: CC-PVTZ
  Basis Set:

  -Total Gradient:
     Atom            X                  Y                   Z
    ------   -----------------  -----------------  -----------------
       1       -0.000011725399     0.000000232360    -0.000024614838
       2       -0.000002832041    -0.000011994044    -0.000001333721
       3       -0.000010921975     0.000031775689     0.000025932799
       4       -0.000538334238     0.000459154172     0.000960935384
       5        0.000012576689    -0.000007485639     0.000004459675
       6       -0.000001366821     0.000001384856    -0.000026634451
       7        0.000311256359     0.000105609265    -0.000942260285
       8        0.000405743734    -0.000441566188    -0.000569168323
       9        0.000008543123     0.000004135248    -0.000002482017
      10       -0.000187486924    -0.000127205494     0.000562139250
      11       -0.000003605336    -0.000006719953    -0.000011286738
      12        0.000014409399     0.000003906114     0.000024087062
      13       -0.000003173550     0.000001819052     0.000018082881
      14       -0.000006340641    -0.000008352358    -0.000030631521
      15       -0.000011755780    -0.000009501927     0.000002917633
      16       -0.000001704631     0.000005737460    -0.000004289539
      17        0.000009125428    -0.000000375961     0.000003606450
      18        0.000010861560     0.000002689897     0.000010675169
      19        0.000003984763    -0.000005341581    -0.000007866165
      20        0.000000957011     0.000001735406     0.000000591489
      21        0.000001789267     0.000000363625     0.000007139806

  **** Optimization is complete! (in 7 steps) ****
    Final optimized geometry and variables:
    Molecular point group: c1

    Geometry (in Angstrom), charge = 0, multiplicity = 1:

    H           -2.837690697456    -0.881883817484    -2.634026002308
    O           -2.796330310657    -0.700506766019    -1.713415946988
    C           -1.506440203519    -0.271771115075    -1.363063912485
    C           -1.481097531732    -0.022382300705     0.133491116435
    H           -0.772975568513    -1.023771855797    -1.639330052161
    H           -1.253460403423     0.644913775108    -1.892337914410
    C           -0.145915008088     0.511267008167     0.655901952578
    H           -1.736085442448    -0.948722750028     0.638482252551
    H           -2.269314497091     0.686509362551     0.361701136627
    C            0.985328130494    -0.518465680775     0.675050782640
    H            0.145083533468     1.378635201741     0.071111292703
    H           -0.297798368053     0.869858066634     1.669969062468
    C            2.270151603265    -0.034683217876     1.350254582580
    H            1.220420181453    -0.836376476957    -0.337010913248
    H            0.634480087478    -1.404291566673     1.197295430748
    C            2.987299641268     1.097835595237     0.619275915194
    H            2.949733597690    -0.876880771490     1.437574547359
    H            2.044512201269     0.278418781931     2.366232802897
    H            3.220108511965     0.815682871516    -0.402722994387
    H            2.390164247210     2.001045987148     0.585076984257
    H            3.920394368324     1.343788381761     1.113163048971

  Mulliken Charges: (a.u.)
   Center  Symbol    Alpha    Beta     Spin     Total
       1     H     0.39722  0.39722  0.00000  0.20556
       2     O     4.19539  4.19539  0.00000 -0.39078
       3     C     2.96125  2.96125  0.00000  0.07750
       4     C     3.09102  3.09102  0.00000 -0.18204
       5     H     0.47327  0.47327  0.00000  0.05345
       6     H     0.47487  0.47487  0.00000  0.05026
       7     C     3.11177  3.11177  0.00000 -0.22354
       8     H     0.45176  0.45176  0.00000  0.09647
       9     H     0.44514  0.44514  0.00000  0.10972
      10     C     3.09641  3.09641  0.00000 -0.19283
      11     H     0.45237  0.45237  0.00000  0.09526
      12     H     0.44703  0.44703  0.00000  0.10593
      13     C     3.08885  3.08885  0.00000 -0.17771
      14     H     0.45512  0.45512  0.00000  0.08977
      15     H     0.44798  0.44798  0.00000  0.10404
      16     C     3.15281  3.15281  0.00000 -0.30562
      17     H     0.44846  0.44846  0.00000  0.10307
      18     H     0.45431  0.45431  0.00000  0.09138
      19     H     0.45553  0.45553  0.00000  0.08894
      20     H     0.45335  0.45335  0.00000  0.09329
      21     H     0.44607  0.44607  0.00000  0.10786

   Total alpha = 29.00000, Total beta = 29.00000, Total charge =  0.00000

*** Psi4 exiting successfully. Buy a developer a beer!
