  ==> Input File <==

--------------------------------------------------------------------------
set {
	reference rhf
	basis cc-pvtz
}

set_num_threads( 4 )
memory 2 gb

molecule MOL {
0 1

H	 -3.105914	 0.247538	 -0.052757
O	 -2.346257	 -0.289210	 0.080372
C	 -1.183935	 0.486039	 -0.009831
C	 0.062853	 -0.375310	 0.027457
H	 -1.178881	 1.094526	 -0.908634
H	 -1.184406	 1.155156	 0.838676
O	 1.172093	 0.457955	 -0.054438
H	 0.052476	 -1.081302	 -0.804627
H	 0.076323	 -0.955658	 0.947560
C	 2.395478	 -0.199028	 -0.000366
H	 2.505946	 -0.901710	 -0.823354
H	 3.174616	 0.545641	 -0.071768
H	 2.513730	 -0.742241	 0.934223

	symmetry c1
}
set optking {
	frozen_dihedral = ("
		1 2 3 5
	")
}

ee = optimize('scf')
oeprop('DIPOLE', 'QUADRUPOLE', 'MULLIKEN_CHARGES')
f=open( 'psi4out.xyz', 'w' )
f.write( "13  " )
f.write( str(ee) + "\n" )
f.write( MOL.save_string_xyz() )
f.close()
--------------------------------------------------------------------------

    Molecular point group: c1
  Charge       = 0
  Multiplicity = 1
  Basis Set: CC-PVTZ
  Basis Set:
  @DF-RHF Final Energy:  -268.06124479757364
    Total Energy =                       -268.0612447975735222
    Molecular point group: c1
  Basis Set: CC-PVTZ
  Basis Set:
  Basis Set: CC-PVTZ
  Basis Set:
  @DF-RHF Final Energy:  -268.06244677109964
    Total Energy =                       -268.0624467710995305
  Basis Set: CC-PVTZ
  Basis Set:
  Basis Set: CC-PVTZ
  Basis Set:
  @DF-RHF Final Energy:  -268.06273359246342
    Total Energy =                       -268.0627335924634735
  Basis Set: CC-PVTZ
  Basis Set:
  Basis Set: CC-PVTZ
  Basis Set:
  @DF-RHF Final Energy:  -268.06274151809629
    Total Energy =                       -268.0627415180965158
  Basis Set: CC-PVTZ
  Basis Set:
  Charge       = 0
  Multiplicity = 1
  Basis Set: CC-PVTZ
  Basis Set:

    Orbital Energies (a.u.)
    -----------------------

    Doubly Occupied:

       1A    -20.552545     2A    -20.551911     3A    -11.267378
       4A    -11.265212     5A    -11.264749     6A     -1.388757
       7A     -1.368302     8A     -1.019693     9A     -0.911809
      10A     -0.831870    11A     -0.712234    12A     -0.686188
      13A     -0.644131    14A     -0.634950    15A     -0.621626
      16A     -0.555311    17A     -0.538966    18A     -0.497580
      19A     -0.471538    20A     -0.444686    21A     -0.421105

  @DF-RHF Final Energy:  -268.06274240904077

   => Energetics <=

    Nuclear Repulsion Energy =            190.7144296139479422
    One-Electron Energy =                -744.2532636659401533
    Two-Electron Energy =                 285.4760916429514168
    DFT Exchange-Correlation Energy =       0.0000000000000000
    Empirical Dispersion Energy =           0.0000000000000000
    PCM Polarization Energy =               0.0000000000000000
    EFP Energy =                            0.0000000000000000
    Total Energy =                       -268.0627424090408226
    Molecular point group: c1
  Basis Set: CC-PVTZ
  Basis Set:

  -Total Gradient:
     Atom            X                  Y                   Z
    ------   -----------------  -----------------  -----------------
       1        0.000040776087    -0.000139924538    -0.000584166417
       2       -0.000107144703     0.000317489351     0.000773282612
       3        0.000329997235    -0.000571312701    -0.000403151600
       4       -0.000016344138    -0.000011923503     0.000012479178
       5       -0.000255416215     0.000367477770     0.000240739031
       6       -0.000000190713    -0.000007269846    -0.000006530985
       7        0.000030806327     0.000015838693    -0.000018979782
       8       -0.000003813544     0.000004359431    -0.000010915860
       9       -0.000021151072     0.000014187726    -0.000005339160
      10        0.000004358491     0.000014106419     0.000006253499
      11       -0.000005215346     0.000001536247     0.000001803516
      12        0.000008807480    -0.000002940169    -0.000003240283
      13       -0.000005469886    -0.000001624880    -0.000002233749

  **** Optimization is complete! (in 5 steps) ****
    Final optimized geometry and variables:
    Molecular point group: c1

    Geometry (in Angstrom), charge = 0, multiplicity = 1:

    H           -3.081292090395     0.148044531449    -0.097108810271
    O           -2.295838625362    -0.336573777594     0.074365172584
    C           -1.178497648110     0.503637236487    -0.018419355867
    C            0.053180682212    -0.371351372233     0.016656007154
    H           -1.188301304364     1.076451710982    -0.940434740744
    H           -1.143720766888     1.204833226295     0.809780826786
    O            1.171783832551     0.452969186320    -0.048231766027
    H            0.031874614847    -1.065066123324    -0.821013918332
    H            0.054976333800    -0.958490645702     0.932534257536
    C            2.385731201278    -0.222151190435    -0.020006675970
    H            2.481402132960    -0.903541466956    -0.862325745375
    H            3.175131075158     0.513171913877    -0.075590964974
    H            2.501958902072    -0.792671705721     0.898614923117

  Mulliken Charges: (a.u.)
   Center  Symbol    Alpha    Beta     Spin     Total
       1     H     0.39410  0.39410  0.00000  0.21181
       2     O     4.19839  4.19839  0.00000 -0.39679
       3     C     2.96468  2.96468  0.00000  0.07063
       4     C     2.96463  2.96463  0.00000  0.07073
       5     H     0.47086  0.47086  0.00000  0.05829
       6     H     0.47054  0.47054  0.00000  0.05892
       7     O     4.17632  4.17632  0.00000 -0.35265
       8     H     0.47091  0.47091  0.00000  0.05817
       9     H     0.47023  0.47023  0.00000  0.05955
      10     C     3.03126  3.03126  0.00000 -0.06252
      11     H     0.47065  0.47065  0.00000  0.05870
      12     H     0.44698  0.44698  0.00000  0.10603
      13     H     0.47044  0.47044  0.00000  0.05912

   Total alpha = 21.00000, Total beta = 21.00000, Total charge = -0.00000
