                              Psi4 1.0.54 Driver

  ==> Input File <==

--------------------------------------------------------------------------
set {
	reference rhf
	basis cc-pvtz
}

set_num_threads( 4 )
memory 2 gb

molecule MOL {
0 1

H	 -0.366580	 2.045936	 -0.305741
C	 0.351829	 1.335402	 0.083179
N	 -0.000018	 0.000080	 -0.334836
H	 1.327156	 1.599860	 -0.305475
H	 0.380566	 1.445403	 1.171445
C	 -0.245141	 -0.073926	 -1.754983
C	 0.972588	 -0.974688	 0.096564
H	 -0.573598	 -1.070380	 -2.021979
H	 -1.027738	 0.621105	 -2.031861
H	 0.641722	 0.160732	 -2.351203
H	 1.080186	 -0.938353	 1.173265
H	 0.642965	 -1.970185	 -0.172619
H	 1.959738	 -0.813948	 -0.347068

	symmetry c1
}
set optking {
	frozen_dihedral = ("
		6 3 2 1
	")
}

ee,wfn = optimize('scf', return_wfn=True)
oeprop( wfn, 'DIPOLE', 'QUADRUPOLE', 'MULLIKEN_CHARGES')
f=open( 'psi4out.xyz', 'w' )
f.write( "13  " )
f.write( str(ee) + "\n" )
f.write( MOL.save_string_xyz() )
f.close()
--------------------------------------------------------------------------

    Molecular point group: c1
  Charge       = 0
  Multiplicity = 1
  Basis Set: CC-PVTZ
  Basis Set:
  @DF-RHF Final Energy:  -173.33315512718693
    Total Energy =                       -173.3331551271870694
    Molecular point group: c1
  Basis Set: CC-PVTZ
  Basis Set:
  Basis Set: CC-PVTZ
  Basis Set:
  @DF-RHF Final Energy:  -173.33375356460363
    Total Energy =                       -173.3337535646035690
  Basis Set: CC-PVTZ
  Basis Set:
  Basis Set: CC-PVTZ
  Basis Set:
  @DF-RHF Final Energy:  -173.33382441795155
    Total Energy =                       -173.3338244179516323
  Basis Set: CC-PVTZ
  Basis Set:
  Charge       = 0
  Multiplicity = 1
  Basis Set: CC-PVTZ
  Basis Set:

    Orbital Energies (a.u.)
    -----------------------

    Doubly Occupied:

       1A    -15.538861     2A    -11.234377     3A    -11.234312
       4A    -11.234272     5A     -1.226915     6A     -0.952803
       7A     -0.952434     8A     -0.806497     9A     -0.642874
      10A     -0.632082    11A     -0.631461    12A     -0.544517
      13A     -0.543087    14A     -0.517430    15A     -0.503316
      16A     -0.502639    17A     -0.347837

  @DF-RHF Final Energy:  -173.33382563190065

   => Energetics <=

    Nuclear Repulsion Energy =            139.4188738432586661
    One-Electron Energy =                -509.4139748096527001
    Two-Electron Energy =                 196.6612753344933822
    DFT Exchange-Correlation Energy =       0.0000000000000000
    Empirical Dispersion Energy =           0.0000000000000000
    PCM Polarization Energy =               0.0000000000000000
    EFP Energy =                            0.0000000000000000
    Total Energy =                       -173.3338256319006518
    Molecular point group: c1
  Basis Set: CC-PVTZ
  Basis Set:

  -Total Gradient:
     Atom            X                  Y                   Z
    ------   -----------------  -----------------  -----------------
       1        0.000863486574     0.000146705042    -0.001341472940
       2       -0.001522106857    -0.000078785034     0.001727551500
       3        0.001775554236    -0.000331452918    -0.000581078063
       4       -0.000011421775    -0.000030798215    -0.000003887042
       5       -0.000013016121    -0.000051369937    -0.000052903050
       6       -0.001155422886     0.000379553970     0.000104748262
       7        0.000083570207    -0.000024465454     0.000034083359
       8        0.000018423666     0.000007524688     0.000074890537
       9       -0.000018510706     0.000009817888    -0.000002539601
      10       -0.000009260350    -0.000019648349     0.000023952754
      11        0.000008377507    -0.000009438080     0.000005550011
      12       -0.000001123129     0.000006816876     0.000003027578
      13       -0.000018550367    -0.000004460477     0.000008076696

  **** Optimization is complete! (in 4 steps) ****
    Final optimized geometry and variables:
    Molecular point group: c1

    Geometry (in Angstrom), charge = 0, multiplicity = 1:

    H           -0.645084670268     1.974813598688     0.171831749538
    C            0.074607654164     1.264982557075     0.558760419128
    N           -0.282680399702    -0.071183030558     0.149186086576
    H            1.062163548947     1.568415050618     0.196635994775
    H            0.078532728196     1.336134173352     1.639176925051
    C           -0.539988969140    -0.161551100056    -1.267017475564
    C            0.675741449628    -1.050455060843     0.597852480299
    H           -0.869019217306    -1.162061598300    -1.518193692197
    H           -1.326833777763     0.528071073091    -1.544917706071
    H            0.340072148522     0.065895404388    -1.876890075081
    H            0.786307467219    -0.993198963004     1.673607319571
    H            0.331933765560    -2.046913535221     0.350438711747
    H            1.664866409148    -0.912894117412     0.150035404574

  Mulliken Charges: (a.u.)
   Center  Symbol    Alpha    Beta     Spin     Total
       1     H     0.45339  0.45339  0.00000  0.09323
       2     C     3.08876  3.08876  0.00000 -0.17752
       3     N     3.59538  3.59538  0.00000 -0.19077
       4     H     0.47411  0.47411  0.00000  0.05178
       5     H     0.45188  0.45188  0.00000  0.09623
       6     C     3.08870  3.08870  0.00000 -0.17739
       7     C     3.08905  3.08905  0.00000 -0.17811
       8     H     0.45274  0.45274  0.00000  0.09452
       9     H     0.45249  0.45249  0.00000  0.09502
      10     H     0.47426  0.47426  0.00000  0.05148
      11     H     0.45288  0.45288  0.00000  0.09424
      12     H     0.45267  0.45267  0.00000  0.09466
      13     H     0.47368  0.47368  0.00000  0.05263

   Total alpha = 17.00000, Total beta = 17.00000, Total charge = -0.00000

*** Psi4 exiting successfully. Buy a developer a beer!
