  ==> Input File <==

--------------------------------------------------------------------------
set {
	reference rhf
	basis cc-pvtz
}

set_num_threads( 4 )
memory 2 gb

molecule MOL {
0 1

O	 -2.071633	 -1.227563	 -0.223463
C	 -1.652164	 -0.152425	 0.058082
C	 -0.327811	 0.006324	 0.778296
C	 -2.402515	 1.108629	 -0.298924
C	 0.843231	 -0.001575	 -0.211665
H	 -0.319484	 0.928173	 1.350354
H	 -0.227804	 -0.823091	 1.466705
C	 2.197693	 0.138030	 0.476937
H	 0.722944	 0.805202	 -0.930230
H	 0.813976	 -0.926978	 -0.776588
C	 3.251599	 0.787766	 -0.413169
H	 2.081651	 0.722716	 1.385342
H	 2.542471	 -0.843986	 0.787278
H	 2.950841	 1.786443	 -0.711874
H	 3.412357	 0.207903	 -1.315546
H	 4.201710	 0.869043	 0.101693
H	 -3.240910	 0.874416	 -0.936711
H	 -1.747554	 1.818823	 -0.790984
H	 -2.760419	 1.579708	 0.610998

	symmetry c1
}
set optking {
	frozen_dihedral = ("
		11 8 5 9
	")
}

ee = optimize('scf')
oeprop('DIPOLE', 'QUADRUPOLE', 'MULLIKEN_CHARGES')
f=open( 'psi4out.xyz', 'w' )
f.write( "19  " )
f.write( str(ee) + "\n" )
f.write( MOL.save_string_xyz() )
f.close()
--------------------------------------------------------------------------

    Molecular point group: c1
  Charge       = 0
  Multiplicity = 1
  Basis Set: CC-PVTZ
  Basis Set:
  @DF-RHF Final Energy:  -309.17467108164942
    Total Energy =                       -309.1746710816494215
    Molecular point group: c1
  Basis Set: CC-PVTZ
  Basis Set:
  Basis Set: CC-PVTZ
  Basis Set:
  @DF-RHF Final Energy:  -309.17481394829872
    Total Energy =                       -309.1748139482988336
  Basis Set: CC-PVTZ
  Basis Set:
  Basis Set: CC-PVTZ
  Basis Set:
  @DF-RHF Final Energy:  -309.17490910076179
    Total Energy =                       -309.1749091007616244
  Basis Set: CC-PVTZ
  Basis Set:
  Basis Set: CC-PVTZ
  Basis Set:
  @DF-RHF Final Energy:  -309.17485560987785
    Total Energy =                       -309.1748556098781364
  Basis Set: CC-PVTZ
  Basis Set:
  Basis Set: CC-PVTZ
  Basis Set:
  @DF-RHF Final Energy:  -309.17492432679842
    Total Energy =                       -309.1749243267985321
  Basis Set: CC-PVTZ
  Basis Set:
  Basis Set: CC-PVTZ
  Basis Set:
  @DF-RHF Final Energy:  -309.17494129329344
    Total Energy =                       -309.1749412932935002
  Basis Set: CC-PVTZ
  Basis Set:
  Charge       = 0
  Multiplicity = 1
  Basis Set: CC-PVTZ
  Basis Set:

    Orbital Energies (a.u.)
    -----------------------

    Doubly Occupied:

       1A    -20.537071     2A    -11.319549     3A    -11.228754
       4A    -11.228144     5A    -11.227054     6A    -11.222908
       7A    -11.213992     8A     -1.397199     9A     -1.091979
      10A     -1.030507    11A     -0.984963    12A     -0.891166
      13A     -0.807938    14A     -0.735282    15A     -0.664337
      16A     -0.646139    17A     -0.624987    18A     -0.615364
      19A     -0.585499    20A     -0.572507    21A     -0.557213
      22A     -0.536573    23A     -0.510030    24A     -0.507607
      25A     -0.483274    26A     -0.472703    27A     -0.470083
      28A     -0.399243

  @DF-RHF Final Energy:  -309.17494215123958

   => Energetics <=

    Nuclear Repulsion Energy =            301.8261826583927245
    One-Electron Energy =               -1016.8781213662683740
    Two-Electron Energy =                 405.8769965566363567
    DFT Exchange-Correlation Energy =       0.0000000000000000
    Empirical Dispersion Energy =           0.0000000000000000
    PCM Polarization Energy =               0.0000000000000000
    EFP Energy =                            0.0000000000000000
    Total Energy =                       -309.1749421512393496
    Molecular point group: c1
  Basis Set: CC-PVTZ
  Basis Set:

  -Total Gradient:
     Atom            X                  Y                   Z
    ------   -----------------  -----------------  -----------------
       1        0.000007040017    -0.000004001758     0.000029444597
       2        0.000037482910     0.000027789757    -0.000087462587
       3       -0.000034457405    -0.000000034153     0.000057221219
       4       -0.000031232426    -0.000009138328     0.000033206953
       5       -0.002450138097     0.004191645090     0.004251345583
       6       -0.000016090077    -0.000004051979     0.000005341468
       7        0.000005100466     0.000000796231     0.000014674312
       8        0.001486121799    -0.004612443867    -0.002287640197
       9        0.001748811852    -0.002523531014    -0.003102368112
      10        0.000012876774     0.000017425527    -0.000019787858
      11       -0.000759504869     0.002896115406     0.001110350161
      12       -0.000001400543     0.000008500733    -0.000016390332
      13       -0.000013198091     0.000000033539     0.000015329267
      14        0.000015466455     0.000011835901     0.000001623792
      15       -0.000008498870     0.000005703729    -0.000002822090
      16       -0.000003251523    -0.000013156420    -0.000000536276
      17       -0.000000391691     0.000001879880    -0.000001394099
      18        0.000006956855    -0.000008592982     0.000001432298
      19       -0.000001693534     0.000013224707    -0.000001568097

  **** Optimization is complete! (in 7 steps) ****
    Final optimized geometry and variables:
    Molecular point group: c1

    Geometry (in Angstrom), charge = 0, multiplicity = 1:

    O           -2.040697966436    -1.343027478632    -0.229175725260
    C           -1.639252342737    -0.259364008708     0.045735008044
    C           -0.317175278488    -0.073407136937     0.763791180272
    C           -2.411432917418     0.986806287279    -0.316870979488
    C            0.852914992487    -0.056178310533    -0.224924930162
    H           -0.326922334929     0.847693784345     1.336773544871
    H           -0.198166694589    -0.901248503772     1.451534578770
    C            2.220247052034     0.040015493608     0.460486323789
    H            0.745167719987     0.755489395614    -0.939005782449
    H            0.813855113876    -0.963991381742    -0.817840097396
    C            3.292347808336     0.664517945767    -0.426338954994
    H            2.129431389797     0.641192989226     1.361011863509
    H            2.531191119709    -0.946694987640     0.786803514085
    H            3.031368064723     1.684364313260    -0.687186352352
    H            3.415246001057     0.108771231816    -1.350336517510
    H            4.252497352665     0.685150195296     0.075866845016
    H           -3.246420576831     0.734889488337    -0.952371507105
    H           -1.769128477273     1.705346816790    -0.813424094946
    H           -2.776429207270     1.456519525507     0.590953642361

  Mulliken Charges: (a.u.)
   Center  Symbol    Alpha    Beta     Spin     Total
       1     O     4.17717  4.17717  0.00000 -0.35433
       2     C     2.85858  2.85858  0.00000  0.28285
       3     C     3.09696  3.09696  0.00000 -0.19391
       4     C     3.15545  3.15545  0.00000 -0.31089
       5     C     3.10026  3.10026  0.00000 -0.20052
       6     H     0.44937  0.44937  0.00000  0.10127
       7     H     0.43921  0.43921  0.00000  0.12158
       8     C     3.08543  3.08543  0.00000 -0.17086
       9     H     0.45278  0.45278  0.00000  0.09444
      10     H     0.44078  0.44078  0.00000  0.11844
      11     C     3.14882  3.14882  0.00000 -0.29765
      12     H     0.45582  0.45582  0.00000  0.08836
      13     H     0.44812  0.44812  0.00000  0.10376
      14     H     0.45566  0.45566  0.00000  0.08867
      15     H     0.45285  0.45285  0.00000  0.09429
      16     H     0.44761  0.44761  0.00000  0.10478
      17     H     0.43598  0.43598  0.00000  0.12805
      18     H     0.45076  0.45076  0.00000  0.09848
      19     H     0.44840  0.44840  0.00000  0.10319

   Total alpha = 28.00000, Total beta = 28.00000, Total charge = -0.00000
