  ==> Input File <==

--------------------------------------------------------------------------
set {
	reference rhf
	basis 6-31G*
}

set_num_threads( 4 )
memory 2 gb

molecule MOL {
0 1

H	 -2.172150	 0.880146	 0.502514
C	 -2.018062	 -0.000025	 -0.114509
O	 -0.774054	 0.001095	 -0.743181
H	 -2.760490	 0.003458	 -0.901350
H	 -2.173624	 -0.884374	 0.496163
C	 -0.691806	 0.252433	 -2.134797
C	 0.804738	 0.173182	 -2.428203
C	 -1.438525	 -0.819609	 -2.935002
C	 -1.217906	 1.650212	 -2.476187
H	 1.185800	 -0.806461	 -2.162644
H	 1.339582	 0.912394	 -1.842642
H	 1.006967	 0.350840	 -3.479489
H	 -1.109987	 -1.809038	 -2.634796
H	 -1.242078	 -0.701999	 -3.995746
H	 -2.512625	 -0.760016	 -2.796030
H	 -0.734148	 2.395836	 -1.854033
H	 -1.011096	 1.886334	 -3.514940
H	 -2.290195	 1.730084	 -2.333185

	symmetry c1
}
set optking {
	frozen_dihedral = ("
		6 3 2 5
	")
}

ee = optimize('scf')
oeprop('DIPOLE', 'QUADRUPOLE', 'MULLIKEN_CHARGES')
f=open( 'psi4out.xyz', 'w' )
f.write( "18  " )
f.write( str(ee) + "\n" )
f.write( MOL.save_string_xyz() )
f.close()
--------------------------------------------------------------------------

    Molecular point group: c1
  Charge       = 0
  Multiplicity = 1
  Basis Set: 6-31G*
  Basis Set:
  @DF-RHF Final Energy:  -271.17074557989321
    Total Energy =                       -271.1707455798934916
    Molecular point group: c1
  Basis Set: 6-31G*
  Basis Set:
  Basis Set: 6-31G*
  Basis Set:
  @DF-RHF Final Energy:  -271.17233436794896
    Total Energy =                       -271.1723343679491904
  Basis Set: 6-31G*
  Basis Set:
  Basis Set: 6-31G*
  Basis Set:
  @DF-RHF Final Energy:  -271.17326834884642
    Total Energy =                       -271.1732683488462499
  Basis Set: 6-31G*
  Basis Set:
  Basis Set: 6-31G*
  Basis Set:
  @DF-RHF Final Energy:  -271.17306442718404
    Total Energy =                       -271.1730644271841015
  Basis Set: 6-31G*
  Basis Set:
  @DF-RHF Final Energy:  -271.17325477171431
    Total Energy =                       -271.1732547717140278
  Basis Set: 6-31G*
  Basis Set:
  @DF-RHF Final Energy:  -271.17331262151782
    Total Energy =                       -271.1733126215177663
  Basis Set: 6-31G*
  Basis Set:
  Basis Set: 6-31G*
  Basis Set:
  @DF-RHF Final Energy:  -271.17331754076753
    Total Energy =                       -271.1733175407675276
  Basis Set: 6-31G*
  Basis Set:
  Basis Set: 6-31G*
  Basis Set:
  @DF-RHF Final Energy:  -271.17332325000120
    Total Energy =                       -271.1733232500008626
  Basis Set: 6-31G*
  Basis Set:
  Charge       = 0
  Multiplicity = 1
  Basis Set: 6-31G*
  Basis Set:

    Orbital Energies (a.u.)
    -----------------------

    Doubly Occupied:

       1A    -20.544369     2A    -11.281980     3A    -11.260959
       4A    -11.208898     5A    -11.208390     6A    -11.203187
       7A     -1.367704     8A     -1.072547     9A     -0.945609
      10A     -0.939935    11A     -0.912815    12A     -0.752662
      13A     -0.654887    14A     -0.643436    15A     -0.638401
      16A     -0.590367    17A     -0.570897    18A     -0.551635
      19A     -0.538799    20A     -0.523677    21A     -0.514919
      22A     -0.489875    23A     -0.487242    24A     -0.437553
      25A     -0.401173

  @DF-RHF Final Energy:  -271.17332269394643

   => Energetics <=

    Nuclear Repulsion Energy =            272.1326746799202851
    One-Electron Energy =                -907.1281647570193627
    Two-Electron Energy =                 363.8221673831527596
    DFT Exchange-Correlation Energy =       0.0000000000000000
    Empirical Dispersion Energy =           0.0000000000000000
    PCM Polarization Energy =               0.0000000000000000
    EFP Energy =                            0.0000000000000000
    Total Energy =                       -271.1733226939462611
    Molecular point group: c1
  Basis Set: 6-31G*
  Basis Set:

  -Total Gradient:
     Atom            X                  Y                   Z
    ------   -----------------  -----------------  -----------------
       1       -0.000010517065     0.000002130262    -0.000004703860
       2        0.000514999532     0.000123646559     0.001032999148
       3        0.000081342203     0.001239834104     0.000049575090
       4        0.000013663675     0.000000201914     0.000021779652
       5       -0.000491957034    -0.000502767776    -0.000873695592
       6       -0.000128224824    -0.000890677788    -0.000169833698
       7       -0.000024213893    -0.000017658646     0.000002610158
       8        0.000037260204     0.000003332539    -0.000030112777
       9       -0.000018365218     0.000027991073    -0.000011941908
      10        0.000028925245     0.000008874300     0.000022080800
      11       -0.000031535354     0.000025190254    -0.000010738831
      12       -0.000005066249    -0.000036034927    -0.000003687191
      13       -0.000014826116    -0.000000076344    -0.000000354963
      14        0.000004915890    -0.000009146448    -0.000025824814
      15        0.000025199865     0.000013142437    -0.000000103184
      16        0.000047865556    -0.000000348029    -0.000018706595
      17       -0.000031190870    -0.000012463241     0.000006260090
      18        0.000001724454     0.000024829755     0.000014398475

  **** Optimization is complete! (in 9 steps) ****
    Final optimized geometry and variables:
    Molecular point group: c1

    Geometry (in Angstrom), charge = 0, multiplicity = 1:

    H           -1.189519338781     0.670958721535     2.339877569116
    C           -1.133890225417    -0.183033579745     1.672259871622
    O            0.112106393034    -0.219513081553     1.040150626630
    H           -1.962492149641    -0.122998394569     0.977530748675
    H           -1.255044004366    -1.089908620686     2.253725189366
    C            0.216127789920     0.040073351553    -0.347898244192
    C            1.716698909448    -0.030986625490    -0.620968865378
    C           -0.511048195974    -1.036120753656    -1.160420178618
    C           -0.309814466524     1.438735000115    -0.685354926614
    H            2.100143605094    -1.007621448740    -0.348206306590
    H            2.239586529356     0.712972691692    -0.030796813676
    H            1.931018371412     0.144993965312    -1.670253569229
    H           -0.153505013170    -2.020418022251    -0.877891576347
    H           -0.330234426131    -0.897833772394    -2.221620814497
    H           -1.584661868264    -1.009305100409    -1.008256213354
    H            0.197137443098     2.183980258977    -0.081622850780
    H           -0.134200954969     1.669530133204    -1.731150575715
    H           -1.376366633978     1.526778017952    -0.507129198776

  Mulliken Charges: (a.u.)
   Center  Symbol    Alpha    Beta     Spin     Total
       1     H     0.42271  0.42271  0.00000  0.15459
       2     C     3.07653  3.07653  0.00000 -0.15306
       3     O     4.32203  4.32203  0.00000 -0.64406
       4     H     0.42996  0.42996  0.00000  0.14008
       5     H     0.41868  0.41868  0.00000  0.16264
       6     C     2.84405  2.84405  0.00000  0.31190
       7     C     3.23300  3.23300  0.00000 -0.46600
       8     C     3.24449  3.24449  0.00000 -0.48898
       9     C     3.24569  3.24569  0.00000 -0.49138
      10     H     0.41390  0.41390  0.00000  0.17220
      11     H     0.41430  0.41430  0.00000  0.17140
      12     H     0.42509  0.42509  0.00000  0.14981
      13     H     0.41346  0.41346  0.00000  0.17307
      14     H     0.42058  0.42058  0.00000  0.15884
      15     H     0.42099  0.42099  0.00000  0.15803
      16     H     0.41368  0.41368  0.00000  0.17263
      17     H     0.41996  0.41996  0.00000  0.16007
      18     H     0.42089  0.42089  0.00000  0.15823

   Total alpha = 25.00000, Total beta = 25.00000, Total charge =  0.00000
