  ==> Input File <==

--------------------------------------------------------------------------
set {
	reference rhf
	basis cc-pvtz
}

set_num_threads( 4 )
memory 2 gb

molecule MOL {
0 1

H	 -2.266619	 1.169943	 0.000098
O	 -1.438073	 1.611259	 0.000041
C	 -0.408657	 0.734701	 0.000005
C	 0.066780	 0.329773	 -1.233446
C	 0.155396	 0.254538	 1.176185
H	 -0.395128	 0.723009	 -2.117718
C	 1.114984	 -0.562765	 -1.308349
C	 1.207214	 -0.641080	 1.070944
C	 -0.364571	 0.697411	 2.521436
H	 1.478789	 -0.872625	 -2.269397
C	 1.692468	 -1.054389	 -0.153686
H	 1.654004	 -1.021434	 1.970765
H	 -1.410222	 0.434940	 2.655754
H	 0.190180	 0.225139	 3.319340
H	 -0.272137	 1.771551	 2.655614
H	 2.508176	 -1.748964	 -0.204247

	symmetry c1
}
set optking {
	frozen_dihedral = ("
		4 3 2 1
	")
}

ee = optimize('scf')
oeprop('DIPOLE', 'QUADRUPOLE', 'MULLIKEN_CHARGES')
f=open( 'psi4out.xyz', 'w' )
f.write( "16  " )
f.write( str(ee) + "\n" )
f.write( MOL.save_string_xyz() )
f.close()
--------------------------------------------------------------------------

    Molecular point group: c1
  Charge       = 0
  Multiplicity = 1
  Basis Set: CC-PVTZ
  Basis Set:
  @DF-RHF Final Energy:  -344.71501356023884
    Total Energy =                       -344.7150135602387877
    Molecular point group: c1
  Basis Set: CC-PVTZ
  Basis Set:
  Basis Set: CC-PVTZ
  Basis Set:
  @DF-RHF Final Energy:  -344.71602127443236
    Total Energy =                       -344.7160212744323076
  Basis Set: CC-PVTZ
  Basis Set:
  Basis Set: CC-PVTZ
  Basis Set:
  @DF-RHF Final Energy:  -344.71609495630486
    Total Energy =                       -344.7160949563044596
  Basis Set: CC-PVTZ
  Basis Set:
  Basis Set: CC-PVTZ
  Basis Set:
  @DF-RHF Final Energy:  -344.71610451174394
    Total Energy =                       -344.7161045117433673
  Basis Set: CC-PVTZ
  Basis Set:
  Basis Set: CC-PVTZ
  Basis Set:
  @DF-RHF Final Energy:  -344.71610690428844
    Total Energy =                       -344.7161069042881536
  Basis Set: CC-PVTZ
  Basis Set:
  Charge       = 0
  Multiplicity = 1
  Basis Set: CC-PVTZ
  Basis Set:

    Orbital Energies (a.u.)
    -----------------------

    Doubly Occupied:

       1A    -20.569568     2A    -11.282386     3A    -11.233532
       4A    -11.227098     5A    -11.226121     6A    -11.223135
       7A    -11.222916     8A    -11.218245     9A     -1.395756
      10A     -1.153577    11A     -1.048179    12A     -1.006981
      13A     -0.935321    14A     -0.833021    15A     -0.808880
      16A     -0.730165    17A     -0.669909    18A     -0.659920
      19A     -0.625398    20A     -0.594074    21A     -0.573710
      22A     -0.567792    23A     -0.546247    24A     -0.521286
      25A     -0.502805    26A     -0.487931    27A     -0.465964
      28A     -0.333708    29A     -0.322491

  @DF-RHF Final Energy:  -344.71610761274007

   => Energetics <=

    Nuclear Repulsion Energy =            350.4322088869083700
    One-Electron Energy =               -1162.3244032662339578
    Two-Electron Energy =                 467.1760867665854562
    DFT Exchange-Correlation Energy =       0.0000000000000000
    Empirical Dispersion Energy =           0.0000000000000000
    PCM Polarization Energy =               0.0000000000000000
    EFP Energy =                            0.0000000000000000
    Total Energy =                       -344.7161076127401316
    Molecular point group: c1
  Basis Set: CC-PVTZ
  Basis Set:

  -Total Gradient:
     Atom            X                  Y                   Z
    ------   -----------------  -----------------  -----------------
       1        0.000012293150     0.000001367382     0.000046373169
       2       -0.000100235729     0.000092843761    -0.000058784887
       3        0.000092568661    -0.000154125554     0.000026383462
       4       -0.000066773127     0.000098953227    -0.000033047550
       5        0.000023209275    -0.000003988606     0.000021502544
       6        0.000014081736    -0.000009251652     0.000025079396
       7        0.000067149109    -0.000062682774     0.000033472780
       8       -0.000078115340     0.000059932909     0.000034239753
       9       -0.000008332527    -0.000035674013    -0.000026556536
      10        0.000008180439    -0.000009900991    -0.000008042144
      11        0.000018406024     0.000004651488    -0.000079046400
      12        0.000002386937    -0.000004815638     0.000008801896
      13        0.000003986779     0.000003392795    -0.000007322136
      14        0.000002252977     0.000003701053     0.000011595383
      15        0.000017651237     0.000012319788     0.000004526243
      16       -0.000008709600     0.000003276829     0.000000825022

  **** Optimization is complete! (in 6 steps) ****
    Final optimized geometry and variables:
    Molecular point group: c1

    Geometry (in Angstrom), charge = 0, multiplicity = 1:

    H           -2.449214843924     0.992548321350    -0.242712103545
    O           -1.611505276456     1.421662628086    -0.235934520005
    C           -0.596477272560     0.502819510661    -0.295571431191
    C           -0.116394889596     0.107415442365    -1.526397003333
    C           -0.034865875272     0.027505383813     0.882663744484
    H           -0.566704486505     0.512351646401    -2.412072765782
    C            0.934841800933    -0.786771093621    -1.605610632078
    C            1.018418824109    -0.865823927349     0.780487344759
    C           -0.559588187429     0.480596577635     2.220154881445
    H            1.306076564964    -1.092420896150    -2.564955648611
    C            1.503200984254    -1.276058322431    -0.448137513073
    H            1.468641497600    -1.245709056412     1.678517276595
    H           -1.589300969979     0.172920438618     2.366139607378
    H            0.030041151491     0.061189699782     3.023988751023
    H           -0.534884703939     1.559666439266     2.301884066357
    H            2.321717127642    -1.968236593202    -0.496702716083

  Mulliken Charges: (a.u.)
   Center  Symbol    Alpha    Beta     Spin     Total
       1     H     0.39025  0.39025  0.00000  0.21949
       2     O     4.18901  4.18901  0.00000 -0.37802
       3     C     2.88684  2.88684  0.00000  0.22631
       4     C     3.10747  3.10747  0.00000 -0.21494
       5     C     2.99298  2.99298  0.00000  0.01404
       6     H     0.41859  0.41859  0.00000  0.16281
       7     C     3.07739  3.07739  0.00000 -0.15479
       8     C     3.09509  3.09509  0.00000 -0.19019
       9     C     3.14423  3.14423  0.00000 -0.28847
      10     H     0.42205  0.42205  0.00000  0.15589
      11     C     3.07880  3.07880  0.00000 -0.15761
      12     H     0.42443  0.42443  0.00000  0.15114
      13     H     0.45532  0.45532  0.00000  0.08937
      14     H     0.45211  0.45211  0.00000  0.09578
      15     H     0.44144  0.44144  0.00000  0.11713
      16     H     0.42397  0.42397  0.00000  0.15206

   Total alpha = 29.00000, Total beta = 29.00000, Total charge = -0.00000
