  ==> Input File <==

--------------------------------------------------------------------------
set {
	reference rhf
	basis cc-pvtz
}

set_num_threads( 4 )
memory 2 gb

molecule MOL {
0 1

H	 2.217273	 -0.283421	 -0.582077
O	 1.583947	 -0.677544	 -0.001533
C	 0.489979	 0.078084	 0.002623
C	 -0.763662	 -0.754014	 0.000816
O	 0.539051	 1.259395	 -0.000088
C	 -2.038001	 0.074705	 -0.000833
H	 -0.712945	 -1.405886	 -0.864342
H	 -0.715137	 -1.405770	 0.866182
H	 -2.087267	 0.710831	 -0.874232
H	 -2.903419	 -0.576199	 -0.001922
H	 -2.089467	 0.710909	 0.872389

	symmetry c1
}
set optking {
	frozen_dihedral = ("
		1 2 3 5
	")
}

ee = optimize('scf')
oeprop('DIPOLE', 'QUADRUPOLE', 'MULLIKEN_CHARGES')
f=open( 'psi4out.xyz', 'w' )
f.write( "11  " )
f.write( str(ee) + "\n" )
f.write( MOL.save_string_xyz() )
f.close()
--------------------------------------------------------------------------

    Molecular point group: c1
  Charge       = 0
  Multiplicity = 1
  Basis Set: CC-PVTZ
  Basis Set:
  @DF-RHF Final Energy:  -266.94492236687199
    Total Energy =                       -266.9449223668719924
    Molecular point group: c1
  Basis Set: CC-PVTZ
  Basis Set:
  Basis Set: CC-PVTZ
  Basis Set:
  @DF-RHF Final Energy:  -266.94245172768274
    Total Energy =                       -266.9424517276827942
  Basis Set: CC-PVTZ
  Basis Set:
  Basis Set: CC-PVTZ
  Basis Set:
  @DF-RHF Final Energy:  -266.94571525343838
    Total Energy =                       -266.9457152534383795
  Basis Set: CC-PVTZ
  Basis Set:
  Basis Set: CC-PVTZ
  Basis Set:
  @DF-RHF Final Energy:  -266.94577540595424
    Total Energy =                       -266.9457754059542367
  Basis Set: CC-PVTZ
  Basis Set:
  Basis Set: CC-PVTZ
  Basis Set:
  @DF-RHF Final Energy:  -266.94578443204915
    Total Energy =                       -266.9457844320489812
  Basis Set: CC-PVTZ
  Basis Set:
  Charge       = 0
  Multiplicity = 1
  Basis Set: CC-PVTZ
  Basis Set:

    Orbital Energies (a.u.)
    -----------------------

    Doubly Occupied:

       1A    -20.598475     2A    -20.545256     3A    -11.374656
       4A    -11.242533     5A    -11.218602     6A     -1.472344
       7A     -1.371363     8A     -1.065592     9A     -0.916630
      10A     -0.804635    11A     -0.708372    12A     -0.689147
      13A     -0.662482    14A     -0.609254    15A     -0.580596
      16A     -0.530271    17A     -0.527176    18A     -0.505706
      19A     -0.487876    20A     -0.448786

  @DF-RHF Final Energy:  -266.94578483858265

   => Energetics <=

    Nuclear Repulsion Energy =            179.8722639769576688
    One-Electron Energy =                -720.9165967831954731
    Two-Electron Energy =                 274.0985479676548948
    DFT Exchange-Correlation Energy =       0.0000000000000000
    Empirical Dispersion Energy =           0.0000000000000000
    PCM Polarization Energy =               0.0000000000000000
    EFP Energy =                            0.0000000000000000
    Total Energy =                       -266.9457848385828811
    Molecular point group: c1
  Basis Set: CC-PVTZ
  Basis Set:

  -Total Gradient:
     Atom            X                  Y                   Z
    ------   -----------------  -----------------  -----------------
       1       -0.003284048868    -0.005964345768    -0.008450832212
       2        0.003627180415     0.007431108197     0.015014354277
       3        0.000526313812    -0.001722971997    -0.016314404950
       4        0.000057140134     0.000002888349    -0.000077508022
       5       -0.000921596946     0.000208821639     0.009727631079
       6        0.000005172767    -0.000012418334     0.000017995831
       7        0.000021865341    -0.000005039036     0.000023014126
       8       -0.000033373451     0.000055484083     0.000073812709
       9       -0.000002844613     0.000003220699    -0.000007278807
      10       -0.000000309170     0.000005128725    -0.000005316181
      11        0.000004500580    -0.000001876556    -0.000001467852

  **** Optimization is complete! (in 6 steps) ****
    Final optimized geometry and variables:
    Molecular point group: c1

    Geometry (in Angstrom), charge = 0, multiplicity = 1:

    H            2.287767500666    -0.308953000485    -0.450320842231
    O            1.593040834992    -0.673051949144     0.075127742462
    C            0.490577404023     0.083351968845    -0.033869358960
    C           -0.762028260638    -0.749331188371    -0.003159245430
    O            0.532305456864     1.261458771962    -0.061083549780
    C           -2.039328224217     0.072890272765     0.043970526814
    H           -0.736284636220    -1.393348697032    -0.876117786674
    H           -0.681237200583    -1.411191139086     0.852196522600
    H           -2.118554653005     0.719177006221    -0.819789994748
    H           -2.902272743430    -0.581206273706     0.062580534308
    H           -2.066155603655     0.698887312944     0.925903756245

  Mulliken Charges: (a.u.)
   Center  Symbol    Alpha    Beta     Spin     Total
       1     H     0.38070  0.38070  0.00000  0.23860
       2     O     4.16920  4.16920  0.00000 -0.33840
       3     C     2.80382  2.80382  0.00000  0.39237
       4     C     3.09988  3.09988  0.00000 -0.19977
       5     O     4.17945  4.17945  0.00000 -0.35889
       6     C     3.13933  3.13933  0.00000 -0.27866
       7     H     0.44322  0.44322  0.00000  0.11356
       8     H     0.43887  0.43887  0.00000  0.12225
       9     H     0.44813  0.44813  0.00000  0.10373
      10     H     0.44979  0.44979  0.00000  0.10042
      11     H     0.44761  0.44761  0.00000  0.10479

   Total alpha = 20.00000, Total beta = 20.00000, Total charge = -0.00000
