                              Psi4 1.0.54 Driver

  ==> Input File <==

--------------------------------------------------------------------------
set {
	reference rhf
	basis cc-pvtz
}

set_num_threads( 4 )
memory 2 gb

molecule MOL {
0 1

H	 -4.388561	 0.377459	 -1.083380
O	 -3.458596	 0.315260	 -0.960865
C	 -3.176635	 -0.080824	 0.355601
C	 -1.763371	 0.265266	 0.799691
H	 -3.321825	 -1.153438	 0.379502
H	 -3.895468	 0.357385	 1.043382
C	 -0.673390	 -0.426948	 -0.013392
H	 -1.631049	 1.344913	 0.747560
H	 -1.664587	 -0.001624	 1.849167
C	 0.737842	 -0.043159	 0.423759
H	 -0.806103	 -0.190518	 -1.063345
H	 -0.797221	 -1.503753	 0.074146
C	 1.824000	 -0.743224	 -0.390623
H	 0.850588	 1.033777	 0.343840
H	 0.868587	 -0.286314	 1.476203
C	 3.255957	 -0.453067	 0.062319
H	 1.718250	 -0.470599	 -1.438164
H	 1.658105	 -1.815850	 -0.339904
C	 3.707029	 0.992337	 -0.133857
H	 3.928201	 -1.104096	 -0.488158
H	 3.362667	 -0.724561	 1.109374
H	 3.605811	 1.294044	 -1.171549
H	 4.748333	 1.111029	 0.143343
H	 3.129882	 1.683078	 0.468956

	symmetry c1
}
set optking {
	frozen_dihedral = ("
		1 2 3 5
	")
}

ee,wfn = optimize('scf', return_wfn=True)
oeprop( wfn, 'DIPOLE', 'QUADRUPOLE', 'MULLIKEN_CHARGES')
f=open( 'psi4out.xyz', 'w' )
f.write( "24  " )
f.write( str(ee) + "\n" )
f.write( MOL.save_string_xyz() )
f.close()
--------------------------------------------------------------------------

    Molecular point group: c1
  Charge       = 0
  Multiplicity = 1
  Basis Set: CC-PVTZ
  Basis Set:
  @DF-RHF Final Energy:  -349.37876139880285
    Total Energy =                       -349.3787613988024532
    Molecular point group: c1
  Basis Set: CC-PVTZ
  Basis Set:
  Basis Set: CC-PVTZ
  Basis Set:
  @DF-RHF Final Energy:  -349.38003678771076
    Total Energy =                       -349.3800367877106510
  Basis Set: CC-PVTZ
  Basis Set:
  Basis Set: CC-PVTZ
  Basis Set:
  @DF-RHF Final Energy:  -349.38026803698131
    Total Energy =                       -349.3802680369817040
  Basis Set: CC-PVTZ
  Basis Set:
  Basis Set: CC-PVTZ
  Basis Set:
  @DF-RHF Final Energy:  -349.38027730125140
    Total Energy =                       -349.3802773012513398
  Basis Set: CC-PVTZ
  Basis Set:
  Basis Set: CC-PVTZ
  Basis Set:
  @DF-RHF Final Energy:  -349.38028097930584
    Total Energy =                       -349.3802809793059510
  Basis Set: CC-PVTZ
  Basis Set:
  Charge       = 0
  Multiplicity = 1
  Basis Set: CC-PVTZ
  Basis Set:

    Orbital Energies (a.u.)
    -----------------------

    Doubly Occupied:

       1A    -20.545747     2A    -11.265791     3A    -11.209912
       4A    -11.209418     5A    -11.206500     6A    -11.205757
       7A    -11.204232     8A    -11.202535     9A     -1.363566
      10A     -1.086360    11A     -1.047091    12A     -0.985016
      13A     -0.912836    14A     -0.843938    15A     -0.789575
      16A     -0.773325    17A     -0.706511    18A     -0.648483
      19A     -0.631222    20A     -0.611130    21A     -0.586276
      22A     -0.578086    23A     -0.557150    24A     -0.530066
      25A     -0.526057    26A     -0.503990    27A     -0.489056
      28A     -0.483624    29A     -0.466686    30A     -0.454998
      31A     -0.449914    32A     -0.434779    33A     -0.430159

  @DF-RHF Final Energy:  -349.38028109099952

   => Energetics <=

    Nuclear Repulsion Energy =            385.1719703747873496
    One-Electron Energy =               -1237.2249385937948318
    Two-Electron Energy =                 502.6726871280081923
    DFT Exchange-Correlation Energy =       0.0000000000000000
    Empirical Dispersion Energy =           0.0000000000000000
    PCM Polarization Energy =               0.0000000000000000
    EFP Energy =                            0.0000000000000000
    Total Energy =                       -349.3802810909992331
    Molecular point group: c1
  Basis Set: CC-PVTZ
  Basis Set:

  -Total Gradient:
     Atom            X                  Y                   Z
    ------   -----------------  -----------------  -----------------
       1        0.000077686357     0.001332458405     0.000435118634
       2        0.000221246590    -0.001701272582    -0.000604536645
       3       -0.001439063797     0.000536025808     0.000487261087
       4       -0.000019767525    -0.000007343370     0.000033763765
       5        0.001153403108    -0.000159584888    -0.000307958888
       6        0.000020424001    -0.000009104859    -0.000009209528
       7       -0.000010665034    -0.000003468006    -0.000019486897
       8       -0.000007949985    -0.000001086852    -0.000002039122
       9       -0.000009970519     0.000008273784    -0.000003873083
      10       -0.000004911415     0.000000461066    -0.000001413802
      11        0.000005559135    -0.000001407615    -0.000003563647
      12        0.000000539832     0.000003647097    -0.000003306937
      13        0.000006569887     0.000011830290    -0.000008300239
      14       -0.000013394904    -0.000017526786    -0.000006502283
      15        0.000001458513     0.000006970126     0.000007297372
      16       -0.000006933906     0.000002382766     0.000022010833
      17       -0.000002163997     0.000009195536     0.000001191619
      18        0.000003614423    -0.000003777384    -0.000009588171
      19        0.000008928410    -0.000001534979    -0.000005553646
      20        0.000000015363    -0.000004811681     0.000004648839
      21       -0.000001030657     0.000005484614     0.000006044722
      22       -0.000003342901     0.000004683162    -0.000004085290
      23        0.000001832209    -0.000002993665    -0.000005800337
      24        0.000017916810    -0.000007499986    -0.000002118357

  **** Optimization is complete! (in 6 steps) ****
    Final optimized geometry and variables:
    Molecular point group: c1

    Geometry (in Angstrom), charge = 0, multiplicity = 1:

    H           -4.344754330110     0.488367093262    -0.908105989931
    O           -3.419595294397     0.398591022767    -0.777974113033
    C           -3.152721181806    -0.028381381721     0.533878797048
    C           -1.716479715520     0.307457133983     0.888827838646
    H           -3.306387453750    -1.102486369566     0.615631098639
    H           -3.823402960019     0.458738870755     1.235849422860
    C           -0.686342766348    -0.408520734608     0.019552136575
    H           -1.584073938492     1.382006672984     0.806893339426
    H           -1.558315726555     0.047328287319     1.932559036146
    C            0.752404925854    -0.050560788689     0.382535055858
    H           -0.869714860297    -0.166806639135    -1.021091448294
    H           -0.824808945395    -1.483237813753     0.115261133428
    C            1.782228581641    -0.770439666131    -0.486003222056
    H            0.879432879713     1.023933566233     0.294855986569
    H            0.933383361159    -0.295496573451     1.427274784301
    C            3.240856826732    -0.506882679724    -0.107802778738
    H            1.627590682629    -0.495721195125    -1.526867841219
    H            1.599691055756    -1.839999331718    -0.425938453793
    C            3.708446763129     0.929500549210    -0.330063369973
    H            3.871799430665    -1.171155267756    -0.690589339015
    H            3.396142721046    -0.779051579821     0.933047862669
    H            3.557602926114     1.232537432879    -1.361293766128
    H            4.765203439321     1.028426628313    -0.108977826552
    H            3.177362962452     1.631439859771     0.301352565886

  Mulliken Charges: (a.u.)
   Center  Symbol    Alpha    Beta     Spin     Total
       1     H     0.39480  0.39480  0.00000  0.21040
       2     O     4.19975  4.19975  0.00000 -0.39949
       3     C     2.97351  2.97351  0.00000  0.05299
       4     C     3.08837  3.08837  0.00000 -0.17673
       5     H     0.47367  0.47367  0.00000  0.05266
       6     H     0.46594  0.46594  0.00000  0.06812
       7     C     3.09029  3.09029  0.00000 -0.18059
       8     H     0.45420  0.45420  0.00000  0.09161
       9     H     0.45548  0.45548  0.00000  0.08905
      10     C     3.09166  3.09166  0.00000 -0.18332
      11     H     0.44349  0.44349  0.00000  0.11303
      12     H     0.45806  0.45806  0.00000  0.08387
      13     C     3.09417  3.09417  0.00000 -0.18834
      14     H     0.45234  0.45234  0.00000  0.09533
      15     H     0.45696  0.45696  0.00000  0.08608
      16     C     3.09020  3.09020  0.00000 -0.18041
      17     H     0.45353  0.45353  0.00000  0.09294
      18     H     0.45064  0.45064  0.00000  0.09871
      19     C     3.15230  3.15230  0.00000 -0.30459
      20     H     0.44915  0.44915  0.00000  0.10169
      21     H     0.45565  0.45565  0.00000  0.08870
      22     H     0.45476  0.45476  0.00000  0.09048
      23     H     0.44723  0.44723  0.00000  0.10555
      24     H     0.45386  0.45386  0.00000  0.09229

   Total alpha = 33.00000, Total beta = 33.00000, Total charge = -0.00000

*** Psi4 exiting successfully. Buy a developer a beer!
