  ==> Input File <==

--------------------------------------------------------------------------
set {
	reference rhf
	basis 6-31G*
}

set_num_threads( 4 )
memory 2 gb

molecule MOL {
0 1

H	 -0.120814	 3.060970	 6.467693
C	 -0.689458	 2.165142	 6.238221
C	 -1.018497	 2.086362	 4.748019
H	 -0.099382	 1.309305	 6.552379
H	 -1.593435	 2.183624	 6.840951
C	 -1.826754	 0.836989	 4.390807
H	 -0.096128	 2.096179	 4.176406
H	 -1.579181	 2.973060	 4.456312
C	 -2.186786	 0.739770	 2.908177
H	 -1.271905	 -0.049377	 4.677412
H	 -2.749028	 0.833649	 4.967383
C	 -1.008363	 0.432875	 1.995829
H	 -2.911421	 -0.058989	 2.757646
H	 -2.676589	 1.648991	 2.566730
C	 -1.181045	 0.701995	 0.511084
O	 0.011264	 -0.020310	 2.421726
C	 -2.285934	 -0.139295	 -0.145128
H	 -0.226788	 0.500213	 0.039500
H	 -1.403910	 1.758601	 0.374702
C	 -3.651768	 0.085446	 0.506485
H	 -2.346596	 0.110469	 -1.202272
H	 -2.034737	 -1.195320	 -0.088721
C	 -4.759797	 -0.746382	 -0.137905
H	 -3.908762	 1.140117	 0.445781
H	 -3.588286	 -0.154158	 1.565709
H	 -4.868882	 -0.505166	 -1.191300
H	 -4.548009	 -1.809175	 -0.062213
H	 -5.715422	 -0.564821	 0.343442

	symmetry c1
}
set optking {
	frozen_dihedral = ("
		12 15 17 21
	")
}

ee = optimize('scf')
oeprop('DIPOLE', 'QUADRUPOLE', 'MULLIKEN_CHARGES')
f=open( 'psi4out.xyz', 'w' )
f.write( "28  " )
f.write( str(ee) + "\n" )
f.write( MOL.save_string_xyz() )
f.close()
--------------------------------------------------------------------------

    Molecular point group: c1
  Charge       = 0
  Multiplicity = 1
  Basis Set: 6-31G*
  Basis Set:
  @DF-RHF Final Energy:  -426.14252460614068
    Total Energy =                       -426.1425246061403413
    Molecular point group: c1
  Basis Set: 6-31G*
  Basis Set:
  Basis Set: 6-31G*
  Basis Set:
  @DF-RHF Final Energy:  -426.15906233863973
    Total Energy =                       -426.1590623386402967
  Basis Set: 6-31G*
  Basis Set:
  Basis Set: 6-31G*
  Basis Set:
  @DF-RHF Final Energy:  -426.16205968993347
    Total Energy =                       -426.1620596899334714
  Basis Set: 6-31G*
  Basis Set:
  Basis Set: 6-31G*
  Basis Set:
  @DF-RHF Final Energy:  -426.16282456381873
    Total Energy =                       -426.1628245638186172
  Basis Set: 6-31G*
  Basis Set:
  @DF-RHF Final Energy:  -426.16302717501640
    Total Energy =                       -426.1630271750168504
  @DF-RHF Final Energy:  -426.16361025335175
    Total Energy =                       -426.1636102533512940
  @DF-RHF Final Energy:  -426.16416667294209
    Total Energy =                       -426.1641666729424287
  @DF-RHF Final Energy:  -426.16556403830725
    Total Energy =                       -426.1655640383073660
  @DF-RHF Final Energy:  -426.16664329481557
    Total Energy =                       -426.1666432948159127
  @DF-RHF Final Energy:  -426.16763777864594
    Total Energy =                       -426.1676377786459398
  @DF-RHF Final Energy:  -426.16885777420259
    Total Energy =                       -426.1688577742025927
  @DF-RHF Final Energy:  -426.16936510858932
    Total Energy =                       -426.1693651085895453
  @DF-RHF Final Energy:  -426.16965227038827
    Total Energy =                       -426.1696522703881556
  @DF-RHF Final Energy:  -426.16990186621445
    Total Energy =                       -426.1699018662138769
  @DF-RHF Final Energy:  -426.17023700768675
    Total Energy =                       -426.1702370076872057
  @DF-RHF Final Energy:  -426.17043352150131
    Total Energy =                       -426.1704335215011952
  Basis Set: 6-31G*
  Basis Set:
  @DF-RHF Final Energy:  -426.17048332028389
    Total Energy =                       -426.1704833202836653
  Basis Set: 6-31G*
  Basis Set:
  Basis Set: 6-31G*
  Basis Set:
  @DF-RHF Final Energy:  -426.17049487627219
    Total Energy =                       -426.1704948762723006
  Basis Set: 6-31G*
  Basis Set:
  Basis Set: 6-31G*
  Basis Set:
  @DF-RHF Final Energy:  -426.17049880993306
    Total Energy =                       -426.1704988099326101
  Basis Set: 6-31G*
  Basis Set:
  Charge       = 0
  Multiplicity = 1
  Basis Set: 6-31G*
  Basis Set:

    Orbital Energies (a.u.)
    -----------------------

    Doubly Occupied:

       1A    -20.550107     2A    -11.324824     3A    -11.231646
       4A    -11.231422     5A    -11.219247     6A    -11.217254
       7A    -11.212872     8A    -11.212162     9A    -11.206528
      10A    -11.206216    11A     -1.395835    12A     -1.087627
      13A     -1.076299    14A     -1.021108    15A     -0.989650
      16A     -0.909869    17A     -0.865332    18A     -0.807908
      19A     -0.789629    20A     -0.722133    21A     -0.676184
      22A     -0.636975    23A     -0.633188    24A     -0.614429
      25A     -0.605105    26A     -0.586350    27A     -0.577651
      28A     -0.573774    29A     -0.542150    30A     -0.523080
      31A     -0.521786    32A     -0.510159    33A     -0.496884
      34A     -0.479200    35A     -0.470460    36A     -0.467586
      37A     -0.467288    38A     -0.458389    39A     -0.457269
      40A     -0.394341

  @DF-RHF Final Energy:  -426.17049928285928

   => Energetics <=

    Nuclear Repulsion Energy =            538.9368465307682072
    One-Electron Energy =               -1646.2748573331150510
    Two-Electron Energy =                 681.1675115194875616
    DFT Exchange-Correlation Energy =       0.0000000000000000
    Empirical Dispersion Energy =           0.0000000000000000
    PCM Polarization Energy =               0.0000000000000000
    EFP Energy =                            0.0000000000000000
    Total Energy =                       -426.1704992828592822
    Molecular point group: c1
  Basis Set: 6-31G*
  Basis Set:

  -Total Gradient:
     Atom            X                  Y                   Z
    ------   -----------------  -----------------  -----------------
       1       -0.000003958091    -0.000004487418    -0.000007141085
       2       -0.000007521155     0.000000385883     0.000002634029
       3        0.000020480443    -0.000023717349    -0.000034566614
       4       -0.000002377791    -0.000003316900     0.000008057446
       5        0.000003936219    -0.000001966523     0.000001184478
       6        0.000006532098     0.000014850955    -0.000028629659
       7       -0.000014463828     0.000023470049     0.000010071558
       8        0.000004147003     0.000012867057     0.000009188261
       9       -0.000010542376    -0.000057771824     0.000012072141
      10       -0.000007807794    -0.000022535957     0.000014721550
      11       -0.000010427249    -0.000004080959    -0.000022834968
      12       -0.002607366269     0.000345872239     0.000313384927
      13       -0.000008135946     0.000007183219     0.000005566173
      14        0.000021287478     0.000019100210    -0.000007372043
      15        0.002956466632    -0.000365917859    -0.000365331838
      16        0.000001920931     0.000019857311     0.000039659051
      17        0.003155386044    -0.000380305520    -0.000334807899
      18        0.000013951285     0.000009535582     0.000001079018
      19        0.000012820643    -0.000016246238     0.000001703388
      20        0.000009679555     0.000001833177    -0.000024754046
      21       -0.003522757750     0.000431601226     0.000403441802
      22        0.000006673802    -0.000011134750     0.000005242127
      23       -0.000019212357     0.000000158673     0.000000999267
      24        0.000004982134     0.000000219338    -0.000011712117
      25       -0.000001477720    -0.000009014629     0.000004991399
      26       -0.000007315928     0.000005292493    -0.000002603192
      27        0.000003974438     0.000011845301     0.000008815845
      28        0.000001125546    -0.000003576784    -0.000003058999

  **** Optimization is complete! (in 20 steps) ****
    Final optimized geometry and variables:
    Molecular point group: c1

    Geometry (in Angstrom), charge = 0, multiplicity = 1:

    H            3.215741662843     0.858616464787     4.007917409282
    C            2.135034563293     0.840884807103     3.906774794995
    C            1.710866239049     1.116188381084     2.464775731272
    H            1.788136570414    -0.134368499814     4.235293871860
    H            1.726890778586     1.584053360137     4.586438495571
    C            0.190751061619     1.105676398096     2.288067599428
    H            2.155853628110     0.372751719210     1.811697537866
    H            2.101986760635     2.083609122333     2.153624418211
    C           -0.263520800471     1.389513441085     0.857147409363
    H           -0.204818511095     0.145194522040     2.599986952449
    H           -0.248273936002     1.855866187851     2.941784564644
    C           -0.004835185371     0.261442962911    -0.127446132766
    H           -1.337868806059     1.570894691669     0.832318981488
    H            0.193333348116     2.300801952935     0.475990359896
    C           -0.125043869794     0.620639057619    -1.599186980824
    O            0.284629016067    -0.839882155434     0.232221213427
    C           -0.370784968166    -0.557991958792    -2.542714370303
    H            0.801818777738     1.127582823657    -1.866172881514
    H           -0.909385422624     1.365691691324    -1.714042454536
    C           -1.666348434178    -1.325574553042    -2.259624689653
    H           -0.435430698548    -0.161671354145    -3.553613205660
    H            0.473727688510    -1.237558130015    -2.507989600308
    C           -1.921086571295    -2.431665726836    -3.283194381894
    H           -2.503949347088    -0.629292969703    -2.269399121462
    H           -1.627418441707    -1.757686252471    -1.266762386445
    H           -2.000251517700    -2.029068067741    -4.289410484066
    H           -1.113978380514    -3.158485055384    -3.280124048067
    H           -2.843113584938    -2.961794541324    -3.065768242386

  Mulliken Charges: (a.u.)
   Center  Symbol    Alpha    Beta     Spin     Total
       1     H     0.41927  0.41927  0.00000  0.16146
       2     C     3.24013  3.24013  0.00000 -0.48027
       3     C     3.15651  3.15651  0.00000 -0.31303
       4     H     0.41837  0.41837  0.00000  0.16325
       5     H     0.42355  0.42355  0.00000  0.15290
       6     C     3.14944  3.14944  0.00000 -0.29888
       7     H     0.40985  0.40985  0.00000  0.18030
       8     H     0.42757  0.42757  0.00000  0.14486
       9     C     3.21101  3.21101  0.00000 -0.42203
      10     H     0.40741  0.40741  0.00000  0.18519
      11     H     0.42158  0.42158  0.00000  0.15684
      12     C     2.72955  2.72955  0.00000  0.54089
      13     H     0.40452  0.40452  0.00000  0.19096
      14     H     0.41116  0.41116  0.00000  0.17768
      15     C     3.20942  3.20942  0.00000 -0.41884
      16     O     4.27071  4.27071  0.00000 -0.54141
      17     C     3.14667  3.14667  0.00000 -0.29335
      18     H     0.40336  0.40336  0.00000  0.19329
      19     H     0.41289  0.41289  0.00000  0.17423
      20     C     3.15956  3.15956  0.00000 -0.31912
      21     H     0.42158  0.42158  0.00000  0.15684
      22     H     0.40997  0.40997  0.00000  0.18007
      23     C     3.24006  3.24006  0.00000 -0.48012
      24     H     0.42844  0.42844  0.00000  0.14312
      25     H     0.40546  0.40546  0.00000  0.18909
      26     H     0.42384  0.42384  0.00000  0.15233
      27     H     0.41914  0.41914  0.00000  0.16171
      28     H     0.41897  0.41897  0.00000  0.16205

   Total alpha = 40.00000, Total beta = 40.00000, Total charge = -0.00000
