  ==> Input File <==

--------------------------------------------------------------------------
set {
	reference rhf
	basis 6-31G*
}

set_num_threads( 1 )
memory 2 gb

molecule MOL {
0 1

H	 -1.044885	 6.053676	 4.186817
C	 -1.863692	 5.342285	 4.142098
C	 -1.711215	 4.398832	 2.949695
H	 -1.873206	 4.789755	 5.076957
H	 -2.789929	 5.907288	 4.081648
C	 -2.854226	 3.385925	 2.852963
H	 -0.766151	 3.871370	 3.028683
H	 -1.669887	 4.983272	 2.031864
C	 -2.738377	 2.439231	 1.658134
H	 -2.898648	 2.799585	 3.763938
H	 -3.797718	 3.921377	 2.774512
C	 -1.624063	 1.410241	 1.779483
H	 -3.665312	 1.879835	 1.541352
H	 -2.612434	 2.995774	 0.732080
C	 -1.181045	 0.701995	 0.511084
O	 -1.124233	 1.150470	 2.832619
C	 -2.285934	 -0.139295	 -0.145128
H	 -0.339612	 0.073377	 0.776686
H	 -0.828726	 1.449419	 -0.197374
C	 -3.651768	 0.085446	 0.506485
H	 -2.346596	 0.110469	 -1.202272
H	 -2.034737	 -1.195320	 -0.088721
C	 -4.759797	 -0.746382	 -0.137905
H	 -3.908762	 1.140117	 0.445781
H	 -3.588286	 -0.154158	 1.565709
H	 -4.868882	 -0.505166	 -1.191300
H	 -4.548009	 -1.809175	 -0.062213
H	 -5.715422	 -0.564821	 0.343442

	symmetry c1
}
set optking {
	frozen_dihedral = ("
		10 6 3 2,
		16 12 15 17
	")
}

ee = energy('scf')
oeprop('DIPOLE', 'QUADRUPOLE', 'MULLIKEN_CHARGES')
f=open( 'psi4out.xyz', 'w' )
f.write( "28  " )
f.write( str(ee) + "\n" )
f.write( MOL.save_string_xyz() )
f.close()
--------------------------------------------------------------------------

    Molecular point group: c1

    Geometry (in Angstrom), charge = 0, multiplicity = 1:

       Center              X                  Y                   Z               Mass
    ------------   -----------------  -----------------  -----------------  -----------------
           H          1.345128298649     4.245774955974     2.480462332769     1.007825032070
           C          0.526321298649     3.534383955974     2.435743332769    12.000000000000
           C          0.678798298649     2.590930955974     1.243340332769    12.000000000000
           H          0.516807298649     2.981853955974     3.370602332769     1.007825032070
           H         -0.399915701351     4.099386955974     2.375293332769     1.007825032070
           C         -0.464212701351     1.578023955974     1.146608332769    12.000000000000
           H          1.623862298649     2.063468955974     1.322328332769     1.007825032070
           H          0.720126298649     3.175370955974     0.325509332769     1.007825032070
           C         -0.348363701351     0.631329955974    -0.048220667231    12.000000000000
           H         -0.508634701351     0.991683955974     2.057583332769     1.007825032070
           H         -1.407704701351     2.113475955974     1.068157332769     1.007825032070
           C          0.765950298649    -0.397660044026     0.073128332769    12.000000000000
           H         -1.275298701351     0.071933955974    -0.165002667231     1.007825032070
           H         -0.222420701351     1.187872955974    -0.974274667231     1.007825032070
           C          1.208968298649    -1.105906044026    -1.195270667231    12.000000000000
           O          1.265780298649    -0.657431044026     1.126264332769    15.994914619560
           C          0.104079298649    -1.947196044026    -1.851482667231    12.000000000000
           H          2.050401298649    -1.734524044026    -0.929668667231     1.007825032070
           H          1.561287298649    -0.358482044026    -1.903728667231     1.007825032070
           C         -1.261754701351    -1.722455044026    -1.199869667231    12.000000000000
           H          0.043417298649    -1.697432044026    -2.908626667231     1.007825032070
           H          0.355276298649    -3.003221044026    -1.795075667231     1.007825032070
           C         -2.369783701351    -2.554283044026    -1.844259667231    12.000000000000
           H         -1.518748701351    -0.667784044026    -1.260573667231     1.007825032070
           H         -1.198272701351    -1.962059044026    -0.140645667231     1.007825032070
           H         -2.478868701351    -2.313067044026    -2.897654667231     1.007825032070
           H         -2.157995701351    -3.617076044026    -1.768567667231     1.007825032070
           H         -3.325408701351    -2.372722044026    -1.362912667231     1.007825032070

  Charge       = 0
  Multiplicity = 1
  Basis Set: 6-31G*
  Basis Set:

    Orbital Energies (a.u.)
    -----------------------

    Doubly Occupied:

       1A    -20.548301     2A    -11.321928     3A    -11.231926
       4A    -11.227534     5A    -11.223943     6A    -11.221466
       7A    -11.216095     8A    -11.213622     9A    -11.210253
      10A    -11.204297    11A     -1.393555    12A     -1.105032
      13A     -1.073270    14A     -1.015988    15A     -0.996310
      16A     -0.904748    17A     -0.886935    18A     -0.816705
      19A     -0.791463    20A     -0.727536    21A     -0.664174
      22A     -0.651907    23A     -0.639415    24A     -0.627426
      25A     -0.610595    26A     -0.582109    27A     -0.575439
      28A     -0.571259    29A     -0.557292    30A     -0.531125
      31A     -0.518477    32A     -0.508944    33A     -0.503076
      34A     -0.490717    35A     -0.480003    36A     -0.469626
      37A     -0.465157    38A     -0.462730    39A     -0.429531
      40A     -0.393574

  @DF-RHF Final Energy:  -426.12661041181161

   => Energetics <=

    Nuclear Repulsion Energy =            553.5158967790910083
    One-Electron Energy =               -1675.1581531040928894
    Two-Electron Energy =                 695.5156459131897009
    DFT Exchange-Correlation Energy =       0.0000000000000000
    Empirical Dispersion Energy =           0.0000000000000000
    PCM Polarization Energy =               0.0000000000000000
    EFP Energy =                            0.0000000000000000
    Total Energy =                       -426.1266104118121802

  Mulliken Charges: (a.u.)
   Center  Symbol    Alpha    Beta     Spin     Total
       1     H     0.41985  0.41985  0.00000  0.16031
       2     C     3.24002  3.24002  0.00000 -0.48005
       3     C     3.15631  3.15631  0.00000 -0.31262
       4     H     0.41873  0.41873  0.00000  0.16254
       5     H     0.42407  0.42407  0.00000  0.15187
       6     C     3.14513  3.14513  0.00000 -0.29026
       7     H     0.41119  0.41119  0.00000  0.17762
       8     H     0.42836  0.42836  0.00000  0.14327
       9     C     3.22226  3.22226  0.00000 -0.44452
      10     H     0.40807  0.40807  0.00000  0.18386
      11     H     0.42353  0.42353  0.00000  0.15295
      12     C     2.73493  2.73493  0.00000  0.53014
      13     H     0.39346  0.39346  0.00000  0.21308
      14     H     0.41386  0.41386  0.00000  0.17229
      15     C     3.20338  3.20338  0.00000 -0.40677
      16     O     4.26682  4.26682  0.00000 -0.53364
      17     C     3.15289  3.15289  0.00000 -0.30577
      18     H     0.39734  0.39734  0.00000  0.20532
      19     H     0.41016  0.41016  0.00000  0.17969
      20     C     3.18501  3.18501  0.00000 -0.37002
      21     H     0.41664  0.41664  0.00000  0.16672
      22     H     0.41073  0.41073  0.00000  0.17855
      23     C     3.23601  3.23601  0.00000 -0.47202
      24     H     0.41016  0.41016  0.00000  0.17967
      25     H     0.41199  0.41199  0.00000  0.17602
      26     H     0.42095  0.42095  0.00000  0.15810
      27     H     0.41989  0.41989  0.00000  0.16022
      28     H     0.41827  0.41827  0.00000  0.16346

   Total alpha = 40.00000, Total beta = 40.00000, Total charge = -0.00000
