  ==> Input File <==

--------------------------------------------------------------------------
set {
	reference rhf
	basis 6-31G*
}

set_num_threads( 1 )
memory 2 gb

molecule MOL {
0 1

H	 -3.135461	 -1.215070	 0.001379
O	 -2.310168	 -0.871793	 -0.309793
C	 -2.026376	 0.340750	 0.341611
C	 -0.673256	 0.843270	 -0.132153
H	 -2.792215	 1.080697	 0.115987
H	 -2.013526	 0.200402	 1.421792
C	 0.486613	 -0.083066	 0.235839
H	 -0.715586	 0.970948	 -1.210718
H	 -0.508072	 1.829858	 0.297090
C	 1.856665	 0.556826	 0.004947
H	 0.408870	 -0.997512	 -0.343176
H	 0.397271	 -0.370690	 1.282802
C	 3.015695	 -0.366752	 0.378209
H	 1.947556	 0.843849	 -1.040555
H	 1.929553	 1.477273	 0.581062
H	 2.990294	 -1.281857	 -0.206452
H	 3.974077	 0.112219	 0.202043
H	 2.973023	 -0.645043	 1.427611

	symmetry c1
}
set optking {
	frozen_dihedral = ("
		14 10 7 11,
		2 3 4 8,
		1 2 3 4
	")
}

ee = energy('scf')
oeprop('DIPOLE', 'QUADRUPOLE', 'MULLIKEN_CHARGES')
f=open( 'psi4out.xyz', 'w' )
f.write( "18  " )
f.write( str(ee) + "\n" )
f.write( MOL.save_string_xyz() )
f.close()
--------------------------------------------------------------------------

    Molecular point group: c1

    Geometry (in Angstrom), charge = 0, multiplicity = 1:

       Center              X                  Y                   Z               Mass
    ------------   -----------------  -----------------  -----------------  -----------------
           H         -3.140678776717    -1.255584169333    -0.084159406489     1.007825032070
           O         -2.315385776717    -0.912307169333    -0.395331406489    15.994914619560
           C         -2.031593776717     0.300235830667     0.256072593511    12.000000000000
           C         -0.678473776717     0.802755830667    -0.217691406489    12.000000000000
           H         -2.797432776717     1.040182830667     0.030448593511     1.007825032070
           H         -2.018743776717     0.159887830667     1.336253593511     1.007825032070
           C          0.481395223283    -0.123580169333     0.150300593511    12.000000000000
           H         -0.720803776717     0.930433830667    -1.296256406489     1.007825032070
           H         -0.513289776717     1.789343830667     0.211551593511     1.007825032070
           C          1.851447223283     0.516311830667    -0.080591406489    12.000000000000
           H          0.403652223283    -1.038026169333    -0.428714406489     1.007825032070
           H          0.392053223283    -0.411204169333     1.197263593511     1.007825032070
           C          3.010477223283    -0.407266169333     0.292670593511    12.000000000000
           H          1.942338223283     0.803334830667    -1.126093406489     1.007825032070
           H          1.924335223283     1.436758830667     0.495523593511     1.007825032070
           H          2.985076223283    -1.322371169333    -0.291990406489     1.007825032070
           H          3.968859223283     0.071704830667     0.116504593511     1.007825032070
           H          2.967805223283    -0.685557169333     1.342072593511     1.007825032070

  Charge       = 0
  Multiplicity = 1
  Basis Set: 6-31G*
  Basis Set:

    Orbital Energies (a.u.)
    -----------------------

    Doubly Occupied:

       1A    -20.552844     2A    -11.267955     3A    -11.211906
       4A    -11.211150     5A    -11.206724     6A    -11.204816
       7A     -1.359530     8A     -1.075060     9A     -1.008817
      10A     -0.913147    11A     -0.818015    12A     -0.783865
      13A     -0.704160    14A     -0.644700    15A     -0.623621
      16A     -0.578118    17A     -0.571807    18A     -0.557940
      19A     -0.522634    20A     -0.502618    21A     -0.486449
      22A     -0.467260    23A     -0.458201    24A     -0.448698
      25A     -0.428720

  @DF-RHF Final Energy:  -271.17947490654200

   => Energetics <=

    Nuclear Repulsion Energy =            248.9045197479792364
    One-Electron Energy =                -860.9505728348265166
    Two-Electron Energy =                 340.8665781803059645
    DFT Exchange-Correlation Energy =       0.0000000000000000
    Empirical Dispersion Energy =           0.0000000000000000
    PCM Polarization Energy =               0.0000000000000000
    EFP Energy =                            0.0000000000000000
    Total Energy =                       -271.1794749065412589

  Mulliken Charges: (a.u.)
   Center  Symbol    Alpha    Beta     Spin     Total
       1     H     0.28066  0.28066  0.00000  0.43868
       2     O     4.36974  4.36974  0.00000 -0.73948
       3     C     2.99754  2.99754  0.00000  0.00491
       4     C     3.16053  3.16053  0.00000 -0.32106
       5     H     0.42949  0.42949  0.00000  0.14102
       6     H     0.43252  0.43252  0.00000  0.13495
       7     C     3.15079  3.15079  0.00000 -0.30157
       8     H     0.41455  0.41455  0.00000  0.17090
       9     H     0.42423  0.42423  0.00000  0.15154
      10     C     3.15230  3.15230  0.00000 -0.30460
      11     H     0.40974  0.40974  0.00000  0.18052
      12     H     0.42708  0.42708  0.00000  0.14583
      13     C     3.23890  3.23890  0.00000 -0.47779
      14     H     0.42293  0.42293  0.00000  0.15413
      15     H     0.42519  0.42519  0.00000  0.14961
      16     H     0.42094  0.42094  0.00000  0.15813
      17     H     0.42037  0.42037  0.00000  0.15926
      18     H     0.42249  0.42249  0.00000  0.15501

   Total alpha = 25.00000, Total beta = 25.00000, Total charge =  0.00000
