                              Psi4 1.0.54 Driver

  ==> Input File <==

--------------------------------------------------------------------------
set {
	reference rhf
	basis cc-pvtz
}

set_num_threads( 4 )
memory 2 gb

molecule MOL {
0 1

H	 2.646708	 0.758099	 0.000000
O	 2.258158	 -0.097743	 0.000000
C	 0.911162	 -0.015915	 0.000000
C	 0.201889	 -1.129136	 0.420087
C	 0.238673	 1.123743	 -0.399197
H	 0.740192	 -2.004371	 0.726180
C	 -1.175567	 -1.091600	 0.436851
H	 0.788981	 1.987751	 -0.725237
C	 -1.144594	 1.147164	 -0.377177
H	 -1.719996	 -1.957271	 0.763365
C	 -1.860710	 0.044560	 0.039204
H	 -1.658979	 2.036316	 -0.688854
H	 -2.932706	 0.066250	 0.054983

	symmetry c1
}
set optking {
	frozen_dihedral = ("
		4 3 2 1
	")
}

ee,wfn = optimize('scf', return_wfn=True)
oeprop( wfn, 'DIPOLE', 'QUADRUPOLE', 'MULLIKEN_CHARGES')
f=open( 'psi4out.xyz', 'w' )
f.write( "13  " )
f.write( str(ee) + "\n" )
f.write( MOL.save_string_xyz() )
f.close()
--------------------------------------------------------------------------

    Molecular point group: c1
  Charge       = 0
  Multiplicity = 1
  Basis Set: CC-PVTZ
  Basis Set:
  @DF-RHF Final Energy:  -305.66996992828257
    Total Energy =                       -305.6699699282825691
    Molecular point group: c1
  Basis Set: CC-PVTZ
  Basis Set:
  Basis Set: CC-PVTZ
  Basis Set:
  @DF-RHF Final Energy:  -305.66998491154908
    Total Energy =                       -305.6699849115492498
  Basis Set: CC-PVTZ
  Basis Set:
  Charge       = 0
  Multiplicity = 1
  Basis Set: CC-PVTZ
  Basis Set:

    Orbital Energies (a.u.)
    -----------------------

    Doubly Occupied:

       1A    -20.583355     2A    -11.296683     3A    -11.235109
       4A    -11.233392     5A    -11.226156     6A    -11.220943
       7A    -11.220126     8A     -1.413687     9A     -1.152730
      10A     -1.022743    11A     -1.008390    12A     -0.850113
      13A     -0.826861    14A     -0.741375    15A     -0.687977
      16A     -0.654428    17A     -0.615437    18A     -0.598168
      19A     -0.591841    20A     -0.560618    21A     -0.517538
      22A     -0.493904    23A     -0.484025    24A     -0.343086
      25A     -0.316187

  @DF-RHF Final Energy:  -305.66998813595586

   => Energetics <=

    Nuclear Repulsion Energy =            273.7820373229347410
    One-Electron Energy =                -957.1143050748061114
    Two-Electron Energy =                 377.6622796159152813
    DFT Exchange-Correlation Energy =       0.0000000000000000
    Empirical Dispersion Energy =           0.0000000000000000
    PCM Polarization Energy =               0.0000000000000000
    EFP Energy =                            0.0000000000000000
    Total Energy =                       -305.6699881359560322
    Molecular point group: c1
  Basis Set: CC-PVTZ
  Basis Set:

  -Total Gradient:
     Atom            X                  Y                   Z
    ------   -----------------  -----------------  -----------------
       1        0.000041822322     0.000005784842     0.001864876904
       2       -0.000087260187     0.000241080821    -0.001739802336
       3        0.000117417198    -0.000506622907    -0.001515647871
       4       -0.000249467384     0.000364867120     0.001267384465
       5        0.000165233391    -0.000064922490     0.000143289564
       6        0.000019364408     0.000014992636     0.000020138794
       7        0.000188749094    -0.000113681675     0.000080397347
       8       -0.000013728825    -0.000015381938    -0.000024337238
       9       -0.000183735730    -0.000125758421    -0.000004526966
      10       -0.000012138951    -0.000008161736    -0.000006083413
      11       -0.000004550904     0.000193592911    -0.000101568921
      12        0.000013669886     0.000022243950     0.000007369723
      13        0.000004625686    -0.000008033115     0.000008509946

  **** Optimization is complete! (in 3 steps) ****
    Final optimized geometry and variables:
    Molecular point group: c1

    Geometry (in Angstrom), charge = 0, multiplicity = 1:

    H            2.647817721683     0.751405909652    -0.039668230904
    O            2.259152103348    -0.104467772683    -0.033464884769
    C            0.910353156921    -0.021269278245    -0.019764540846
    C            0.201168297486    -1.130177911926     0.409642275097
    C            0.238444414602     1.119248017133    -0.417854358275
    H            0.739357744975    -2.003545461878     0.721364487823
    C           -1.176873050658    -1.092624855700     0.426813634658
    H            0.790060555083     1.977683884450    -0.755510546617
    C           -1.144288743097     1.146425075741    -0.387961228196
    H           -1.721579309217    -1.956232523010     0.758336615141
    C           -1.860698422170     0.044288393480     0.030666498232
    H           -1.658495659781     2.036224757359    -0.698146231013
    H           -2.932663520099     0.067908516426     0.050099092638

  Mulliken Charges: (a.u.)
   Center  Symbol    Alpha    Beta     Spin     Total
       1     H     0.38658  0.38658  0.00000  0.22683
       2     O     4.17738  4.17738  0.00000 -0.35477
       3     C     2.85362  2.85362  0.00000  0.29276
       4     C     3.11032  3.11032  0.00000 -0.22065
       5     C     3.13163  3.13163  0.00000 -0.26326
       6     H     0.41895  0.41895  0.00000  0.16209
       7     C     3.05767  3.05767  0.00000 -0.11535
       8     H     0.43272  0.43272  0.00000  0.13456
       9     C     3.06530  3.06530  0.00000 -0.13059
      10     H     0.42234  0.42234  0.00000  0.15533
      11     C     3.09728  3.09728  0.00000 -0.19456
      12     H     0.42236  0.42236  0.00000  0.15527
      13     H     0.42383  0.42383  0.00000  0.15234

   Total alpha = 25.00000, Total beta = 25.00000, Total charge = -0.00000

*** Psi4 exiting successfully. Buy a developer a beer!
