                              Psi4 1.0.54 Driver

  ==> Input File <==

--------------------------------------------------------------------------
set {
	reference rhf
	basis cc-pvtz
}

set_num_threads( 4 )
memory 2 gb

molecule MOL {
0 1

O	 0.623971	 1.347241	 -0.000777
C	 0.485107	 0.171416	 -0.000134
C	 1.606966	 -0.836201	 0.000174
O	 -0.695554	 -0.422406	 0.000602
C	 2.988788	 -0.202529	 -0.000115
H	 1.465110	 -1.474645	 -0.864821
H	 1.465209	 -1.474077	 0.865596
H	 3.131767	 0.419673	 -0.873407
H	 3.750876	 -0.972315	 0.000098
H	 3.131883	 0.420264	 0.872742
C	 -1.005822	 -1.282235	 -1.086925
C	 -2.393123	 -1.834707	 -0.857453
H	 -0.267761	 -2.070434	 -1.135446
H	 -0.949835	 -0.720209	 -2.008509
H	 -2.437265	 -2.394452	 0.068350
H	 -2.662104	 -2.497155	 -1.671728
H	 -3.123239	 -1.036568	 -0.809748

	symmetry c1
}
set optking {
	frozen_dihedral = ("
		11 4 2 3
	")
}

ee,wfn = optimize('scf', return_wfn=True)
oeprop( wfn, 'DIPOLE', 'QUADRUPOLE', 'MULLIKEN_CHARGES')
f=open( 'psi4out.xyz', 'w' )
f.write( "17  " )
f.write( str(ee) + "\n" )
f.write( MOL.save_string_xyz() )
f.close()
--------------------------------------------------------------------------

    Molecular point group: c1
  Charge       = 0
  Multiplicity = 1
  Basis Set: CC-PVTZ
  Basis Set:
  @DF-RHF Final Energy:  -345.01693105553903
    Total Energy =                       -345.0169310555390894
    Molecular point group: c1
  Basis Set: CC-PVTZ
  Basis Set:
  Basis Set: CC-PVTZ
  Basis Set:
  @DF-RHF Final Energy:  -345.01565775600722
    Total Energy =                       -345.0156577560070446
  Basis Set: CC-PVTZ
  Basis Set:
  Basis Set: CC-PVTZ
  Basis Set:
  @DF-RHF Final Energy:  -345.02140665797583
    Total Energy =                       -345.0214066579758878
  Basis Set: CC-PVTZ
  Basis Set:
  Basis Set: CC-PVTZ
  Basis Set:
  @DF-RHF Final Energy:  -345.02048539619767
    Total Energy =                       -345.0204853961974436
  Basis Set: CC-PVTZ
  Basis Set:
  Basis Set: CC-PVTZ
  Basis Set:
  @DF-RHF Final Energy:  -345.02197600885495
    Total Energy =                       -345.0219760088548924
  Basis Set: CC-PVTZ
  Basis Set:
  Basis Set: CC-PVTZ
  Basis Set:
  @DF-RHF Final Energy:  -345.02202709731932
    Total Energy =                       -345.0220270973190964
  Basis Set: CC-PVTZ
  Basis Set:
  Basis Set: CC-PVTZ
  Basis Set:
  @DF-RHF Final Energy:  -345.02203075860609
    Total Energy =                       -345.0220307586058084
  Basis Set: CC-PVTZ
  Basis Set:
  Charge       = 0
  Multiplicity = 1
  Basis Set: CC-PVTZ
  Basis Set:

    Orbital Energies (a.u.)
    -----------------------

    Doubly Occupied:

       1A    -20.580112     2A    -20.539133     3A    -11.365763
       4A    -11.295796     5A    -11.242335     6A    -11.223606
       7A    -11.217527     8A     -1.460723     9A     -1.368902
      10A     -1.064492    11A     -1.041976    12A     -0.902441
      13A     -0.873649    14A     -0.771138    15A     -0.704300
      16A     -0.689797    17A     -0.658381    18A     -0.639884
      19A     -0.602194    20A     -0.564080    21A     -0.560052
      22A     -0.537426    23A     -0.527575    24A     -0.518741
      25A     -0.509631    26A     -0.488936    27A     -0.453656
      28A     -0.436154

  @DF-RHF Final Energy:  -345.02203102673298

   => Energetics <=

    Nuclear Repulsion Energy =            315.1731195541324269
    One-Electron Energy =               -1094.7135012217077019
    Two-Electron Energy =                 434.5183506408421295
    DFT Exchange-Correlation Energy =       0.0000000000000000
    Empirical Dispersion Energy =           0.0000000000000000
    PCM Polarization Energy =               0.0000000000000000
    EFP Energy =                            0.0000000000000000
    Total Energy =                       -345.0220310267331456
    Molecular point group: c1
  Basis Set: CC-PVTZ
  Basis Set:

  -Total Gradient:
     Atom            X                  Y                   Z
    ------   -----------------  -----------------  -----------------
       1       -0.000005382952     0.000006913929     0.000015928513
       2       -0.001019880229     0.001685010605    -0.004085296568
       3        0.000214860454    -0.000367332660     0.002407828594
       4        0.002059711349    -0.003583010071     0.002580921132
       5        0.000000743459    -0.000011170674    -0.000005194003
       6       -0.000005985729    -0.000005210947    -0.000000102351
       7       -0.000004805172    -0.000000165228     0.000001641977
       8        0.000003284898     0.000000183838     0.000002077073
       9       -0.000002434505     0.000007192925     0.000001063967
      10        0.000002189416     0.000001744383    -0.000000646244
      11       -0.001269284596     0.002271445219    -0.000949676894
      12       -0.000000128789    -0.000007153288     0.000017512015
      13       -0.000017089825     0.000043720574     0.000021860022
      14        0.000005745146    -0.000029531177     0.000015524665
      15        0.000000887876     0.000022273540    -0.000017484308
      16        0.000000910605    -0.000003573054    -0.000005760662
      17        0.000036658589    -0.000031337912    -0.000000196924

  **** Optimization is complete! (in 8 steps) ****
    Final optimized geometry and variables:
    Molecular point group: c1

    Geometry (in Angstrom), charge = 0, multiplicity = 1:

    O            0.347223178536     1.653784555735     0.573373044021
    C            0.300417363758     0.507969587048     0.309755453248
    C            1.520464187428    -0.352608621579     0.070671554618
    O           -0.876229235406    -0.138878607363     0.306991819511
    C            2.831061799229     0.392545162815     0.270070964721
    H            1.465669160487    -0.757660896271    -0.934417140517
    H            1.443324298485    -1.202977087079     0.739954213286
    H            2.908132430862     1.230900525023    -0.408751972802
    H            3.667627047341    -0.272054686563     0.091414069054
    H            2.908689442152     0.778340833798     1.277390657731
    C           -1.296532233411    -0.844101703979    -0.845970165458
    C           -2.750338689025    -1.211722654269    -0.660410801363
    H           -0.695755554150    -1.736133598375    -0.980469493238
    H           -1.172014906195    -0.213532636894    -1.719561038950
    H           -2.874769171408    -1.831886302010     0.218008852518
    H           -3.105734228857    -1.760962600601    -1.524519072559
    H           -3.353952247130    -0.322166258647    -0.540226138167

  Mulliken Charges: (a.u.)
   Center  Symbol    Alpha    Beta     Spin     Total
       1     O     4.16993  4.16993  0.00000 -0.33986
       2     C     2.80705  2.80705  0.00000  0.38590
       3     C     3.11609  3.11609  0.00000 -0.23218
       4     O     4.15314  4.15314  0.00000 -0.30627
       5     C     3.13869  3.13869  0.00000 -0.27737
       6     H     0.44549  0.44549  0.00000  0.10903
       7     H     0.43723  0.43723  0.00000  0.12554
       8     H     0.44722  0.44722  0.00000  0.10555
       9     H     0.45124  0.45124  0.00000  0.09753
      10     H     0.44584  0.44584  0.00000  0.10832
      11     C     2.98493  2.98493  0.00000  0.03014
      12     C     3.13288  3.13288  0.00000 -0.26576
      13     H     0.46013  0.46013  0.00000  0.07975
      14     H     0.45868  0.45868  0.00000  0.08265
      15     H     0.44919  0.44919  0.00000  0.10162
      16     H     0.45715  0.45715  0.00000  0.08569
      17     H     0.44514  0.44514  0.00000  0.10972

   Total alpha = 28.00000, Total beta = 28.00000, Total charge = -0.00000

*** Psi4 exiting successfully. Buy a developer a beer!
