  ==> Input File <==

--------------------------------------------------------------------------
set {
	reference rhf
	basis 6-31G*
}

set_num_threads( 1 )
memory 2 gb

molecule MOL {
0 1

H	 2.280918	 2.645621	 -2.624566
N	 1.519897	 1.994839	 -2.654138
C	 1.076142	 1.658336	 -1.309009
H	 1.856095	 1.177748	 -3.127597
C	 -0.143718	 0.744449	 -1.359069
H	 0.810072	 2.584343	 -0.808432
H	 1.856287	 1.188770	 -0.704625
C	 -0.679275	 0.379305	 0.025956
H	 -0.916656	 1.235845	 -1.942961
H	 0.116321	 -0.166983	 -1.896665
C	 -1.903357	 -0.536963	 -0.023547
H	 -0.936561	 1.289928	 0.564862
H	 0.106099	 -0.104837	 0.604438
C	 -3.225172	 0.228290	 0.028445
H	 -1.867824	 -1.134999	 -0.931459
H	 -1.860449	 -1.239604	 0.805977
H	 -3.313397	 0.915643	 -0.808262
H	 -4.073500	 -0.448134	 -0.008893
H	 -3.306061	 0.809945	 0.942516

	symmetry c1
}
set optking {
	frozen_dihedral = ("
		6 3 5 9,
		12 8 5 9,
		1 2 3 6
	")
}

ee = energy('scf')
oeprop('DIPOLE', 'QUADRUPOLE', 'MULLIKEN_CHARGES')
f=open( 'psi4out.xyz', 'w' )
f.write( "19  " )
f.write( str(ee) + "\n" )
f.write( MOL.save_string_xyz() )
f.close()
--------------------------------------------------------------------------

    Molecular point group: c1

    Geometry (in Angstrom), charge = 0, multiplicity = 1:

       Center              X                  Y                   Z               Mass
    ------------   -----------------  -----------------  -----------------  -----------------
           H          2.815243974782     1.882899963623    -1.719607911936     1.007825032070
           N          2.054222974782     1.232117963623    -1.749179911936    14.003074004780
           C          1.610467974782     0.895614963623    -0.404050911936    12.000000000000
           H          2.390420974782     0.415026963623    -2.222638911936     1.007825032070
           C          0.390607974782    -0.018272036377    -0.454110911936    12.000000000000
           H          1.344397974782     1.821621963623     0.096526088064     1.007825032070
           H          2.390612974782     0.426048963623     0.200333088064     1.007825032070
           C         -0.144949025218    -0.383416036377     0.930914088064    12.000000000000
           H         -0.382330025218     0.473123963623    -1.038002911936     1.007825032070
           H          0.650646974782    -0.929704036377    -0.991706911936     1.007825032070
           C         -1.369031025218    -1.299684036377     0.881411088064    12.000000000000
           H         -0.402235025218     0.527206963623     1.469820088064     1.007825032070
           H          0.640424974782    -0.867558036377     1.509396088064     1.007825032070
           C         -2.690846025218    -0.534431036377     0.933403088064    12.000000000000
           H         -1.333498025218    -1.897720036377    -0.026500911936     1.007825032070
           H         -1.326123025218    -2.002325036377     1.710935088064     1.007825032070
           H         -2.779071025218     0.152921963623     0.096696088064     1.007825032070
           H         -3.539174025218    -1.210855036377     0.896065088064     1.007825032070
           H         -2.771735025218     0.047223963623     1.847474088064     1.007825032070

  Charge       = 0
  Multiplicity = 1
  Basis Set: 6-31G*
  Basis Set:

    Orbital Energies (a.u.)
    -----------------------

    Doubly Occupied:

       1A    -15.532420     2A    -11.239468     3A    -11.212771
       4A    -11.211580     5A    -11.209606     6A    -11.206596
       7A     -1.176535     8A     -1.073398     9A     -0.995937
      10A     -0.901342    11A     -0.817968    12A     -0.783978
      13A     -0.664036    14A     -0.637212    15A     -0.609842
      16A     -0.593285    17A     -0.584383    18A     -0.536132
      19A     -0.520926    20A     -0.507054    21A     -0.486479
      22A     -0.464467    23A     -0.452927    24A     -0.447934
      25A     -0.380984

  @DF-RHF Final Energy:  -251.34780638127907

   => Energetics <=

    Nuclear Repulsion Energy =            247.9774289097364033
    One-Electron Energy =                -830.1558736648674994
    Two-Electron Energy =                 330.8306383738525369
    DFT Exchange-Correlation Energy =       0.0000000000000000
    Empirical Dispersion Energy =           0.0000000000000000
    PCM Polarization Energy =               0.0000000000000000
    EFP Energy =                            0.0000000000000000
    Total Energy =                       -251.3478063812785308

  Mulliken Charges: (a.u.)
   Center  Symbol    Alpha    Beta     Spin     Total
       1     H     0.33251  0.33251  0.00000  0.33497
       2     N     3.92192  3.92192  0.00000 -0.84385
       3     C     3.06038  3.06038  0.00000 -0.12077
       4     H     0.33540  0.33540  0.00000  0.32919
       5     C     3.15299  3.15299  0.00000 -0.30598
       6     H     0.42084  0.42084  0.00000  0.15832
       7     H     0.43470  0.43470  0.00000  0.13059
       8     C     3.15818  3.15818  0.00000 -0.31637
       9     H     0.41280  0.41280  0.00000  0.17440
      10     H     0.42725  0.42725  0.00000  0.14550
      11     C     3.15356  3.15356  0.00000 -0.30711
      12     H     0.42209  0.42209  0.00000  0.15583
      13     H     0.42248  0.42248  0.00000  0.15505
      14     C     3.24022  3.24022  0.00000 -0.48044
      15     H     0.42127  0.42127  0.00000  0.15746
      16     H     0.42109  0.42109  0.00000  0.15782
      17     H     0.42032  0.42032  0.00000  0.15937
      18     H     0.42018  0.42018  0.00000  0.15963
      19     H     0.42181  0.42181  0.00000  0.15638

   Total alpha = 25.00000, Total beta = 25.00000, Total charge =  0.00000
