  ==> Input File <==

--------------------------------------------------------------------------
set {
	reference rhf
	basis 6-31G*
}

set_num_threads( 4 )
memory 2 gb

molecule MOL {
0 1

O	 -0.988096	 -1.408613	 0.050699
C	 -0.676749	 -0.249230	 -0.009274
C	 -1.746085	 0.827156	 -0.009539
N	 0.623947	 0.147590	 -0.102813
H	 -1.701500	 1.431508	 -0.908902
H	 -2.703425	 0.330732	 0.036390
H	 -1.647323	 1.487769	 0.845106
C	 1.643039	 -0.859311	 -0.325250
C	 1.111870	 1.435140	 0.340347
H	 2.397111	 -0.467327	 -0.998853
H	 1.193530	 -1.733880	 -0.762298
H	 2.129166	 -1.141882	 0.606016
H	 1.946596	 1.731621	 -0.283648
H	 0.354105	 2.197679	 0.255139
H	 1.458249	 1.405302	 1.371824

	symmetry c1
}
set optking {
	frozen_dihedral = ("
		8 4 2 3
	")
}

ee = optimize('scf')
oeprop('DIPOLE', 'QUADRUPOLE', 'MULLIKEN_CHARGES')
f=open( 'psi4out.xyz', 'w' )
f.write( "15  " )
f.write( str(ee) + "\n" )
f.write( MOL.save_string_xyz() )
f.close()
--------------------------------------------------------------------------

    Molecular point group: c1
  Charge       = 0
  Multiplicity = 1
  Basis Set: 6-31G*
  Basis Set:
  @DF-RHF Final Energy:  -286.02754213216076
    Total Energy =                       -286.0275421321606473
    Molecular point group: c1
  Basis Set: 6-31G*
  Basis Set:
  Basis Set: 6-31G*
  Basis Set:
  @DF-RHF Final Energy:  -286.02629227080251
    Total Energy =                       -286.0262922708025144
  Basis Set: 6-31G*
  Basis Set:
  Basis Set: 6-31G*
  Basis Set:
  @DF-RHF Final Energy:  -286.02844346976474
    Total Energy =                       -286.0284434697647384
  Basis Set: 6-31G*
  Basis Set:
  Basis Set: 6-31G*
  Basis Set:
  @DF-RHF Final Energy:  -286.02854500017406
    Total Energy =                       -286.0285450001741765
  Basis Set: 6-31G*
  Basis Set:
  @DF-RHF Final Energy:  -286.02864604919330
    Total Energy =                       -286.0286460491931848
  @DF-RHF Final Energy:  -286.02877004387460
    Total Energy =                       -286.0287700438746583
  @DF-RHF Final Energy:  -286.02907492345844
    Total Energy =                       -286.0290749234584950
  @DF-RHF Final Energy:  -286.02925431569554
    Total Energy =                       -286.0292543156952547
  @DF-RHF Final Energy:  -286.02939910661314
    Total Energy =                       -286.0293991066129138
  @DF-RHF Final Energy:  -286.02956519415721
    Total Energy =                       -286.0295651941572146
  @DF-RHF Final Energy:  -286.02960971046070
    Total Energy =                       -286.0296097104604769
  @DF-RHF Final Energy:  -286.02963583086455
    Total Energy =                       -286.0296358308643221
  Basis Set: 6-31G*
  Basis Set:
  @DF-RHF Final Energy:  -286.02966315284226
    Total Energy =                       -286.0296631528424882
  Basis Set: 6-31G*
  Basis Set:
  Basis Set: 6-31G*
  Basis Set:
  @DF-RHF Final Energy:  -286.02966210514387
    Total Energy =                       -286.0296621051438137
  Basis Set: 6-31G*
  Basis Set:
  Basis Set: 6-31G*
  Basis Set:
  @DF-RHF Final Energy:  -286.02966796751417
    Total Energy =                       -286.0296679675143423
  Basis Set: 6-31G*
  Basis Set:
  Charge       = 0
  Multiplicity = 1
  Basis Set: 6-31G*
  Basis Set:

    Orbital Energies (a.u.)
    -----------------------

    Doubly Occupied:

       1A    -20.514939     2A    -15.583728     3A    -11.341717
       4A    -11.266197     5A    -11.247937     6A    -11.228497
       7A     -1.384699     8A     -1.243728     9A     -1.014321
      10A     -0.972249    11A     -0.918965    12A     -0.737661
      13A     -0.681209    14A     -0.659373    15A     -0.651193
      16A     -0.588746    17A     -0.576017    18A     -0.567973
      19A     -0.562192    20A     -0.546778    21A     -0.529381
      22A     -0.503944    23A     -0.410634    24A     -0.367096

  @DF-RHF Final Energy:  -286.02966812578404

   => Energetics <=

    Nuclear Repulsion Energy =            252.4755562118376986
    One-Electron Energy =                -888.8120991755915838
    Two-Electron Energy =                 350.3068748379697581
    DFT Exchange-Correlation Energy =       0.0000000000000000
    Empirical Dispersion Energy =           0.0000000000000000
    PCM Polarization Energy =               0.0000000000000000
    EFP Energy =                            0.0000000000000000
    Total Energy =                       -286.0296681257841556
    Molecular point group: c1
  Basis Set: 6-31G*
  Basis Set:

  -Total Gradient:
     Atom            X                  Y                   Z
    ------   -----------------  -----------------  -----------------
       1       -0.000017871465    -0.000009950234    -0.000007380164
       2       -0.000209994487    -0.000204674136     0.001273802141
       3        0.000221030217     0.000318823122    -0.001270136732
       4       -0.000163308734    -0.000645500380     0.001208981415
       5       -0.000000482534    -0.000000948823     0.000008507318
       6        0.000001819190    -0.000002698721     0.000006171861
       7       -0.000002009159    -0.000003975899     0.000011158321
       8        0.000162564162     0.000552109711    -0.001243882149
       9        0.000014950209    -0.000016211789     0.000012931920
      10        0.000005839482    -0.000005927364    -0.000005444993
      11       -0.000005384496     0.000009217038     0.000005441391
      12       -0.000008129792     0.000008317947     0.000003186894
      13       -0.000003709097    -0.000003985688    -0.000000877847
      14        0.000002396358    -0.000001874057    -0.000001111158
      15        0.000002290146     0.000007279274    -0.000001348217

  **** Optimization is complete! (in 16 steps) ****
    Final optimized geometry and variables:
    Molecular point group: c1

    Geometry (in Angstrom), charge = 0, multiplicity = 1:

    O           -1.006347018542    -1.332555050892    -0.421382383677
    C           -0.679038713551    -0.224653358996    -0.090842010619
    C           -1.714972641210     0.879245506354     0.007168048984
    N            0.613788676226     0.089319317519     0.212336680722
    H           -1.488060813701     1.696437300793    -0.668997737009
    H           -2.669488807570     0.451787778037    -0.259748760731
    H           -1.775572490634     1.282213590436     1.012300451293
    C            1.646258674734    -0.884897632796    -0.085515510344
    C            1.082114555110     1.445700481741     0.399742184581
    H            2.107183036825    -0.688798964744    -1.051373520200
    H            1.215706400751    -1.871027079049    -0.098625393602
    H            2.416123485552    -0.839803386705     0.676491771932
    H            1.374399767819     1.913229613515    -0.539127795757
    H            0.332937452905     2.061484760531     0.872304737958
    H            1.948845017153     1.430558168879     1.048988596450

  Mulliken Charges: (a.u.)
   Center  Symbol    Alpha    Beta     Spin     Total
       1     O     4.30384  4.30384  0.00000 -0.60769
       2     C     2.62396  2.62396  0.00000  0.75209
       3     C     3.29862  3.29862  0.00000 -0.59724
       4     N     3.82266  3.82266  0.00000 -0.64532
       5     H     0.40780  0.40780  0.00000  0.18441
       6     H     0.39053  0.39053  0.00000  0.21893
       7     H     0.40628  0.40628  0.00000  0.18743
       8     C     3.14599  3.14599  0.00000 -0.29199
       9     C     3.14242  3.14242  0.00000 -0.28483
      10     H     0.42024  0.42024  0.00000  0.15951
      11     H     0.38470  0.38470  0.00000  0.23060
      12     H     0.41828  0.41828  0.00000  0.16343
      13     H     0.41749  0.41749  0.00000  0.16502
      14     H     0.40746  0.40746  0.00000  0.18507
      15     H     0.40972  0.40972  0.00000  0.18056

   Total alpha = 24.00000, Total beta = 24.00000, Total charge =  0.00000
