  ==> Input File <==

--------------------------------------------------------------------------
set {
	reference rhf
	basis 6-31G*
}

set_num_threads( 1 )
memory 2 gb

molecule MOL {
0 1

O	 2.451440	 0.935712	 0.714315
C	 2.701189	 0.057885	 -0.047330
C	 2.340502	 0.034950	 -1.512994
O	 3.347903	 -1.046386	 0.304773
C	 1.604307	 1.292674	 -1.969349
H	 3.261582	 -0.120157	 -2.065030
H	 1.738806	 -0.854157	 -1.683720
C	 1.138830	 1.240122	 -3.428480
H	 2.243687	 2.157225	 -1.818138
H	 0.743136	 1.441438	 -1.326950
C	 2.265857	 1.218268	 -4.465033
H	 0.513165	 2.110106	 -3.613938
H	 0.497957	 0.371646	 -3.573536
C	 1.751275	 1.277117	 -5.904735
H	 2.932197	 2.060892	 -4.286723
H	 2.868757	 0.321124	 -4.344135
C	 2.868546	 1.250597	 -6.949308
H	 1.157364	 2.179767	 -6.037883
H	 1.076467	 0.440774	 -6.080420
C	 2.346442	 1.313556	 -8.384280
H	 3.544355	 2.085102	 -6.774593
H	 3.460655	 0.346924	 -6.820611
H	 3.161505	 1.292967	 -9.101118
H	 1.778658	 2.223820	 -8.555264
H	 1.693848	 0.472555	 -8.601336
C	 4.728119	 -1.109107	 -0.004993
H	 4.882018	 -1.033965	 -1.071845
H	 5.068212	 -2.067527	 0.355250
H	 5.265056	 -0.311663	 0.488280

	symmetry c1
}
set optking {
	frozen_dihedral = ("
		21 17 14 11,
		17 14 11 15,
		15 11 8 5,
		6 3 5 9,
		11 8 5 9,
		2 4 26 27,
		6 3 2 1
	")
}

ee = energy('scf')
oeprop('DIPOLE', 'QUADRUPOLE', 'MULLIKEN_CHARGES')
f=open( 'psi4out.xyz', 'w' )
f.write( "29  " )
f.write( str(ee) + "\n" )
f.write( MOL.save_string_xyz() )
f.close()
--------------------------------------------------------------------------

    Molecular point group: c1

    Geometry (in Angstrom), charge = 0, multiplicity = 1:

       Center              X                  Y                   Z               Mass
    ------------   -----------------  -----------------  -----------------  -----------------
           O         -0.077780111943     0.364273023955     3.567624019523    15.994914619560
           C          0.171968888057    -0.513553976045     2.805979019523    12.000000000000
           C         -0.188718111943    -0.536488976045     1.340315019523    12.000000000000
           O          0.818682888057    -1.617824976045     3.158082019523    15.994914619560
           C         -0.924913111943     0.721235023955     0.883960019523    12.000000000000
           H          0.732361888057    -0.691595976045     0.788279019523     1.007825032070
           H         -0.790414111943    -1.425595976045     1.169589019523     1.007825032070
           C         -1.390390111943     0.668683023955    -0.575170980477    12.000000000000
           H         -0.285533111943     1.585786023955     1.035171019523     1.007825032070
           H         -1.786084111943     0.869999023955     1.526359019523     1.007825032070
           C         -0.263363111943     0.646829023955    -1.611723980477    12.000000000000
           H         -2.016055111943     1.538667023955    -0.760628980477     1.007825032070
           H         -2.031263111943    -0.199792976045    -0.720226980477     1.007825032070
           C         -0.777945111943     0.705678023955    -3.051425980477    12.000000000000
           H          0.402976888057     1.489453023955    -1.433413980477     1.007825032070
           H          0.339536888057    -0.250314976045    -1.490825980477     1.007825032070
           C          0.339325888057     0.679158023955    -4.095998980477    12.000000000000
           H         -1.371856111943     1.608328023955    -3.184573980477     1.007825032070
           H         -1.452753111943    -0.130664976045    -3.227110980477     1.007825032070
           C         -0.182778111943     0.742117023955    -5.530970980477    12.000000000000
           H          1.015134888057     1.513663023955    -3.921283980477     1.007825032070
           H          0.931434888057    -0.224514976045    -3.967301980477     1.007825032070
           H          0.632284888057     0.721528023955    -6.247808980477     1.007825032070
           H         -0.750562111943     1.652381023955    -5.701954980477     1.007825032070
           H         -0.835372111943    -0.098883976045    -5.748026980477     1.007825032070
           C          2.198898888057    -1.680545976045     2.848316019523    12.000000000000
           H          2.352797888057    -1.605403976045     1.781464019523     1.007825032070
           H          2.538991888057    -2.638965976045     3.208559019523     1.007825032070
           H          2.735835888057    -0.883101976045     3.341589019523     1.007825032070

  Charge       = 0
  Multiplicity = 1
  Basis Set: 6-31G*
  Basis Set:

    Orbital Energies (a.u.)
    -----------------------

    Doubly Occupied:

       1A    -20.587994     2A    -20.554576     3A    -11.373493
       4A    -11.296291     5A    -11.236696     6A    -11.220520
       7A    -11.219367     8A    -11.218723     9A    -11.218267
      10A    -11.216767    11A    -11.211037    12A     -1.463791
      13A     -1.367800    14A     -1.099772    15A     -1.067336
      16A     -1.015910    17A     -0.982163    18A     -0.940498
      19A     -0.867798    20A     -0.803507    21A     -0.793556
      22A     -0.764887    23A     -0.699459    24A     -0.682833
      25A     -0.674812    26A     -0.653177    27A     -0.631213
      28A     -0.617780    29A     -0.596629    30A     -0.589855
      31A     -0.569163    32A     -0.552599    33A     -0.547421
      34A     -0.531069    35A     -0.521141    36A     -0.504899
      37A     -0.487633    38A     -0.480534    39A     -0.474786
      40A     -0.465695    41A     -0.464611    42A     -0.454663
      43A     -0.442133    44A     -0.431171

  @DF-RHF Final Energy:  -501.02099224446033

   => Energetics <=

    Nuclear Repulsion Energy =            615.3646701752377339
    One-Electron Energy =               -1901.5827497028442394
    Two-Electron Energy =                 785.1970872831448105
    DFT Exchange-Correlation Energy =       0.0000000000000000
    Empirical Dispersion Energy =           0.0000000000000000
    PCM Polarization Energy =               0.0000000000000000
    EFP Energy =                            0.0000000000000000
    Total Energy =                       -501.0209922444616950

  Mulliken Charges: (a.u.)
   Center  Symbol    Alpha    Beta     Spin     Total
       1     O     4.25777  4.25777  0.00000 -0.51555
       2     C     2.61400  2.61400  0.00000  0.77199
       3     C     3.21656  3.21656  0.00000 -0.43313
       4     O     4.30917  4.30917  0.00000 -0.61833
       5     C     3.15412  3.15412  0.00000 -0.30823
       6     H     0.40676  0.40676  0.00000  0.18648
       7     H     0.39910  0.39910  0.00000  0.20180
       8     C     3.15633  3.15633  0.00000 -0.31266
       9     H     0.41428  0.41428  0.00000  0.17143
      10     H     0.40717  0.40717  0.00000  0.18566
      11     C     3.15474  3.15474  0.00000 -0.30947
      12     H     0.41797  0.41797  0.00000  0.16405
      13     H     0.42359  0.42359  0.00000  0.15282
      14     C     3.15022  3.15022  0.00000 -0.30044
      15     H     0.42299  0.42299  0.00000  0.15403
      16     H     0.42562  0.42562  0.00000  0.14875
      17     C     3.15144  3.15144  0.00000 -0.30288
      18     H     0.42274  0.42274  0.00000  0.15451
      19     H     0.42366  0.42366  0.00000  0.15268
      20     C     3.23940  3.23940  0.00000 -0.47879
      21     H     0.42289  0.42289  0.00000  0.15422
      22     H     0.42412  0.42412  0.00000  0.15177
      23     H     0.41913  0.41913  0.00000  0.16174
      24     H     0.42120  0.42120  0.00000  0.15760
      25     H     0.42162  0.42162  0.00000  0.15676
      26     C     3.09411  3.09411  0.00000 -0.18823
      27     H     0.42064  0.42064  0.00000  0.15872
      28     H     0.40003  0.40003  0.00000  0.19995
      29     H     0.40863  0.40863  0.00000  0.18273

   Total alpha = 44.00000, Total beta = 44.00000, Total charge =  0.00000
