                              Psi4 1.0.54 Driver

  ==> Input File <==

--------------------------------------------------------------------------
set {
	reference rhf
	basis cc-pvtz
}

set_num_threads( 4 )
memory 2 gb

molecule MOL {
0 1

H	 -2.524943	 -0.788131	 1.916886
C	 -2.503218	 -1.450508	 1.054524
O	 -1.271631	 -1.411926	 0.414801
H	 -2.669903	 -2.463644	 1.390172
H	 -3.311832	 -1.167364	 0.383065
C	 -0.923070	 -0.162291	 -0.083753
C	 0.469301	 -0.213279	 -0.660855
H	 -1.618809	 0.139056	 -0.866765
H	 -0.957010	 0.588924	 0.702347
O	 1.401606	 -0.295166	 0.366636
H	 0.550428	 -1.072127	 -1.323598
H	 0.638839	 0.685639	 -1.253456
C	 2.714315	 -0.441627	 -0.061017
H	 2.765292	 -0.641548	 -1.128869
H	 3.305661	 0.447341	 0.150952
H	 3.143725	 -1.278506	 0.470147

	symmetry c1
}
set optking {
	frozen_dihedral = ("
		7 10 13 14
	")
}

ee,wfn = optimize('scf', return_wfn=True)
oeprop( wfn, 'DIPOLE', 'QUADRUPOLE', 'MULLIKEN_CHARGES')
f=open( 'psi4out.xyz', 'w' )
f.write( "16  " )
f.write( str(ee) + "\n" )
f.write( MOL.save_string_xyz() )
f.close()
--------------------------------------------------------------------------

    Molecular point group: c1
  Charge       = 0
  Multiplicity = 1
  Basis Set: CC-PVTZ
  Basis Set:
  @DF-RHF Final Energy:  -307.09411226779406
    Total Energy =                       -307.0941122677937756
    Molecular point group: c1
  Basis Set: CC-PVTZ
  Basis Set:
  Basis Set: CC-PVTZ
  Basis Set:
  @DF-RHF Final Energy:  -307.09440290363358
    Total Energy =                       -307.0944029036336360
  Basis Set: CC-PVTZ
  Basis Set:
  Basis Set: CC-PVTZ
  Basis Set:
  @DF-RHF Final Energy:  -307.09451067421446
    Total Energy =                       -307.0945106742144048
  Basis Set: CC-PVTZ
  Basis Set:
  Basis Set: CC-PVTZ
  Basis Set:
  @DF-RHF Final Energy:  -307.09451169432356
    Total Energy =                       -307.0945116943233870
  Basis Set: CC-PVTZ
  Basis Set:
  Charge       = 0
  Multiplicity = 1
  Basis Set: CC-PVTZ
  Basis Set:

    Orbital Energies (a.u.)
    -----------------------

    Doubly Occupied:

       1A    -20.547423     2A    -20.544339     3A    -11.267814
       4A    -11.266569     5A    -11.261338     6A    -11.261095
       7A     -1.389603     8A     -1.371601     9A     -1.031752
      10A     -0.937284    11A     -0.892152    12A     -0.823990
      13A     -0.684905    14A     -0.681056    15A     -0.658782
      16A     -0.636653    17A     -0.630083    18A     -0.597669
      19A     -0.554375    20A     -0.537716    21A     -0.509023
      22A     -0.479059    23A     -0.463854    24A     -0.421055
      25A     -0.410289

  @DF-RHF Final Energy:  -307.09451184439769

   => Energetics <=

    Nuclear Repulsion Energy =            258.6463467308958002
    One-Electron Energy =                -931.7627609042680206
    Two-Electron Energy =                 366.0219023289746474
    DFT Exchange-Correlation Energy =       0.0000000000000000
    Empirical Dispersion Energy =           0.0000000000000000
    PCM Polarization Energy =               0.0000000000000000
    EFP Energy =                            0.0000000000000000
    Total Energy =                       -307.0945118443976298
    Molecular point group: c1
  Basis Set: CC-PVTZ
  Basis Set:

  -Total Gradient:
     Atom            X                  Y                   Z
    ------   -----------------  -----------------  -----------------
       1        0.000000594362     0.000000118895     0.000000036778
       2       -0.000001948266     0.000001036612    -0.000002043111
       3        0.000006882073    -0.000000071140    -0.000010266606
       4        0.000000207401     0.000000393389     0.000000402950
       5       -0.000000388889    -0.000000016110     0.000000373328
       6       -0.000004608061     0.000009790319     0.000011112966
       7       -0.000126690573    -0.001122603494     0.000006192852
       8       -0.000005567805    -0.000003046629    -0.000002011552
       9        0.000003246753     0.000003950063    -0.000004014753
      10        0.000210355710     0.002013559472    -0.000079378489
      11        0.000006360517    -0.000003828245    -0.000004159437
      12       -0.000003298699    -0.000006201837     0.000008795617
      13       -0.000163298632    -0.002256074901     0.000344439891
      14        0.000076797203     0.001364002350    -0.000271023545
      15       -0.000003453315     0.000001390008     0.000002822086
      16        0.000004810226    -0.000002398751    -0.000001278973

  **** Optimization is complete! (in 5 steps) ****
    Final optimized geometry and variables:
    Molecular point group: c1

    Geometry (in Angstrom), charge = 0, multiplicity = 1:

    H           -2.497709546133    -0.140316349499     1.745844214307
    C           -2.475419107599    -0.802258709552     0.883169301540
    O           -1.248451719443    -0.752123169196     0.235551923136
    H           -2.630638244444    -1.816972326131     1.219587832697
    H           -3.290999134766    -0.526436959331     0.217057824097
    C           -0.914583093026     0.500838608307    -0.264694401129
    C            0.475021836344     0.463403925239    -0.849579122132
    H           -1.617036399882     0.795155354087    -1.044523920226
    H           -0.952094829407     1.251759195109     0.521411392223
    O            1.410269058284     0.383252988370     0.176539100478
    H            0.557662913319    -0.392155765397    -1.514952896325
    H            0.629778448404     1.366507795440    -1.439510765244
    C            2.740134309196     0.235116323785    -0.214355566805
    H            2.831171791337     0.030107037962    -1.276190803395
    H            3.297612483942     1.141820062320    -0.001127683780
    H            3.185955946191    -0.583434022232     0.336234601259

  Mulliken Charges: (a.u.)
   Center  Symbol    Alpha    Beta     Spin     Total
       1     H     0.47017  0.47017  0.00000  0.05967
       2     C     3.03201  3.03201  0.00000 -0.06402
       3     O     4.17033  4.17033  0.00000 -0.34067
       4     H     0.44646  0.44646  0.00000  0.10707
       5     H     0.47375  0.47375  0.00000  0.05250
       6     C     2.96339  2.96339  0.00000  0.07322
       7     C     2.95868  2.95868  0.00000  0.08265
       8     H     0.47624  0.47624  0.00000  0.04752
       9     H     0.47110  0.47110  0.00000  0.05780
      10     O     4.17490  4.17490  0.00000 -0.34981
      11     H     0.47003  0.47003  0.00000  0.05993
      12     H     0.47662  0.47662  0.00000  0.04675
      13     C     3.02718  3.02718  0.00000 -0.05436
      14     H     0.47377  0.47377  0.00000  0.05245
      15     H     0.46188  0.46188  0.00000  0.07624
      16     H     0.45348  0.45348  0.00000  0.09304

   Total alpha = 25.00000, Total beta = 25.00000, Total charge = -0.00000

*** Psi4 exiting successfully. Buy a developer a beer!
