  ==> Input File <==

--------------------------------------------------------------------------
set {
	reference rhf
	basis 6-31G*
}

set_num_threads( 4 )
memory 2 gb

molecule MOL {
0 1

H	 -3.571158	 0.540474	 0.139285
O	 -3.106200	 -0.271124	 -0.011510
C	 -1.775819	 -0.076055	 -0.001477
C	 -1.212014	 1.178967	 0.208392
C	 -0.966287	 -1.185521	 -0.210777
H	 -1.846601	 2.033688	 0.369833
C	 0.159872	 1.319497	 0.208105
H	 -1.424884	 -2.142860	 -0.370347
C	 0.404080	 -1.028923	 -0.208218
H	 0.608415	 2.281841	 0.368736
C	 0.984182	 0.218375	 0.000000
H	 1.031869	 -1.888371	 -0.370364
C	 2.452467	 0.370529	 0.000000
O	 3.228994	 -0.533774	 0.000000
H	 2.809473	 1.405765	 0.000000

	symmetry c1
}
set optking {
	frozen_dihedral = ("
		7 11 13 14
	")
}

ee = optimize('scf')
oeprop('DIPOLE', 'QUADRUPOLE', 'MULLIKEN_CHARGES')
f=open( 'psi4out.xyz', 'w' )
f.write( "15  " )
f.write( str(ee) + "\n" )
f.write( MOL.save_string_xyz() )
f.close()
--------------------------------------------------------------------------

    Molecular point group: c1
  Charge       = 0
  Multiplicity = 1
  Basis Set: 6-31G*
  Basis Set:
  @DF-RHF Final Energy:  -418.28921816642770
    Total Energy =                       -418.2892181664274176
    Molecular point group: c1
  Basis Set: 6-31G*
  Basis Set:
  Basis Set: 6-31G*
  Basis Set:
  @DF-RHF Final Energy:  -418.28905559072439
    Total Energy =                       -418.2890555907247290
  Basis Set: 6-31G*
  Basis Set:
  Basis Set: 6-31G*
  Basis Set:
  @DF-RHF Final Energy:  -418.28929212123211
    Total Energy =                       -418.2892921212320516
  Basis Set: 6-31G*
  Basis Set:
  Basis Set: 6-31G*
  Basis Set:
  @DF-RHF Final Energy:  -418.28949131512735
    Total Energy =                       -418.2894913151271794
  Basis Set: 6-31G*
  Basis Set:
  Basis Set: 6-31G*
  Basis Set:
  @DF-RHF Final Energy:  -418.28949576915539
    Total Energy =                       -418.2894957691554509
  Basis Set: 6-31G*
  Basis Set:
  Charge       = 0
  Multiplicity = 1
  Basis Set: 6-31G*
  Basis Set:

    Orbital Energies (a.u.)
    -----------------------

    Doubly Occupied:

       1A    -20.611236     2A    -20.555937     3A    -11.327949
       4A    -11.323906     5A    -11.263409     6A    -11.253670
       7A    -11.245197     8A    -11.238891     9A    -11.237680
      10A     -1.432333    11A     -1.397126    12A     -1.170577
      13A     -1.042959    14A     -1.036972    15A     -0.893717
      16A     -0.858516    17A     -0.802833    18A     -0.756728
      19A     -0.695536    20A     -0.685736    21A     -0.639402
      22A     -0.624527    23A     -0.609046    24A     -0.608330
      25A     -0.582487    26A     -0.557436    27A     -0.548516
      28A     -0.506629    29A     -0.483873    30A     -0.418407
      31A     -0.357306    32A     -0.326863

  @DF-RHF Final Energy:  -418.28949673256358

   => Energetics <=

    Nuclear Repulsion Energy =            401.3609689667327416
    One-Electron Energy =               -1365.1134762119727384
    Two-Electron Energy =                 545.4630105126759645
    DFT Exchange-Correlation Energy =       0.0000000000000000
    Empirical Dispersion Energy =           0.0000000000000000
    PCM Polarization Energy =               0.0000000000000000
    EFP Energy =                            0.0000000000000000
    Total Energy =                       -418.2894967325639755
    Molecular point group: c1
  Basis Set: 6-31G*
  Basis Set:

  -Total Gradient:
     Atom            X                  Y                   Z
    ------   -----------------  -----------------  -----------------
       1       -0.000001186856     0.000002533743    -0.000002379920
       2        0.000006519993     0.000002398893    -0.000003624745
       3        0.000007767300     0.000023003536     0.000029536676
       4       -0.000033341250    -0.000008395154    -0.000039504805
       5        0.000027770797    -0.000002239942     0.000026402094
       6       -0.000001889462    -0.000001182104    -0.000005759822
       7        0.000042681478    -0.000372839762     0.001896271334
       8        0.000002440604    -0.000001125776     0.000001881301
       9       -0.000049906955     0.000007879498    -0.000087237262
      10       -0.000015678866    -0.000006732062    -0.000009833193
      11       -0.000009869671     0.000514872209    -0.001657070422
      12        0.000010665445    -0.000003761513     0.000025242069
      13        0.000053956013    -0.000112399331    -0.002428474230
      14       -0.000031181300    -0.000038067201     0.002274508141
      15       -0.000008747266    -0.000003945035    -0.000019957215

  **** Optimization is complete! (in 6 steps) ****
    Final optimized geometry and variables:
    Molecular point group: c1

    Geometry (in Angstrom), charge = 0, multiplicity = 1:

    H           -3.573888571310     0.547508229425     0.157350677112
    O           -3.106597072306    -0.262102123817     0.003483292122
    C           -1.777044080465    -0.061340991404     0.005451001906
    C           -1.214541402461     1.189450185244     0.209454692003
    C           -0.965743357709    -1.175272266582    -0.208141520669
    H           -1.844174706106     2.046150407274     0.378061442657
    C            0.163420188457     1.323993556871     0.194153257000
    H           -1.429325847137    -2.131549871008    -0.361035027474
    C            0.400254084690    -1.026989464182    -0.213495777090
    H            0.598046520780     2.296307868735     0.351040573367
    C            0.983140440574     0.227754714705    -0.020167970826
    H            1.039193335675    -1.876313484119    -0.367109351405
    C            2.451368943678     0.379237532707     0.006589975183
    O            3.227264311991    -0.525367594802     0.002835132081
    H            2.808621304139     1.413445811950     0.052852797552

  Mulliken Charges: (a.u.)
   Center  Symbol    Alpha    Beta     Spin     Total
       1     H     0.26884  0.26884  0.00000  0.46232
       2     O     4.37255  4.37255  0.00000 -0.74510
       3     C     2.78506  2.78506  0.00000  0.42988
       4     C     3.14918  3.14918  0.00000 -0.29835
       5     C     3.12658  3.12658  0.00000 -0.25315
       6     H     0.39895  0.39895  0.00000  0.20211
       7     C     3.09192  3.09192  0.00000 -0.18385
       8     H     0.38548  0.38548  0.00000  0.22904
       9     C     3.07894  3.07894  0.00000 -0.15787
      10     H     0.38997  0.38997  0.00000  0.22006
      11     C     3.06705  3.06705  0.00000 -0.13409
      12     H     0.37505  0.37505  0.00000  0.24989
      13     C     2.83154  2.83154  0.00000  0.33692
      14     O     4.25320  4.25320  0.00000 -0.50640
      15     H     0.42570  0.42570  0.00000  0.14859

   Total alpha = 32.00000, Total beta = 32.00000, Total charge =  0.00000
