                              Psi4 1.0.54 Driver

  ==> Input File <==

--------------------------------------------------------------------------
set {
	reference rhf
	basis cc-pvtz
}

set_num_threads( 4 )
memory 2 gb

molecule MOL {
0 1

H	 -2.644180	 -0.653737	 1.272255
C	 -2.092774	 -0.380414	 0.391915
O	 -0.808934	 -0.154049	 0.752536
F	 -2.163230	 -1.351640	 -0.507133
F	 -2.627232	 0.691260	 -0.169301
C	 -0.352055	 -0.695269	 1.934756
C	 0.458493	 0.383942	 2.648612
Cl	 0.660283	 -2.121102	 1.638596
H	 -1.152096	 -0.999182	 2.586844
F	 0.911287	 -0.064194	 3.791929
F	 -0.321184	 1.409545	 2.896720
F	 1.466877	 0.800152	 1.932942

	symmetry c1
}
set optking {
	frozen_dihedral = ("
		6 3 2 4
	")
}

ee,wfn = optimize('scf', return_wfn=True)
oeprop( wfn, 'DIPOLE', 'QUADRUPOLE', 'MULLIKEN_CHARGES')
f=open( 'psi4out.xyz', 'w' )
f.write( "12  " )
f.write( str(ee) + "\n" )
f.write( MOL.save_string_xyz() )
f.close()
--------------------------------------------------------------------------

    Molecular point group: c1
  Charge       = 0
  Multiplicity = 1
  Basis Set: CC-PVTZ
  Basis Set:
  @DF-RHF Final Energy: -1146.61382663296445
    Total Energy =                      -1146.6138266329644466
    Molecular point group: c1
  Basis Set: CC-PVTZ
  Basis Set:
  Basis Set: CC-PVTZ
  Basis Set:
  @DF-RHF Final Energy: -1146.61536582777535
    Total Energy =                      -1146.6153658277758041
  Basis Set: CC-PVTZ
  Basis Set:
  Basis Set: CC-PVTZ
  Basis Set:
  @DF-RHF Final Energy: -1146.61603513017144
    Total Energy =                      -1146.6160351301716673
  Basis Set: CC-PVTZ
  Basis Set:
  Basis Set: CC-PVTZ
  Basis Set:
  @DF-RHF Final Energy: -1146.61629787136735
    Total Energy =                      -1146.6162978713680332
  Basis Set: CC-PVTZ
  Basis Set:
  @DF-RHF Final Energy: -1146.61655496483263
    Total Energy =                      -1146.6165549648324031
  Basis Set: CC-PVTZ
  Basis Set:
  @DF-RHF Final Energy: -1146.61654647755313
    Total Energy =                      -1146.6165464775522196
  Basis Set: CC-PVTZ
  Basis Set:
  Basis Set: CC-PVTZ
  Basis Set:
  @DF-RHF Final Energy: -1146.61662074290643
    Total Energy =                      -1146.6166207429057522
  Basis Set: CC-PVTZ
  Basis Set:
  Basis Set: CC-PVTZ
  Basis Set:
  @DF-RHF Final Energy: -1146.61662573168519
    Total Energy =                      -1146.6166257316854171
  Basis Set: CC-PVTZ
  Basis Set:
  Charge       = 0
  Multiplicity = 1
  Basis Set: CC-PVTZ
  Basis Set:

    Orbital Energies (a.u.)
    -----------------------

    Doubly Occupied:

       1A   -104.862368     2A    -26.359475     3A    -26.358169
       4A    -26.357110     5A    -26.340194     6A    -26.336670
       7A    -20.643311     8A    -11.525653     9A    -11.485570
      10A    -11.409580    11A    -10.587929    12A     -8.054697
      13A     -8.052736    14A     -8.052668    15A     -1.772503
      16A     -1.722170    17A     -1.667388    18A     -1.665784
      19A     -1.642350    20A     -1.492490    21A     -1.180179
      22A     -1.059221    23A     -0.988356    24A     -0.936173
      25A     -0.866714    26A     -0.864330    27A     -0.855982
      28A     -0.828170    29A     -0.814927    30A     -0.797536
      31A     -0.738492    32A     -0.734942    33A     -0.708265
      34A     -0.698007    35A     -0.689309    36A     -0.684214
      37A     -0.668319    38A     -0.665401    39A     -0.656121
      40A     -0.648869    41A     -0.612688    42A     -0.565037
      43A     -0.525773    44A     -0.484687    45A     -0.476798

  @DF-RHF Final Energy: -1146.61662692182108

   => Energetics <=

    Nuclear Repulsion Energy =            727.9677741344360129
    One-Electron Energy =               -3038.8941474020002715
    Two-Electron Energy =                1164.3097463457429512
    DFT Exchange-Correlation Energy =       0.0000000000000000
    Empirical Dispersion Energy =           0.0000000000000000
    PCM Polarization Energy =               0.0000000000000000
    EFP Energy =                            0.0000000000000000
    Total Energy =                      -1146.6166269218215348
    Molecular point group: c1
  Basis Set: CC-PVTZ
  Basis Set:

  -Total Gradient:
     Atom            X                  Y                   Z
    ------   -----------------  -----------------  -----------------
       1        0.000002869089     0.000008860493    -0.000012743521
       2       -0.000050902637    -0.000194064542     0.000164602820
       3        0.000217625583    -0.000057398962    -0.000135406906
       4       -0.000032051962     0.000157874620    -0.000078354029
       5        0.000014190039    -0.000013830836     0.000015800610
       6       -0.000154062118     0.000201807161     0.000132644861
       7        0.000080741404     0.000006033875     0.000053043109
       8        0.000051070421    -0.000077340646    -0.000006505458
       9        0.000000693701     0.000000284870    -0.000016614143
      10       -0.000038680373    -0.000063286335    -0.000047822910
      11       -0.000048979716     0.000034634691    -0.000041272688
      12       -0.000042513416    -0.000003574435    -0.000027371747

  **** Optimization is complete! (in 9 steps) ****
    Final optimized geometry and variables:
    Molecular point group: c1

    Geometry (in Angstrom), charge = 0, multiplicity = 1:

    H           -2.316611619797    -0.690745104498    -0.424128234008
    C           -1.744163672527    -0.126414952677    -1.145835114755
    O           -0.567447525823     0.327624041139    -0.639073629417
    F           -1.521382501720    -0.879752684937    -2.203581526853
    F           -2.434465847788     0.919525734323    -1.539617105828
    C           -0.032972467795    -0.303653806713     0.447751526422
    C            0.936918525182     0.676938797057     1.104397931782
    CL           0.811565100238    -1.810819018639     0.019641607489
    H           -0.781693290549    -0.566987777849     1.178753242300
    F            1.462560554286     0.142136668272     2.177367207913
    F            0.275599249561     1.748838319366     1.470252531711
    F            1.896710776833     1.037242403902     0.300795169336

  Mulliken Charges: (a.u.)
   Center  Symbol    Alpha    Beta     Spin     Total
       1     H     0.48633  0.48633  0.00000  0.02735
       2     C     2.73486  2.73486  0.00000  0.53028
       3     O     4.13788  4.13788  0.00000 -0.27576
       4     F     4.60743  4.60743  0.00000 -0.21486
       5     F     4.60283  4.60283  0.00000 -0.20567
       6     C     2.95107  2.95107  0.00000  0.09786
       7     C     2.66652  2.66652  0.00000  0.66696
       8    CL     8.57382  8.57382  0.00000 -0.14764
       9     H     0.43553  0.43553  0.00000  0.12895
      10     F     4.60226  4.60226  0.00000 -0.20452
      11     F     4.60372  4.60372  0.00000 -0.20744
      12     F     4.59775  4.59775  0.00000 -0.19551

   Total alpha = 45.00000, Total beta = 45.00000, Total charge = -0.00000

*** Psi4 exiting successfully. Buy a developer a beer!
