  ==> Input File <==

--------------------------------------------------------------------------
set {
	reference rhf
	basis cc-pvtz
}

set_num_threads( 4 )
memory 2 gb

molecule MOL {
0 1

H	 2.076296	 0.284917	 0.949684
O	 1.306865	 -0.262256	 0.994905
C	 0.489979	 0.078084	 0.002623
C	 -0.763662	 -0.754014	 0.000816
O	 0.757078	 0.932586	 -0.769643
C	 -2.038001	 0.074705	 -0.000833
H	 -0.712945	 -1.405886	 -0.864342
H	 -0.715137	 -1.405770	 0.866182
H	 -2.087267	 0.710831	 -0.874232
H	 -2.903419	 -0.576199	 -0.001922
H	 -2.089467	 0.710909	 0.872389

	symmetry c1
}
set optking {
	frozen_dihedral = ("
		2 3 4 7
	")
}

ee = optimize('scf')
oeprop('DIPOLE', 'QUADRUPOLE', 'MULLIKEN_CHARGES')
f=open( 'psi4out.xyz', 'w' )
f.write( "11  " )
f.write( str(ee) + "\n" )
f.write( MOL.save_string_xyz() )
f.close()
--------------------------------------------------------------------------

    Molecular point group: c1
  Charge       = 0
  Multiplicity = 1
  Basis Set: CC-PVTZ
  Basis Set:
  @DF-RHF Final Energy:  -266.95091845687898
    Total Energy =                       -266.9509184568789806
    Molecular point group: c1
  Basis Set: CC-PVTZ
  Basis Set:
  Basis Set: CC-PVTZ
  Basis Set:
  @DF-RHF Final Energy:  -266.95152847072256
    Total Energy =                       -266.9515284707224509
  Basis Set: CC-PVTZ
  Basis Set:
  Basis Set: CC-PVTZ
  Basis Set:
  @DF-RHF Final Energy:  -266.95137435216907
    Total Energy =                       -266.9513743521690685
  Basis Set: CC-PVTZ
  Basis Set:
  Basis Set: CC-PVTZ
  Basis Set:
  @DF-RHF Final Energy:  -266.95157192941844
    Total Energy =                       -266.9515719294186056
  Basis Set: CC-PVTZ
  Basis Set:
  Basis Set: CC-PVTZ
  Basis Set:
  @DF-RHF Final Energy:  -266.95157550330509
    Total Energy =                       -266.9515755033049800
  Basis Set: CC-PVTZ
  Basis Set:
  Charge       = 0
  Multiplicity = 1
  Basis Set: CC-PVTZ
  Basis Set:

    Orbital Energies (a.u.)
    -----------------------

    Doubly Occupied:

       1A    -20.607392     2A    -20.539126     3A    -11.374489
       4A    -11.241959     5A    -11.223820     6A     -1.479369
       7A     -1.369589     8A     -1.066581     9A     -0.916732
      10A     -0.810789    11A     -0.707120    12A     -0.692026
      13A     -0.654141    14A     -0.609593    15A     -0.596624
      16A     -0.537209    17A     -0.526889    18A     -0.510773
      19A     -0.479881    20A     -0.446720

  @DF-RHF Final Energy:  -266.95157569383286

   => Energetics <=

    Nuclear Repulsion Energy =            180.0951518081747054
    One-Electron Energy =                -721.3118084360978628
    Two-Electron Energy =                 274.2650809340902356
    DFT Exchange-Correlation Energy =       0.0000000000000000
    Empirical Dispersion Energy =           0.0000000000000000
    PCM Polarization Energy =               0.0000000000000000
    EFP Energy =                            0.0000000000000000
    Total Energy =                       -266.9515756938329218
    Molecular point group: c1
  Basis Set: CC-PVTZ
  Basis Set:

  -Total Gradient:
     Atom            X                  Y                   Z
    ------   -----------------  -----------------  -----------------
       1       -0.000015016957    -0.000002359405    -0.000011525940
       2       -0.000326292234     0.000456913245     0.000510474802
       3        0.000348178900    -0.000481690455    -0.000792949089
       4        0.000392131271    -0.000584973375     0.000747219749
       5       -0.000004888881    -0.000001004806     0.000006532205
       6        0.000021034874     0.000004867754    -0.000013904687
       7       -0.000427614461     0.000634099610    -0.000446751193
       8        0.000000233636    -0.000021427746     0.000009142073
       9       -0.000006973742     0.000010469196    -0.000007840070
      10        0.000009941595    -0.000006589497     0.000000396392
      11        0.000009266001    -0.000008304522    -0.000000794241

  **** Optimization is complete! (in 6 steps) ****
    Final optimized geometry and variables:
    Molecular point group: c1

    Geometry (in Angstrom), charge = 0, multiplicity = 1:

    H            2.126414521855     0.273918417605     0.826931860375
    O            1.367364513860    -0.285029540726     0.905014518139
    C            0.502969616481     0.048542479254    -0.046199360864
    C           -0.743469989675    -0.799019925574    -0.034951170689
    O            0.717407688042     0.922934718678    -0.813741591030
    C           -2.010354798821     0.052232478777    -0.079650243859
    H           -0.694709657571    -1.422301759391    -0.921229584062
    H           -0.732147414957    -1.447482667443     0.828605671233
    H           -2.006034516267     0.698529126163    -0.945848609823
    H           -2.884133034171    -0.585043660352    -0.127298967503
    H           -2.095690699984     0.672245660707     0.804899326462

  Mulliken Charges: (a.u.)
   Center  Symbol    Alpha    Beta     Spin     Total
       1     H     0.38015  0.38015  0.00000  0.23969
       2     O     4.15842  4.15842  0.00000 -0.31684
       3     C     2.80351  2.80351  0.00000  0.39298
       4     C     3.09174  3.09174  0.00000 -0.18348
       5     O     4.19770  4.19770  0.00000 -0.39541
       6     C     3.14407  3.14407  0.00000 -0.28815
       7     H     0.44421  0.44421  0.00000  0.11158
       8     H     0.43758  0.43758  0.00000  0.12483
       9     H     0.44136  0.44136  0.00000  0.11727
      10     H     0.44875  0.44875  0.00000  0.10250
      11     H     0.45249  0.45249  0.00000  0.09502

   Total alpha = 20.00000, Total beta = 20.00000, Total charge =  0.00000
