  ==> Input File <==

--------------------------------------------------------------------------
set {
	reference rhf
	basis 6-31G*
}

set_num_threads( 1 )
memory 2 gb

molecule MOL {
0 1

H	 3.276176	 0.174363	 -0.109463
N	 2.434251	 -0.367735	 -0.081097
C	 1.267428	 0.496480	 0.024474
H	 2.501951	 -0.965776	 0.720575
C	 -0.016086	 -0.325158	 -0.029487
H	 1.288818	 1.183521	 -0.816092
H	 1.267576	 1.109062	 0.929528
C	 -1.282277	 0.529072	 0.046735
H	 -0.012495	 -0.908639	 -0.945788
H	 -0.015903	 -1.041248	 0.791956
C	 -1.009236	 2.017217	 -0.169084
H	 -1.754572	 0.387540	 1.016731
H	 -1.999653	 0.183879	 -0.694999
H	 -0.321763	 2.401363	 0.578936
H	 -1.924151	 2.598316	 -0.107643
H	 -0.567990	 2.196998	 -1.145404

	symmetry c1
}
set optking {
	frozen_dihedral = ("
		6 3 5 9,
		1 2 3 6
	")
}

ee = energy('scf')
oeprop('DIPOLE', 'QUADRUPOLE', 'MULLIKEN_CHARGES')
f=open( 'psi4out.xyz', 'w' )
f.write( "16  " )
f.write( str(ee) + "\n" )
f.write( MOL.save_string_xyz() )
f.close()
--------------------------------------------------------------------------

    Molecular point group: c1

    Geometry (in Angstrom), charge = 0, multiplicity = 1:

       Center              X                  Y                   Z               Mass
    ------------   -----------------  -----------------  -----------------  -----------------
           H          2.956613671483    -0.302295508992    -0.076025672845     1.007825032070
           N          2.114688671483    -0.844393508992    -0.047659672845    14.003074004780
           C          0.947865671483     0.019821491008     0.057911327155    12.000000000000
           H          2.182388671483    -1.442434508992     0.754012327155     1.007825032070
           C         -0.335648328517    -0.801816508992     0.003950327155    12.000000000000
           H          0.969255671483     0.706862491008    -0.782654672845     1.007825032070
           H          0.948013671483     0.632403491008     0.962965327155     1.007825032070
           C         -1.601839328517     0.052413491008     0.080172327155    12.000000000000
           H         -0.332057328517    -1.385297508992    -0.912350672845     1.007825032070
           H         -0.335465328517    -1.517906508992     0.825393327155     1.007825032070
           C         -1.328798328517     1.540558491008    -0.135646672845    12.000000000000
           H         -2.074134328517    -0.089118508992     1.050168327155     1.007825032070
           H         -2.319215328517    -0.292779508992    -0.661561672845     1.007825032070
           H         -0.641325328517     1.924704491008     0.612373327155     1.007825032070
           H         -2.243713328517     2.121657491008    -0.074205672845     1.007825032070
           H         -0.887552328517     1.720339491008    -1.111966672845     1.007825032070

  Charge       = 0
  Multiplicity = 1
  Basis Set: 6-31G*
  Basis Set:

    Orbital Energies (a.u.)
    -----------------------

    Doubly Occupied:

       1A    -15.531445     2A    -11.238304     3A    -11.213670
       4A    -11.208171     5A    -11.207333     6A     -1.176053
       7A     -1.062244     8A     -0.949008     9A     -0.868832
      10A     -0.769283    11A     -0.664164    12A     -0.640301
      13A     -0.615845    14A     -0.579558    15A     -0.540062
      16A     -0.533901    17A     -0.519193    18A     -0.468577
      19A     -0.461257    20A     -0.448974    21A     -0.378979

  @DF-RHF Final Energy:  -212.30438915607903

   => Energetics <=

    Nuclear Repulsion Energy =            191.3811734805649962
    One-Electron Energy =                -665.2206992506881988
    Two-Electron Energy =                 261.5351366140443474
    DFT Exchange-Correlation Energy =       0.0000000000000000
    Empirical Dispersion Energy =           0.0000000000000000
    PCM Polarization Energy =               0.0000000000000000
    EFP Energy =                            0.0000000000000000
    Total Energy =                       -212.3043891560788552

  Mulliken Charges: (a.u.)
   Center  Symbol    Alpha    Beta     Spin     Total
       1     H     0.33285  0.33285  0.00000  0.33429
       2     N     3.92219  3.92219  0.00000 -0.84437
       3     C     3.06500  3.06500  0.00000 -0.13000
       4     H     0.33580  0.33580  0.00000  0.32839
       5     C     3.15447  3.15447  0.00000 -0.30894
       6     H     0.41806  0.41806  0.00000  0.16388
       7     H     0.43326  0.43326  0.00000  0.13348
       8     C     3.15640  3.15640  0.00000 -0.31279
       9     H     0.41137  0.41137  0.00000  0.17727
      10     H     0.42499  0.42499  0.00000  0.15003
      11     C     3.24860  3.24860  0.00000 -0.49720
      12     H     0.42130  0.42130  0.00000  0.15739
      13     H     0.41849  0.41849  0.00000  0.16302
      14     H     0.41998  0.41998  0.00000  0.16005
      15     H     0.41751  0.41751  0.00000  0.16497
      16     H     0.41973  0.41973  0.00000  0.16054

   Total alpha = 21.00000, Total beta = 21.00000, Total charge = -0.00000
