  ==> Input File <==

--------------------------------------------------------------------------
set {
	reference rhf
	basis 6-31G*
}

set_num_threads( 4 )
memory 2 gb

molecule MOL {
0 1

O	 -0.682937	 1.318834	 -0.186099
C	 -0.860635	 0.152188	 -0.042321
C	 -2.173363	 -0.477127	 0.338347
O	 0.083258	 -0.765189	 -0.202595
H	 -2.477673	 -1.180929	 -0.427595
H	 -2.923125	 0.290956	 0.455536
H	 -2.058825	 -1.029004	 1.264191
C	 1.391937	 -0.334737	 -0.569838
C	 1.986633	 -1.220382	 -1.649012
H	 2.018086	 -0.313090	 0.309144
H	 1.254134	 0.674736	 -0.929664
H	 2.948214	 -0.824138	 -1.960595
H	 2.136905	 -2.227878	 -1.281944
H	 1.335436	 -1.255133	 -2.515701

	symmetry c1
}
set optking {
	frozen_dihedral = ("
		10 8 4 2
	")
}

ee = optimize('scf')
oeprop('DIPOLE', 'QUADRUPOLE', 'MULLIKEN_CHARGES')
f=open( 'psi4out.xyz', 'w' )
f.write( "14  " )
f.write( str(ee) + "\n" )
f.write( MOL.save_string_xyz() )
f.close()
--------------------------------------------------------------------------

    Molecular point group: c1
  Charge       = 0
  Multiplicity = 1
  Basis Set: 6-31G*
  Basis Set:
  @DF-RHF Final Energy:  -305.87265534931396
    Total Energy =                       -305.8726553493143001
    Molecular point group: c1
  Basis Set: 6-31G*
  Basis Set:
  Basis Set: 6-31G*
  Basis Set:
  @DF-RHF Final Energy:  -305.87391259430001
    Total Energy =                       -305.8739125943001795
  Basis Set: 6-31G*
  Basis Set:
  Basis Set: 6-31G*
  Basis Set:
  @DF-RHF Final Energy:  -305.87442944679890
    Total Energy =                       -305.8744294467988993
  Basis Set: 6-31G*
  Basis Set:
  Basis Set: 6-31G*
  Basis Set:
  @DF-RHF Final Energy:  -305.87350592791438
    Total Energy =                       -305.8735059279146071
  Basis Set: 6-31G*
  Basis Set:
  Basis Set: 6-31G*
  Basis Set:
  @DF-RHF Final Energy:  -305.87454050382007
    Total Energy =                       -305.8745405038200147
  Basis Set: 6-31G*
  Basis Set:
  Charge       = 0
  Multiplicity = 1
  Basis Set: 6-31G*
  Basis Set:

    Orbital Energies (a.u.)
    -----------------------

    Doubly Occupied:

       1A    -20.601553     2A    -20.543955     3A    -11.375975
       4A    -11.284341     5A    -11.232937     6A    -11.222644
       7A     -1.466400     8A     -1.363130     9A     -1.057761
      10A     -0.999846    11A     -0.874414    12A     -0.777230
      13A     -0.695695    14A     -0.683229    15A     -0.662285
      16A     -0.611694    17A     -0.581165    18A     -0.562737
      19A     -0.560209    20A     -0.535402    21A     -0.514106
      22A     -0.498820    23A     -0.450237    24A     -0.438625

  @DF-RHF Final Energy:  -305.87454558528339

   => Energetics <=

    Nuclear Repulsion Energy =            245.6862826264113835
    One-Electron Energy =                -903.9328771462165832
    Two-Electron Energy =                 352.3720489345216720
    DFT Exchange-Correlation Energy =       0.0000000000000000
    Empirical Dispersion Energy =           0.0000000000000000
    PCM Polarization Energy =               0.0000000000000000
    EFP Energy =                            0.0000000000000000
    Total Energy =                       -305.8745455852834993
    Molecular point group: c1
  Basis Set: 6-31G*
  Basis Set:

  -Total Gradient:
     Atom            X                  Y                   Z
    ------   -----------------  -----------------  -----------------
       1       -0.000093524497     0.000050969417     0.000028475865
       2       -0.000157515599    -0.000059201552    -0.001064839726
       3        0.000029872351    -0.000003125745    -0.000001349777
       4        0.000580240919    -0.000171469003     0.001438429542
       5        0.000008099138     0.000012032947    -0.000004969984
       6        0.000003840598     0.000010402678    -0.000006926052
       7        0.000012244999     0.000002248533     0.000001043952
       8       -0.000565588271     0.001302828638    -0.000223516952
       9       -0.000060986718    -0.000020892856     0.000044936096
      10        0.000269223313    -0.001148080111    -0.000180888171
      11       -0.000049798783     0.000001231652    -0.000009507486
      12        0.000019244800     0.000022787098    -0.000000070115
      13        0.000007861190     0.000005721271    -0.000015412847
      14       -0.000003213440    -0.000005452972    -0.000005404346

  **** Optimization is complete! (in 6 steps) ****
    Final optimized geometry and variables:
    Molecular point group: c1

    Geometry (in Angstrom), charge = 0, multiplicity = 1:

    O           -0.680159133464     1.551814207187     0.258324161409
    C           -0.822366302626     0.376145835768     0.355781838830
    C           -2.115681520609    -0.304234085192     0.715396562444
    O            0.143993104764    -0.512067430330     0.163057325926
    H           -2.401641831299    -0.988978450015    -0.074510679097
    H           -2.886831148998     0.437321006122     0.861151152839
    H           -1.982806843270    -0.884896854274     1.620959535998
    C            1.442783189848    -0.063301271734    -0.215806822411
    C            1.993902866281    -1.028531362547    -1.246321046051
    H            2.058770324456    -0.058889584220     0.674755111654
    H            1.378164881864     0.941722643831    -0.599151837257
    H            3.001997493932    -0.737178714795    -1.524064036326
    H            2.025408268088    -2.037887312952    -0.852268665678
    H            1.379082802581    -1.028725374850    -2.139532245361

  Mulliken Charges: (a.u.)
   Center  Symbol    Alpha    Beta     Spin     Total
       1     O     4.28265  4.28265  0.00000 -0.56531
       2     C     2.62030  2.62030  0.00000  0.75939
       3     C     3.28217  3.28217  0.00000 -0.56434
       4     O     4.30753  4.30753  0.00000 -0.61506
       5     H     0.40086  0.40086  0.00000  0.19828
       6     H     0.39710  0.39710  0.00000  0.20580
       7     H     0.40035  0.40035  0.00000  0.19930
       8     C     3.00919  3.00919  0.00000 -0.01839
       9     C     3.24709  3.24709  0.00000 -0.49418
      10     H     0.41473  0.41473  0.00000  0.17053
      11     H     0.39601  0.39601  0.00000  0.20797
      12     H     0.41699  0.41699  0.00000  0.16602
      13     H     0.41172  0.41172  0.00000  0.17656
      14     H     0.41329  0.41329  0.00000  0.17342

   Total alpha = 24.00000, Total beta = 24.00000, Total charge = -0.00000
