  ==> Input File <==

--------------------------------------------------------------------------
set {
	reference rhf
	basis 6-31G*
}

set_num_threads( 4 )
memory 2 gb

molecule MOL {
0 1

H	 -1.583520	 -1.512414	 1.485816
N	 -0.792744	 -0.901137	 1.418790
C	 -0.563778	 -0.502042	 0.037919
H	 -0.003990	 -1.407964	 1.773402
C	 0.575259	 0.508231	 -0.048326
H	 -1.476962	 -0.043297	 -0.329291
H	 -0.349364	 -1.345279	 -0.623688
C	 1.954651	 -0.143624	 0.035137
H	 0.475158	 1.060484	 -0.977307
H	 0.469181	 1.234488	 0.755973
H	 2.103292	 -0.853109	 -0.774172
H	 2.742821	 0.599562	 -0.030094
H	 2.083613	 -0.679371	 0.971560

	symmetry c1
}
set optking {
	frozen_dihedral = ("
		6 3 5 9
	")
}

ee = optimize('scf')
oeprop('DIPOLE', 'QUADRUPOLE', 'MULLIKEN_CHARGES')
f=open( 'psi4out.xyz', 'w' )
f.write( "13  " )
f.write( str(ee) + "\n" )
f.write( MOL.save_string_xyz() )
f.close()
--------------------------------------------------------------------------

    Molecular point group: c1
  Charge       = 0
  Multiplicity = 1
  Basis Set: 6-31G*
  Basis Set:
  @DF-RHF Final Energy:  -173.28031676384728
    Total Energy =                       -173.2803167638472246
    Molecular point group: c1
  Basis Set: 6-31G*
  Basis Set:
  Basis Set: 6-31G*
  Basis Set:
  @DF-RHF Final Energy:  -173.28054589524194
    Total Energy =                       -173.2805458952418860
  Basis Set: 6-31G*
  Basis Set:
  Basis Set: 6-31G*
  Basis Set:
  @DF-RHF Final Energy:  -173.28059681449537
    Total Energy =                       -173.2805968144953113
  Basis Set: 6-31G*
  Basis Set:
  Basis Set: 6-31G*
  Basis Set:
  @DF-RHF Final Energy:  -173.28059793376676
    Total Energy =                       -173.2805979337667281
  Basis Set: 6-31G*
  Basis Set:
  Charge       = 0
  Multiplicity = 1
  Basis Set: 6-31G*
  Basis Set:

    Orbital Energies (a.u.)
    -----------------------

    Doubly Occupied:

       1A    -15.533008     2A    -11.240214     3A    -11.211471
       4A    -11.210038     5A     -1.176963     6A     -1.032198
       7A     -0.906478     8A     -0.791474     9A     -0.667285
      10A     -0.637472    11A     -0.572747    12A     -0.565988
      13A     -0.559304    14A     -0.482628    15A     -0.477560
      16A     -0.468563    17A     -0.381058

  @DF-RHF Final Energy:  -173.28059861381604

   => Energetics <=

    Nuclear Repulsion Energy =            133.2868807353714260
    One-Electron Energy =                -497.3060629218839495
    Two-Electron Energy =                 190.7385835726965979
    DFT Exchange-Correlation Energy =       0.0000000000000000
    Empirical Dispersion Energy =           0.0000000000000000
    PCM Polarization Energy =               0.0000000000000000
    EFP Energy =                            0.0000000000000000
    Total Energy =                       -173.2805986138159255
    Molecular point group: c1
  Basis Set: 6-31G*
  Basis Set:

  -Total Gradient:
     Atom            X                  Y                   Z
    ------   -----------------  -----------------  -----------------
       1       -0.000025124613    -0.000028032537     0.000034924933
       2       -0.000028723382     0.000013313386    -0.000027743282
       3       -0.001132111651     0.001794483965     0.003901553673
       4        0.000028742772    -0.000006034565     0.000002137833
       5        0.002298092046    -0.002937237840    -0.002476810111
       6        0.000624257896    -0.001009265359    -0.002908319426
       7        0.000000962694    -0.000025288330     0.000001558800
       8       -0.000027090108     0.000009885301    -0.000004953442
       9       -0.001732554800     0.002163608181     0.001451878160
      10        0.000008589698     0.000012248499     0.000018756575
      11       -0.000012211374     0.000005362622     0.000011713347
      12       -0.000001917017     0.000014743165    -0.000004677656
      13       -0.000000912162    -0.000007786489    -0.000000019406

  **** Optimization is complete! (in 5 steps) ****
    Final optimized geometry and variables:
    Molecular point group: c1

    Geometry (in Angstrom), charge = 0, multiplicity = 1:

    H           -1.896562544731    -1.207081362954     1.104661657030
    N           -1.084513200223    -0.623561490262     1.043522606862
    C           -0.860680953505    -0.202919811237    -0.332558655016
    H           -0.314751698917    -1.170793389339     1.377790383503
    C            0.292354695296     0.795492515943    -0.436779643710
    H           -1.769497524228     0.265037185304    -0.696049344321
    H           -0.666592807007    -1.041178672558    -1.007935980492
    C            1.679395696989     0.159262233806    -0.347178630414
    H            0.197623142438     1.346500485962    -1.369219038367
    H            0.172716777129     1.525258314379     0.358647927780
    H            1.829505427611    -0.570295340274    -1.138364424263
    H            2.458154270383     0.909916643264    -0.437651737015
    H            1.828697768609    -0.345351915508     0.603227741200

  Mulliken Charges: (a.u.)
   Center  Symbol    Alpha    Beta     Spin     Total
       1     H     0.33232  0.33232  0.00000  0.33536
       2     N     3.92132  3.92132  0.00000 -0.84264
       3     C     3.06384  3.06384  0.00000 -0.12768
       4     H     0.33344  0.33344  0.00000  0.33312
       5     C     3.15407  3.15407  0.00000 -0.30814
       6     H     0.41889  0.41889  0.00000  0.16222
       7     H     0.43561  0.43561  0.00000  0.12878
       8     C     3.24331  3.24331  0.00000 -0.48662
       9     H     0.42251  0.42251  0.00000  0.15497
      10     H     0.41175  0.41175  0.00000  0.17650
      11     H     0.42239  0.42239  0.00000  0.15523
      12     H     0.41718  0.41718  0.00000  0.16565
      13     H     0.42338  0.42338  0.00000  0.15325

   Total alpha = 17.00000, Total beta = 17.00000, Total charge = -0.00000
