  ==> Input File <==

--------------------------------------------------------------------------
set {
	reference rhf
	basis 6-31G*
}

set_num_threads( 1 )
memory 2 gb

molecule MOL {
0 1

H	 0.924572	 1.939180	 -1.441028
O	 1.217206	 1.837063	 -0.545601
C	 0.709265	 0.639550	 -0.033818
C	 -0.793441	 0.596080	 0.058728
H	 1.138405	 0.527286	 0.955343
H	 1.055606	 -0.210144	 -0.621264
C	 -1.530462	 -0.493172	 -0.025500
H	 -1.268471	 1.554324	 0.202247
H	 -1.092586	 -1.461565	 -0.186463
H	 -2.602122	 -0.450675	 0.050101

	symmetry c1
}
set optking {
	frozen_dihedral = ("
		5 3 2 1,
		3 4 7 9
	")
}

ee = energy('scf')
oeprop('DIPOLE', 'QUADRUPOLE', 'MULLIKEN_CHARGES')
f=open( 'psi4out.xyz', 'w' )
f.write( "10  " )
f.write( str(ee) + "\n" )
f.write( MOL.save_string_xyz() )
f.close()
--------------------------------------------------------------------------

    Molecular point group: c1

    Geometry (in Angstrom), charge = 0, multiplicity = 1:

       Center              X                  Y                   Z               Mass
    ------------   -----------------  -----------------  -----------------  -----------------
           H          0.954991077405     1.246465817680    -1.272474977070     1.007825032070
           O          1.247625077405     1.144348817680    -0.377047977070    15.994914619560
           C          0.739684077405    -0.053164182320     0.134735022930    12.000000000000
           C         -0.763021922595    -0.096634182320     0.227281022930    12.000000000000
           H          1.168824077405    -0.165428182320     1.123896022930     1.007825032070
           H          1.086025077405    -0.902858182320    -0.452710977070     1.007825032070
           C         -1.500042922595    -1.185886182320     0.143053022930    12.000000000000
           H         -1.238051922595     0.861609817680     0.370800022930     1.007825032070
           H         -1.062166922595    -2.154279182320    -0.017909977070     1.007825032070
           H         -2.571702922595    -1.143389182320     0.218654022930     1.007825032070

  Charge       = 0
  Multiplicity = 1
  Basis Set: 6-31G*
  Basis Set:

    Orbital Energies (a.u.)
    -----------------------

    Doubly Occupied:

       1A    -20.560989     2A    -11.276761     3A    -11.231168
       4A    -11.224100     5A     -1.369277     6A     -1.063161
       7A     -0.920935     8A     -0.775997     9A     -0.703982
      10A     -0.622769    11A     -0.621009    12A     -0.600993
      13A     -0.525742    14A     -0.496233    15A     -0.446142
      16A     -0.367685

  @DF-RHF Final Energy:  -191.91564986771738

   => Energetics <=

    Nuclear Repulsion Energy =            117.0610797026902787
    One-Electron Energy =                -492.3395736582080531
    Two-Electron Energy =                 183.3628440878003971
    DFT Exchange-Correlation Energy =       0.0000000000000000
    Empirical Dispersion Energy =           0.0000000000000000
    PCM Polarization Energy =               0.0000000000000000
    EFP Energy =                            0.0000000000000000
    Total Energy =                       -191.9156498677173772

  Mulliken Charges: (a.u.)
   Center  Symbol    Alpha    Beta     Spin     Total
       1     H     0.28111  0.28111  0.00000  0.43779
       2     O     4.36814  4.36814  0.00000 -0.73628
       3     C     3.00490  3.00490  0.00000 -0.00981
       4     C     3.09077  3.09077  0.00000 -0.18155
       5     H     0.40739  0.40739  0.00000  0.18523
       6     H     0.42467  0.42467  0.00000  0.15067
       7     C     3.19828  3.19828  0.00000 -0.39655
       8     H     0.40333  0.40333  0.00000  0.19334
       9     H     0.41297  0.41297  0.00000  0.17407
      10     H     0.40845  0.40845  0.00000  0.18311

   Total alpha = 16.00000, Total beta = 16.00000, Total charge =  0.00000
