                              Psi4 1.0.54 Driver

  ==> Input File <==

--------------------------------------------------------------------------
set {
	reference rhf
	basis cc-pvtz
}

set_num_threads( 4 )
memory 2 gb

molecule MOL {
0 1

H	 2.844821	 -0.593395	 1.836636
C	 2.174466	 -0.741962	 0.996792
C	 0.956816	 0.162634	 1.129220
H	 1.869611	 -1.781042	 0.979535
H	 2.735753	 -0.544812	 0.091904
N	 0.000297	 0.000045	 0.046090
H	 0.462097	 -0.076546	 2.060436
H	 1.276094	 1.204999	 1.215636
C	 -1.359159	 0.315706	 0.454404
C	 0.397846	 0.713285	 -1.157142
C	 -2.416729	 -0.286720	 -0.460525
H	 -1.478729	 1.390261	 0.442008
H	 -1.539692	 0.003361	 1.486761
C	 -0.134424	 0.079270	 -2.435091
H	 1.477748	 0.718079	 -1.210513
H	 0.092960	 1.762365	 -1.108287
H	 -2.285276	 0.073129	 -1.473515
H	 -2.371743	 -1.368476	 -0.483209
H	 -3.408658	 -0.007405	 -0.121593
H	 0.221075	 -0.939825	 -2.524384
H	 -1.216810	 0.057705	 -2.462531
H	 0.203817	 0.639331	 -3.300386

	symmetry c1
}
set optking {
	frozen_dihedral = ("
		3 6 9 11
	")
}

ee,wfn = optimize('scf', return_wfn=True)
oeprop( wfn, 'DIPOLE', 'QUADRUPOLE', 'MULLIKEN_CHARGES')
f=open( 'psi4out.xyz', 'w' )
f.write( "22  " )
f.write( str(ee) + "\n" )
f.write( MOL.save_string_xyz() )
f.close()
--------------------------------------------------------------------------

    Molecular point group: c1
  Charge       = 0
  Multiplicity = 1
  Basis Set: CC-PVTZ
  Basis Set:
  @DF-RHF Final Energy:  -290.45950849333326
    Total Energy =                       -290.4595084933333737
    Molecular point group: c1
  Basis Set: CC-PVTZ
  Basis Set:
  Basis Set: CC-PVTZ
  Basis Set:
  @DF-RHF Final Energy:  -290.46979784488809
    Total Energy =                       -290.4697978448878075
  Basis Set: CC-PVTZ
  Basis Set:
  Basis Set: CC-PVTZ
  Basis Set:
  @DF-RHF Final Energy:  -290.47236725658763
    Total Energy =                       -290.4723672565876313
  Basis Set: CC-PVTZ
  Basis Set:
  Basis Set: CC-PVTZ
  Basis Set:
  @DF-RHF Final Energy:  -290.47307222142695
    Total Energy =                       -290.4730722214271736
  Basis Set: CC-PVTZ
  Basis Set:
  @DF-RHF Final Energy:  -290.47324109127226
    Total Energy =                       -290.4732410912720866
  @DF-RHF Final Energy:  -290.47423520635522
    Total Energy =                       -290.4742352063554449
  @DF-RHF Final Energy:  -290.47450495098599
    Total Energy =                       -290.4745049509861587
  @DF-RHF Final Energy:  -290.47465487772735
    Total Energy =                       -290.4746548777274597
  @DF-RHF Final Energy:  -290.47470128902813
    Total Energy =                       -290.4747012890284168
  Basis Set: CC-PVTZ
  Basis Set:
  @DF-RHF Final Energy:  -290.47474171302281
    Total Energy =                       -290.4747417130230360
  Basis Set: CC-PVTZ
  Basis Set:
  Basis Set: CC-PVTZ
  Basis Set:
  @DF-RHF Final Energy:  -290.47475087482644
    Total Energy =                       -290.4747508748263840
  Basis Set: CC-PVTZ
  Basis Set:
  Basis Set: CC-PVTZ
  Basis Set:
  @DF-RHF Final Energy:  -290.47475485410774
    Total Energy =                       -290.4747548541076299
  Basis Set: CC-PVTZ
  Basis Set:
  Charge       = 0
  Multiplicity = 1
  Basis Set: CC-PVTZ
  Basis Set:

    Orbital Energies (a.u.)
    -----------------------

    Doubly Occupied:

       1A    -15.531976     2A    -11.239392     3A    -11.239241
       4A    -11.238356     5A    -11.204668     6A    -11.204370
       7A    -11.201000     8A     -1.224504     9A     -1.028478
      10A     -1.019687    11A     -0.959090    12A     -0.855298
      13A     -0.833875    14A     -0.774695    15A     -0.661414
      16A     -0.643581    17A     -0.607060    18A     -0.602128
      19A     -0.568636    20A     -0.559920    21A     -0.539664
      22A     -0.531293    23A     -0.513634    24A     -0.498321
      25A     -0.492525    26A     -0.474318    27A     -0.468496
      28A     -0.464124    29A     -0.340729

  @DF-RHF Final Energy:  -290.47475527476763

   => Energetics <=

    Nuclear Repulsion Energy =            339.2856163897959050
    One-Electron Energy =               -1064.4797985641580453
    Two-Electron Energy =                 434.7194268995944526
    DFT Exchange-Correlation Energy =       0.0000000000000000
    Empirical Dispersion Energy =           0.0000000000000000
    PCM Polarization Energy =               0.0000000000000000
    EFP Energy =                            0.0000000000000000
    Total Energy =                       -290.4747552747676878
    Molecular point group: c1
  Basis Set: CC-PVTZ
  Basis Set:

  -Total Gradient:
     Atom            X                  Y                   Z
    ------   -----------------  -----------------  -----------------
       1       -0.000000467212    -0.000000324513     0.000003466386
       2       -0.000014556383     0.000002281968     0.000004233726
       3       -0.000046754734    -0.000332198354     0.000095198839
       4       -0.000001937016    -0.000013470509    -0.000005824533
       5        0.000001102605     0.000006664432    -0.000006754038
       6        0.000091574913     0.000328865449    -0.000045790376
       7        0.000003507554    -0.000005734386    -0.000003763840
       8        0.000003014111    -0.000000153968     0.000006411304
       9       -0.000034795265     0.000336565330    -0.000225747564
      10        0.000018941764     0.000012609943    -0.000020901493
      11       -0.000015906043    -0.000316814580     0.000191333100
      12       -0.000002254953     0.000001601369     0.000002742322
      13        0.000005004727    -0.000004485678    -0.000014465156
      14       -0.000001927259     0.000002153037     0.000000113490
      15        0.000000737699    -0.000003593021     0.000006175034
      16       -0.000004397541    -0.000012346757     0.000015723383
      17       -0.000000266465     0.000001365422     0.000001104793
      18        0.000003246311    -0.000003895452     0.000000702261
      19       -0.000001823876     0.000000955426    -0.000002816619
      20       -0.000001042251    -0.000001336449     0.000008615638
      21       -0.000001783602    -0.000004727072     0.000000085401
      22        0.000000782921     0.000006018362    -0.000009842054

  **** Optimization is complete! (in 13 steps) ****
    Final optimized geometry and variables:
    Molecular point group: c1

    Geometry (in Angstrom), charge = 0, multiplicity = 1:

    H            2.932731912249    -0.793384026690     1.696907808327
    C            2.220293008582    -0.785605138417     0.879361477201
    C            0.977116816082    -0.005828013305     1.284622277024
    H            1.962976327335    -1.809878472527     0.638405194256
    H            2.716295413159    -0.351364664601     0.020220447160
    N           -0.063760494022    -0.008676127241     0.273646155167
    H            0.571530947750    -0.463542143342     2.177813153222
    H            1.265182312474     1.013571657845     1.561656573833
    C           -1.359127716390     0.371109517420     0.806317995749
    C            0.298862931908     0.710927260962    -0.944594544666
    C           -2.524224528558    -0.075333815536    -0.066154071125
    H           -1.423824917143     1.450664672042     0.974834254972
    H           -1.469162488067    -0.097147815918     1.776087697829
    C            0.437558708072    -0.192023101724    -2.164428881043
    H            1.229655615239     1.248928565382    -0.792118416117
    H           -0.444556869150     1.473342778040    -1.153519006110
    H           -2.506574444045     0.390379790783    -1.043879398963
    H           -2.501893808956    -1.149380208992    -0.204588006298
    H           -3.463701446725     0.191882474567     0.405185621573
    H            1.202629801130    -0.941928073267    -2.008384844908
    H           -0.491802493710    -0.708196172715    -2.370211417201
    H            0.705377354664     0.389806203972    -3.041124771748

  Mulliken Charges: (a.u.)
   Center  Symbol    Alpha    Beta     Spin     Total
       1     H     0.44787  0.44787  0.00000  0.10426
       2     C     3.15062  3.15062  0.00000 -0.30124
       3     C     3.03765  3.03765  0.00000 -0.07530
       4     H     0.45020  0.45020  0.00000  0.09960
       5     H     0.45394  0.45394  0.00000  0.09212
       6     N     3.61554  3.61554  0.00000 -0.23107
       7     H     0.45464  0.45464  0.00000  0.09072
       8     H     0.46883  0.46883  0.00000  0.06234
       9     C     3.03832  3.03832  0.00000 -0.07664
      10     C     3.06748  3.06748  0.00000 -0.13496
      11     C     3.14854  3.14854  0.00000 -0.29709
      12     H     0.46814  0.46814  0.00000  0.06372
      13     H     0.45458  0.45458  0.00000  0.09085
      14     C     3.12959  3.12959  0.00000 -0.25919
      15     H     0.44943  0.44943  0.00000  0.10114
      16     H     0.44865  0.44865  0.00000  0.10271
      17     H     0.45441  0.45441  0.00000  0.09118
      18     H     0.45052  0.45052  0.00000  0.09895
      19     H     0.44872  0.44872  0.00000  0.10257
      20     H     0.45277  0.45277  0.00000  0.09445
      21     H     0.45269  0.45269  0.00000  0.09462
      22     H     0.45686  0.45686  0.00000  0.08627

   Total alpha = 29.00000, Total beta = 29.00000, Total charge = -0.00000

*** Psi4 exiting successfully. Buy a developer a beer!
