                              Psi4 1.0.54 Driver

  ==> Input File <==

--------------------------------------------------------------------------
set {
	reference rhf
	basis cc-pvtz
}

set_num_threads( 4 )
memory 2 gb

molecule MOL {
0 1

H	 -2.266619	 1.169943	 0.000098
O	 -1.438073	 1.611259	 0.000041
C	 -0.408657	 0.734701	 0.000005
C	 -0.684605	 -0.552675	 -0.421808
C	 0.871898	 1.096019	 0.402174
H	 -1.685198	 -0.792086	 -0.724176
C	 0.317985	 -1.498784	 -0.447463
C	 1.859620	 0.125125	 0.366143
C	 1.171415	 2.501317	 0.862205
H	 0.096348	 -2.496204	 -0.776115
C	 1.598871	 -1.164312	 -0.052637
H	 2.854564	 0.388539	 0.673825
H	 0.582027	 2.774644	 1.732971
H	 2.212230	 2.599893	 1.135017
H	 0.971136	 3.231737	 0.083296
H	 2.383791	 -1.895045	 -0.069954

	symmetry c1
}
set optking {
	frozen_dihedral = ("
		4 3 2 1
	")
}

ee,wfn = optimize('scf', return_wfn=True)
oeprop( wfn, 'DIPOLE', 'QUADRUPOLE', 'MULLIKEN_CHARGES')
f=open( 'psi4out.xyz', 'w' )
f.write( "16  " )
f.write( str(ee) + "\n" )
f.write( MOL.save_string_xyz() )
f.close()
--------------------------------------------------------------------------

    Molecular point group: c1
  Charge       = 0
  Multiplicity = 1
  Basis Set: CC-PVTZ
  Basis Set:
  @DF-RHF Final Energy:  -344.71754306996064
    Total Energy =                       -344.7175430699605840
    Molecular point group: c1
  Basis Set: CC-PVTZ
  Basis Set:
  Basis Set: CC-PVTZ
  Basis Set:
  @DF-RHF Final Energy:  -344.71965045429630
    Total Energy =                       -344.7196504542965840
  Basis Set: CC-PVTZ
  Basis Set:
  Basis Set: CC-PVTZ
  Basis Set:
  @DF-RHF Final Energy:  -344.71985083075413
    Total Energy =                       -344.7198508307545808
  Basis Set: CC-PVTZ
  Basis Set:
  Basis Set: CC-PVTZ
  Basis Set:
  @DF-RHF Final Energy:  -344.71986842467675
    Total Energy =                       -344.7198684246770313
  Basis Set: CC-PVTZ
  Basis Set:
  Basis Set: CC-PVTZ
  Basis Set:
  @DF-RHF Final Energy:  -344.71987289311244
    Total Energy =                       -344.7198728931124379
  Basis Set: CC-PVTZ
  Basis Set:
  Charge       = 0
  Multiplicity = 1
  Basis Set: CC-PVTZ
  Basis Set:

    Orbital Energies (a.u.)
    -----------------------

    Doubly Occupied:

       1A    -20.581884     2A    -11.290699     3A    -11.229019
       4A    -11.228809     5A    -11.225906     6A    -11.223632
       7A    -11.217286     8A    -11.212972     9A     -1.411669
      10A     -1.152901    11A     -1.047461    12A     -1.006283
      13A     -0.932067    14A     -0.847656    15A     -0.802632
      16A     -0.735489    17A     -0.675304    18A     -0.654025
      19A     -0.611433    20A     -0.599429    21A     -0.579015
      22A     -0.561620    23A     -0.549070    24A     -0.541594
      25A     -0.502329    26A     -0.484253    27A     -0.477089
      28A     -0.333718    29A     -0.309634

  @DF-RHF Final Energy:  -344.71987298856459

   => Energetics <=

    Nuclear Repulsion Energy =            350.9649540156553940
    One-Electron Energy =               -1163.3198884036839900
    Two-Electron Energy =                 467.6350613994642345
    DFT Exchange-Correlation Energy =       0.0000000000000000
    Empirical Dispersion Energy =           0.0000000000000000
    PCM Polarization Energy =               0.0000000000000000
    EFP Energy =                            0.0000000000000000
    Total Energy =                       -344.7198729885643615
    Molecular point group: c1
  Basis Set: CC-PVTZ
  Basis Set:

  -Total Gradient:
     Atom            X                  Y                   Z
    ------   -----------------  -----------------  -----------------
       1        0.000003247578    -0.000035058145     0.001776613157
       2        0.000191955812     0.000204492027    -0.002841653700
       3       -0.000513756345    -0.000492453052     0.002250249118
       4        0.000323807901     0.000336891223    -0.001232790134
       5       -0.000002532185    -0.000020832199     0.000039249087
       6       -0.000002730857    -0.000002188690     0.000002385590
       7       -0.000017774910    -0.000009144160     0.000010976380
       8       -0.000004520411    -0.000004249350     0.000000922822
       9        0.000010244029     0.000005902213    -0.000006300029
      10        0.000005570731     0.000001574023    -0.000000091295
      11        0.000015707762     0.000017018980     0.000002553402
      12       -0.000000287968     0.000005140809    -0.000001667351
      13       -0.000002044393    -0.000000407583     0.000001445646
      14       -0.000002132613    -0.000000156395    -0.000000255100
      15       -0.000001928310    -0.000000608718     0.000001007292
      16       -0.000002825824    -0.000005920982    -0.000002644888

  **** Optimization is complete! (in 6 steps) ****
    Final optimized geometry and variables:
    Molecular point group: c1

    Geometry (in Angstrom), charge = 0, multiplicity = 1:

    H           -2.596562949212     0.860416778267    -0.080501987716
    O           -1.739806823649     1.246675819773    -0.073509617435
    C           -0.780525943388     0.290287968220    -0.093655369423
    C           -1.047306337742    -0.994235768261    -0.521040083216
    C            0.500815810591     0.664123385025     0.301192537715
    H           -2.041622972284    -1.254591230872    -0.836330642747
    C           -0.037901495004    -1.940240497305    -0.545637035881
    C            1.491087222569    -0.298056717765     0.259393652873
    C            0.775768916972     2.074332438984     0.752854671303
    H           -0.254751425025    -2.938431082357    -0.874856362768
    C            1.236592796499    -1.595063338724    -0.156006881773
    H            2.485942231310    -0.028796344792     0.561934619062
    H            0.158168258195     2.339447719494     1.602443940269
    H            1.813524081616     2.187742323003     1.035983521090
    H            0.556904213213     2.786866101642    -0.033418015368
    H            2.027273499714    -2.319675314652    -0.174092055528

  Mulliken Charges: (a.u.)
   Center  Symbol    Alpha    Beta     Spin     Total
       1     H     0.38823  0.38823  0.00000  0.22354
       2     O     4.17481  4.17481  0.00000 -0.34962
       3     C     2.86603  2.86603  0.00000  0.26794
       4     C     3.13120  3.13120  0.00000 -0.26241
       5     C     2.99606  2.99606  0.00000  0.00787
       6     H     0.43513  0.43513  0.00000  0.12973
       7     C     3.07239  3.07239  0.00000 -0.14478
       8     C     3.08303  3.08303  0.00000 -0.16605
       9     C     3.14276  3.14276  0.00000 -0.28552
      10     H     0.42262  0.42262  0.00000  0.15476
      11     C     3.08989  3.08989  0.00000 -0.17979
      12     H     0.42513  0.42513  0.00000  0.14974
      13     H     0.44751  0.44751  0.00000  0.10497
      14     H     0.45416  0.45416  0.00000  0.09168
      15     H     0.44618  0.44618  0.00000  0.10765
      16     H     0.42486  0.42486  0.00000  0.15028

   Total alpha = 29.00000, Total beta = 29.00000, Total charge = -0.00000

*** Psi4 exiting successfully. Buy a developer a beer!
