  ==> Input File <==

--------------------------------------------------------------------------
set {
	reference rhf
	basis 6-31G*
}

set_num_threads( 4 )
memory 2 gb

molecule MOL {
0 1

O	 -2.042549	 -1.228399	 -0.269030
C	 -1.653912	 -0.146171	 0.050137
C	 -0.332303	 0.024011	 0.778412
C	 -2.438579	 1.106236	 -0.272369
C	 0.214710	 -1.333245	 1.247991
H	 0.395421	 0.514413	 0.137861
H	 -0.510051	 0.660523	 1.638168
C	 1.531936	 -1.204017	 2.014312
H	 0.361717	 -1.987398	 0.390346
H	 -0.531868	 -1.808344	 1.877312
C	 2.073611	 -2.551347	 2.490228
H	 2.272299	 -0.719209	 1.381659
H	 1.384888	 -0.550106	 2.870668
H	 2.263202	 -3.216509	 1.652573
H	 1.367980	 -3.045538	 3.151518
H	 3.005757	 -2.428848	 3.032560
H	 -3.277823	 0.863061	 -0.908988
H	 -1.806773	 1.843019	 -0.759671
H	 -2.802853	 1.554979	 0.648059

	symmetry c1
}
set optking {
	frozen_dihedral = ("
		5 3 2 4
	")
}

ee = optimize('scf')
oeprop('DIPOLE', 'QUADRUPOLE', 'MULLIKEN_CHARGES')
f=open( 'psi4out.xyz', 'w' )
f.write( "19  " )
f.write( str(ee) + "\n" )
f.write( MOL.save_string_xyz() )
f.close()
--------------------------------------------------------------------------

    Molecular point group: c1
  Charge       = 0
  Multiplicity = 1
  Basis Set: 6-31G*
  Basis Set:
  @DF-RHF Final Energy:  -309.06589534394709
    Total Energy =                       -309.0658953439470338
    Molecular point group: c1
  Basis Set: 6-31G*
  Basis Set:
  Basis Set: 6-31G*
  Basis Set:
  @DF-RHF Final Energy:  -309.06609601655271
    Total Energy =                       -309.0660960165528195
  Basis Set: 6-31G*
  Basis Set:
  Basis Set: 6-31G*
  Basis Set:
  @DF-RHF Final Energy:  -309.06681151297028
    Total Energy =                       -309.0668115129703892
  Basis Set: 6-31G*
  Basis Set:
  Basis Set: 6-31G*
  Basis Set:
  @DF-RHF Final Energy:  -309.06697737358678
    Total Energy =                       -309.0669773735866102
  Basis Set: 6-31G*
  Basis Set:
  @DF-RHF Final Energy:  -309.06705644823859
    Total Energy =                       -309.0670564482386453
  @DF-RHF Final Energy:  -309.06671290565271
    Total Energy =                       -309.0667129056526505
  Basis Set: 6-31G*
  Basis Set:
  @DF-RHF Final Energy:  -309.06706518374591
    Total Energy =                       -309.0670651837459104
  Basis Set: 6-31G*
  Basis Set:
  Basis Set: 6-31G*
  Basis Set:
  @DF-RHF Final Energy:  -309.06707031717701
    Total Energy =                       -309.0670703171768992
  Basis Set: 6-31G*
  Basis Set:
  Basis Set: 6-31G*
  Basis Set:
  @DF-RHF Final Energy:  -309.06707623103551
    Total Energy =                       -309.0670762310355144
  Basis Set: 6-31G*
  Basis Set:
  Charge       = 0
  Multiplicity = 1
  Basis Set: 6-31G*
  Basis Set:

    Orbital Energies (a.u.)
    -----------------------

    Doubly Occupied:

       1A    -20.550367     2A    -11.326564     3A    -11.232220
       4A    -11.228622     5A    -11.219498     6A    -11.217390
       7A    -11.210108     8A     -1.395834     9A     -1.085866
      10A     -1.029758    11A     -0.983637    12A     -0.886353
      13A     -0.801309    14A     -0.730916    15A     -0.656553
      16A     -0.650841    17A     -0.625757    18A     -0.611282
      19A     -0.580969    20A     -0.570464    21A     -0.554733
      22A     -0.529848    23A     -0.511599    24A     -0.486563
      25A     -0.476364    26A     -0.473211    27A     -0.468648
      28A     -0.400377

  @DF-RHF Final Energy:  -309.06707690232361

   => Energetics <=

    Nuclear Repulsion Energy =            300.8114557429641991
    One-Electron Energy =               -1014.7657640896310340
    Two-Electron Energy =                 404.8872314443431151
    DFT Exchange-Correlation Energy =       0.0000000000000000
    Empirical Dispersion Energy =           0.0000000000000000
    PCM Polarization Energy =               0.0000000000000000
    EFP Energy =                            0.0000000000000000
    Total Energy =                       -309.0670769023237199
    Molecular point group: c1
  Basis Set: 6-31G*
  Basis Set:

  -Total Gradient:
     Atom            X                  Y                   Z
    ------   -----------------  -----------------  -----------------
       1        0.000040302063    -0.000024259147    -0.000000155288
       2        0.000143889924     0.000063863439    -0.000323102526
       3        0.000160429382    -0.000059220901    -0.000261433978
       4       -0.000185891959    -0.000026252626     0.000347522188
       5       -0.000140824399     0.000018688952     0.000239189549
       6       -0.000015085196    -0.000000693778    -0.000004906808
       7       -0.000002442044     0.000020626681    -0.000009605108
       8       -0.000033625671     0.000011063620     0.000049647511
       9       -0.000000523424    -0.000025163120    -0.000006137969
      10        0.000018204345     0.000006251413     0.000001877271
      11       -0.000004482701    -0.000011823829    -0.000023397556
      12       -0.000017260417     0.000000678624    -0.000001992250
      13       -0.000002532249     0.000011644761     0.000011291668
      14       -0.000005946638    -0.000010984247     0.000002151127
      15        0.000005054998     0.000002465917     0.000008704472
      16       -0.000000296190     0.000006579465    -0.000013177482
      17        0.000023428023    -0.000013171160     0.000002992791
      18        0.000007787908     0.000006487631    -0.000016422962
      19        0.000009814250     0.000023218308    -0.000003044647

  **** Optimization is complete! (in 10 steps) ****
    Final optimized geometry and variables:
    Molecular point group: c1

    Geometry (in Angstrom), charge = 0, multiplicity = 1:

    O           -1.720439705419    -0.439590023192    -1.180130860085
    C           -1.286524490696     0.616002762705    -0.833448405136
    C            0.020870259983     0.742908808701    -0.072453005440
    C           -2.021380958048     1.907060651810    -1.128594576916
    C            0.593251616673    -0.588354488156     0.405618992173
    H            0.727953814590     1.250085958312    -0.728629838158
    H           -0.133815985023     1.421106374897     0.764993110313
    C            1.915593779644    -0.423892456503     1.156448211577
    H            0.732108412089    -1.243368341022    -0.448020941155
    H           -0.133502229203    -1.079494505678     1.046283591781
    C            2.491087850221    -1.755591684617     1.636790893975
    H            2.640205548362     0.069447493914     0.511554674657
    H            1.770537049250     0.234575881121     2.010719867634
    H            2.678156434222    -2.424800660753     0.802060452890
    H            1.805422935776    -2.256936003334     2.313747487108
    H            3.429657443362    -1.611152878577     2.162777857545
    H           -2.845891713527     1.713755077526    -1.800674789495
    H           -1.355108072055     2.644524060638    -1.565583070798
    H           -2.406280747085     2.327678848983    -0.203555425229

  Mulliken Charges: (a.u.)
   Center  Symbol    Alpha    Beta     Spin     Total
       1     O     4.26142  4.26142  0.00000 -0.52284
       2     C     2.73517  2.73517  0.00000  0.52966
       3     C     3.21118  3.21118  0.00000 -0.42236
       4     C     3.28693  3.28693  0.00000 -0.57387
       5     C     3.14738  3.14738  0.00000 -0.29476
       6     H     0.40790  0.40790  0.00000  0.18420
       7     H     0.41172  0.41172  0.00000  0.17657
       8     C     3.15354  3.15354  0.00000 -0.30707
       9     H     0.40970  0.40970  0.00000  0.18061
      10     H     0.41492  0.41492  0.00000  0.17015
      11     C     3.23929  3.23929  0.00000 -0.47858
      12     H     0.42377  0.42377  0.00000  0.15246
      13     H     0.42420  0.42420  0.00000  0.15159
      14     H     0.41977  0.41977  0.00000  0.16046
      15     H     0.42027  0.42027  0.00000  0.15945
      16     H     0.41922  0.41922  0.00000  0.16156
      17     H     0.39661  0.39661  0.00000  0.20678
      18     H     0.41033  0.41033  0.00000  0.17934
      19     H     0.40669  0.40669  0.00000  0.18663

   Total alpha = 28.00000, Total beta = 28.00000, Total charge =  0.00000
