                              Psi4 1.0.54 Driver

  ==> Input File <==

--------------------------------------------------------------------------
set {
	reference rhf
	basis cc-pvtz
}

set_num_threads( 4 )
memory 2 gb

molecule MOL {
0 1

H	 -3.436473	 1.252944	 -1.023892
O	 -3.458596	 0.315260	 -0.960865
C	 -3.176635	 -0.080824	 0.355601
C	 -1.763371	 0.265266	 0.799691
H	 -3.321825	 -1.153438	 0.379502
H	 -3.895468	 0.357385	 1.043382
C	 -0.673390	 -0.426948	 -0.013392
H	 -1.631049	 1.344913	 0.747560
H	 -1.664587	 -0.001624	 1.849167
C	 0.737842	 -0.043159	 0.423759
H	 -0.806103	 -0.190518	 -1.063345
H	 -0.797221	 -1.503753	 0.074146
C	 0.831070	 1.390953	 0.941137
H	 1.069642	 -0.736365	 1.190743
H	 1.421205	 -0.165249	 -0.414075
C	 2.241295	 1.849602	 1.316313
H	 0.177230	 1.504279	 1.802821
H	 0.443403	 2.060535	 0.178252
C	 2.850567	 1.125246	 2.514328
H	 2.209614	 2.912970	 1.533155
H	 2.895849	 1.736180	 0.456014
H	 2.214251	 1.216429	 3.388893
H	 3.817950	 1.544885	 2.765952
H	 2.995435	 0.069444	 2.319646

	symmetry c1
}
set optking {
	frozen_dihedral = ("
		13 10 7 11
	")
}

ee,wfn = optimize('scf', return_wfn=True)
oeprop( wfn, 'DIPOLE', 'QUADRUPOLE', 'MULLIKEN_CHARGES')
f=open( 'psi4out.xyz', 'w' )
f.write( "24  " )
f.write( str(ee) + "\n" )
f.write( MOL.save_string_xyz() )
f.close()
--------------------------------------------------------------------------

    Molecular point group: c1
  Charge       = 0
  Multiplicity = 1
  Basis Set: CC-PVTZ
  Basis Set:
  @DF-RHF Final Energy:  -349.37167668912105
    Total Energy =                       -349.3716766891213297
    Molecular point group: c1
  Basis Set: CC-PVTZ
  Basis Set:
  Basis Set: CC-PVTZ
  Basis Set:
  @DF-RHF Final Energy:  -349.29527443517617
    Total Energy =                       -349.2952744351761680
  Basis Set: CC-PVTZ
  Basis Set:
  Basis Set: CC-PVTZ
  Basis Set:
  @DF-RHF Final Energy:  -349.36580945069113
    Total Energy =                       -349.3658094506910174
  Basis Set: CC-PVTZ
  Basis Set:
  Basis Set: CC-PVTZ
  Basis Set:
  @DF-RHF Final Energy:  -349.37425736251146
    Total Energy =                       -349.3742573625112300
  Basis Set: CC-PVTZ
  Basis Set:
  Basis Set: CC-PVTZ
  Basis Set:
  @DF-RHF Final Energy:  -349.37475362387391
    Total Energy =                       -349.3747536238738576
  Basis Set: CC-PVTZ
  Basis Set:
  Basis Set: CC-PVTZ
  Basis Set:
  @DF-RHF Final Energy:  -349.37476678708538
    Total Energy =                       -349.3747667870849227
  Basis Set: CC-PVTZ
  Basis Set:
  Charge       = 0
  Multiplicity = 1
  Basis Set: CC-PVTZ
  Basis Set:

    Orbital Energies (a.u.)
    -----------------------

    Doubly Occupied:

       1A    -20.546018     2A    -11.265322     3A    -11.215094
       4A    -11.213039     5A    -11.211103     6A    -11.210438
       7A    -11.209503     8A    -11.205887     9A     -1.363931
      10A     -1.089278    11A     -1.047940    12A     -0.984786
      13A     -0.917961    14A     -0.855955    15A     -0.811370
      16A     -0.763431    17A     -0.679289    18A     -0.652586
      19A     -0.628697    20A     -0.620761    21A     -0.600417
      22A     -0.578781    23A     -0.568001    24A     -0.539062
      25A     -0.524291    26A     -0.511458    27A     -0.496022
      28A     -0.482023    29A     -0.474606    30A     -0.456861
      31A     -0.447250    32A     -0.438991    33A     -0.426552

  @DF-RHF Final Energy:  -349.37476718940576

   => Energetics <=

    Nuclear Repulsion Energy =            389.8438527500172199
    One-Electron Energy =               -1246.3638302145136549
    Two-Electron Energy =                 507.1452102750908466
    DFT Exchange-Correlation Energy =       0.0000000000000000
    Empirical Dispersion Energy =           0.0000000000000000
    PCM Polarization Energy =               0.0000000000000000
    EFP Energy =                            0.0000000000000000
    Total Energy =                       -349.3747671894055316
    Molecular point group: c1
  Basis Set: CC-PVTZ
  Basis Set:

  -Total Gradient:
     Atom            X                  Y                   Z
    ------   -----------------  -----------------  -----------------
       1       -0.000020953873    -0.000066098146    -0.000008608743
       2        0.000078596590     0.000089867600    -0.000007032669
       3       -0.000022158182     0.000035447260     0.000107722163
       4       -0.000084129681    -0.000095975129    -0.000027023682
       5        0.000066443679     0.000042481229     0.000046995027
       6        0.000018686580    -0.000033019170    -0.000017518980
       7       -0.001164837690     0.006969103279     0.003815003748
       8       -0.000009584704    -0.000040970953    -0.000015542965
       9       -0.000053640443     0.000005136006    -0.000008738011
      10        0.002742043321     0.000181080575    -0.006265525567
      11        0.000252963968    -0.006035329873    -0.001650928660
      12       -0.000072189418     0.000038563036    -0.000037166833
      13       -0.001733425241    -0.001218766974     0.003976159402
      14        0.000068723928    -0.000031937455     0.000040452916
      15        0.000028057461     0.000014718144     0.000057309525
      16       -0.000012349593     0.000179112638     0.000039743338
      17       -0.000053857995     0.000006443474    -0.000004565841
      18        0.000100682381     0.000037975270    -0.000008836240
      19       -0.000045188270    -0.000078500098    -0.000015031647
      20        0.000004678853    -0.000037907541     0.000000923211
      21       -0.000045783087     0.000020556735    -0.000021450701
      22        0.000000654893    -0.000019008466     0.000008051157
      23       -0.000031356287    -0.000010335071    -0.000021127495
      24       -0.000012077187     0.000047363633     0.000016737547

  **** Optimization is complete! (in 7 steps) ****
    Final optimized geometry and variables:
    Molecular point group: c1

    Geometry (in Angstrom), charge = 0, multiplicity = 1:

    H           -2.738877533195     1.557648609401    -1.951428664701
    O           -2.969589362535     0.646861033343    -1.922910464476
    C           -2.922146282296     0.184171178014    -0.599055034364
    C           -1.524879903683     0.218930950972     0.002542306217
    H           -3.290426638541    -0.833318354592    -0.627889878707
    H           -3.603601885947     0.756730907400     0.025114263426
    C           -0.532793364140    -0.678296421266    -0.731048019647
    H           -1.176739969238     1.248047194504     0.013263772192
    H           -1.602142162636    -0.087788816315     1.043163291681
    C            0.877375089117    -0.785268127816    -0.122655046754
    H           -0.464228578790    -0.395789844041    -1.775323656797
    H           -0.951627809702    -1.681658303075    -0.757309440816
    C            1.437921950286     0.495611584190     0.497575243889
    H            0.860212717258    -1.554082735236     0.643539891622
    H            1.558491409534    -1.141816797162    -0.889159006206
    C            2.893932412355     0.385531651884     0.955701866466
    H            0.825586602749     0.793009413624     1.343020243936
    H            1.371646768028     1.304266188365    -0.226489600618
    C            3.130738614982    -0.592187773750     2.104538606453
    H            3.231273653810     1.370483175951     1.263803300604
    H            3.515363969438     0.104053410336     0.109768046025
    H            2.511893263573    -0.344123750777     2.961197070114
    H            4.165340736612    -0.561970911730     2.426624307118
    H            2.908660879229    -1.613642226827     1.821259345991

  Mulliken Charges: (a.u.)
   Center  Symbol    Alpha    Beta     Spin     Total
       1     H     0.39527  0.39527  0.00000  0.20945
       2     O     4.20386  4.20386  0.00000 -0.40772
       3     C     2.97836  2.97836  0.00000  0.04328
       4     C     3.10733  3.10733  0.00000 -0.21466
       5     H     0.45822  0.45822  0.00000  0.08356
       6     H     0.46010  0.46010  0.00000  0.07980
       7     C     3.09198  3.09198  0.00000 -0.18396
       8     H     0.45491  0.45491  0.00000  0.09019
       9     H     0.45175  0.45175  0.00000  0.09650
      10     C     3.09948  3.09948  0.00000 -0.19896
      11     H     0.44415  0.44415  0.00000  0.11170
      12     H     0.45287  0.45287  0.00000  0.09427
      13     C     3.09822  3.09822  0.00000 -0.19644
      14     H     0.45266  0.45266  0.00000  0.09469
      15     H     0.44858  0.44858  0.00000  0.10284
      16     C     3.09027  3.09027  0.00000 -0.18055
      17     H     0.45090  0.45090  0.00000  0.09819
      18     H     0.45013  0.45013  0.00000  0.09974
      19     C     3.15308  3.15308  0.00000 -0.30616
      20     H     0.44881  0.44881  0.00000  0.10237
      21     H     0.45437  0.45437  0.00000  0.09125
      22     H     0.45561  0.45561  0.00000  0.08878
      23     H     0.44627  0.44627  0.00000  0.10747
      24     H     0.45281  0.45281  0.00000  0.09437

   Total alpha = 33.00000, Total beta = 33.00000, Total charge = -0.00000

*** Psi4 exiting successfully. Buy a developer a beer!
