  ==> Input File <==

--------------------------------------------------------------------------
set {
	reference rhf
	basis 6-31G*
}

set_num_threads( 1 )
memory 2 gb

molecule MOL {
0 1

H	 2.632767	 1.360832	 -1.646776
O	 3.142998	 0.831334	 -2.242064
C	 3.387820	 -0.426540	 -1.665985
C	 2.154060	 -1.321681	 -1.630122
H	 4.154812	 -0.885575	 -2.276464
H	 3.797934	 -0.313067	 -0.663134
C	 1.021261	 -0.785234	 -0.751568
H	 1.795115	 -1.455067	 -2.647341
H	 2.457611	 -2.303108	 -1.269533
C	 -0.180865	 -1.731972	 -0.693275
H	 0.703207	 0.182143	 -1.130237
H	 1.394473	 -0.619236	 0.259124
C	 -1.309753	 -1.282496	 0.241564
H	 -0.578106	 -1.868420	 -1.697481
H	 0.165198	 -2.711171	 -0.369068
C	 -2.037799	 -0.007733	 -0.193645
H	 -2.036145	 -2.089407	 0.312732
H	 -0.911654	 -1.145576	 1.245859
C	 -3.489788	 0.042957	 0.286558
H	 -2.017067	 0.064384	 -1.280144
H	 -1.513726	 0.868678	 0.179924
C	 -4.216917	 1.317354	 -0.141063
H	 -4.025645	 -0.823308	 -0.095450
H	 -3.513059	 -0.038752	 1.371301
H	 -4.239342	 1.411634	 -1.223113
H	 -5.243387	 1.322503	 0.212445
H	 -3.726170	 2.201406	 0.256408

	symmetry c1
}
set optking {
	frozen_dihedral = ("
		14 10 7 4,
		14 10 13 16,
		10 7 4 8,
		8 4 3 2,
		20 16 19 22,
		4 3 2 1
	")
}

ee = energy('scf')
oeprop('DIPOLE', 'QUADRUPOLE', 'MULLIKEN_CHARGES')
f=open( 'psi4out.xyz', 'w' )
f.write( "27  " )
f.write( str(ee) + "\n" )
f.write( MOL.save_string_xyz() )
f.close()
--------------------------------------------------------------------------

    Molecular point group: c1

    Geometry (in Angstrom), charge = 0, multiplicity = 1:

       Center              X                  Y                   Z               Mass
    ------------   -----------------  -----------------  -----------------  -----------------
           H          2.760162601613     1.698492154108    -0.870856641072     1.007825032070
           O          3.270393601613     1.168994154108    -1.466144641072    15.994914619560
           C          3.515215601613    -0.088879845892    -0.890065641072    12.000000000000
           C          2.281455601613    -0.984020845892    -0.854202641072    12.000000000000
           H          4.282207601613    -0.547914845892    -1.500544641072     1.007825032070
           H          3.925329601613     0.024593154108     0.112785358928     1.007825032070
           C          1.148656601613    -0.447573845892     0.024351358928    12.000000000000
           H          1.922510601613    -1.117406845892    -1.871421641072     1.007825032070
           H          2.585006601613    -1.965447845892    -0.493613641072     1.007825032070
           C         -0.053469398387    -1.394311845892     0.082644358928    12.000000000000
           H          0.830602601613     0.519803154108    -0.354317641072     1.007825032070
           H          1.521868601613    -0.281575845892     1.035043358928     1.007825032070
           C         -1.182357398387    -0.944835845892     1.017483358928    12.000000000000
           H         -0.450710398387    -1.530759845892    -0.921561641072     1.007825032070
           H          0.292593601613    -2.373510845892     0.406851358928     1.007825032070
           C         -1.910403398387     0.329927154108     0.582274358928    12.000000000000
           H         -1.908749398387    -1.751746845892     1.088651358928     1.007825032070
           H         -0.784258398387    -0.807915845892     2.021778358928     1.007825032070
           C         -3.362392398387     0.380617154108     1.062477358928    12.000000000000
           H         -1.889671398387     0.402044154108    -0.504224641072     1.007825032070
           H         -1.386330398387     1.206338154108     0.955843358928     1.007825032070
           C         -4.089521398387     1.655014154108     0.634856358928    12.000000000000
           H         -3.898249398387    -0.485647845892     0.680469358928     1.007825032070
           H         -3.385663398387     0.298908154108     2.147220358928     1.007825032070
           H         -4.111946398387     1.749294154108    -0.447193641072     1.007825032070
           H         -5.115991398387     1.660163154108     0.988364358928     1.007825032070
           H         -3.598774398387     2.539066154108     1.032327358928     1.007825032070

  Charge       = 0
  Multiplicity = 1
  Basis Set: 6-31G*
  Basis Set:

    Orbital Energies (a.u.)
    -----------------------

    Doubly Occupied:

       1A    -20.552238     2A    -11.267051     3A    -11.219885
       4A    -11.217317     5A    -11.216212     6A    -11.215243
       7A    -11.215034     8A    -11.213888     9A    -11.209098
      10A     -1.358991    11A     -1.095223    12A     -1.061576
      13A     -1.011373    14A     -0.948459    15A     -0.887691
      16A     -0.820316    17A     -0.802273    18A     -0.777579
      19A     -0.693640    20A     -0.654453    21A     -0.632631
      22A     -0.615396    23A     -0.601880    24A     -0.584950
      25A     -0.578826    26A     -0.553437    27A     -0.538641
      28A     -0.532176    29A     -0.505625    30A     -0.493758
      31A     -0.484301    32A     -0.474370    33A     -0.470843
      34A     -0.457900    35A     -0.453221    36A     -0.442014
      37A     -0.422441

  @DF-RHF Final Energy:  -388.27992003849641

   => Energetics <=

    Nuclear Repulsion Energy =            459.4060587421533342
    One-Electron Energy =               -1436.8120309890607587
    Two-Electron Energy =                 589.1260522084098739
    DFT Exchange-Correlation Energy =       0.0000000000000000
    Empirical Dispersion Energy =           0.0000000000000000
    PCM Polarization Energy =               0.0000000000000000
    EFP Energy =                            0.0000000000000000
    Total Energy =                       -388.2799200384974938

  Mulliken Charges: (a.u.)
   Center  Symbol    Alpha    Beta     Spin     Total
       1     H     0.27988  0.27988  0.00000  0.44025
       2     O     4.37097  4.37097  0.00000 -0.74195
       3     C     2.99733  2.99733  0.00000  0.00534
       4     C     3.16114  3.16114  0.00000 -0.32228
       5     H     0.41446  0.41446  0.00000  0.17108
       6     H     0.43204  0.43204  0.00000  0.13592
       7     C     3.16298  3.16298  0.00000 -0.32595
       8     H     0.41504  0.41504  0.00000  0.16992
       9     H     0.42425  0.42425  0.00000  0.15150
      10     C     3.15294  3.15294  0.00000 -0.30588
      11     H     0.42254  0.42254  0.00000  0.15491
      12     H     0.42545  0.42545  0.00000  0.14910
      13     C     3.15464  3.15464  0.00000 -0.30928
      14     H     0.42156  0.42156  0.00000  0.15689
      15     H     0.42202  0.42202  0.00000  0.15595
      16     C     3.15262  3.15262  0.00000 -0.30524
      17     H     0.42036  0.42036  0.00000  0.15929
      18     H     0.42297  0.42297  0.00000  0.15407
      19     C     3.15264  3.15264  0.00000 -0.30528
      20     H     0.42299  0.42299  0.00000  0.15403
      21     H     0.42330  0.42330  0.00000  0.15339
      22     C     3.23954  3.23954  0.00000 -0.47908
      23     H     0.42258  0.42258  0.00000  0.15485
      24     H     0.42290  0.42290  0.00000  0.15419
      25     H     0.42143  0.42143  0.00000  0.15714
      26     H     0.41925  0.41925  0.00000  0.16149
      27     H     0.42218  0.42218  0.00000  0.15564

   Total alpha = 37.00000, Total beta = 37.00000, Total charge = -0.00000
