                              Psi4 1.0.54 Driver

  ==> Input File <==

--------------------------------------------------------------------------
set {
	reference rhf
	basis cc-pvtz
}

set_num_threads( 4 )
memory 2 gb

molecule MOL {
0 1

H	 0.132593	 -2.501853	 -0.456901
C	 -0.733469	 -1.846735	 -0.567380
N	 -0.537714	 -0.645117	 0.000000
O	 -1.718484	 -2.200098	 -1.134477
C	 -1.522613	 0.412524	 0.000000
H	 0.334659	 -0.486508	 0.440219
H	 -2.150256	 0.356137	 -0.880771
H	 -1.005621	 1.357208	 0.000000
H	 -2.150256	 0.356137	 0.880771

	symmetry c1
}
set optking {
	frozen_dihedral = ("
		6 3 5 7
	")
}

ee,wfn = optimize('scf', return_wfn=True)
oeprop( wfn, 'DIPOLE', 'QUADRUPOLE', 'MULLIKEN_CHARGES')
f=open( 'psi4out.xyz', 'w' )
f.write( "9  " )
f.write( str(ee) + "\n" )
f.write( MOL.save_string_xyz() )
f.close()
--------------------------------------------------------------------------

    Molecular point group: c1
  Charge       = 0
  Multiplicity = 1
  Basis Set: CC-PVTZ
  Basis Set:
  @DF-RHF Final Energy:  -208.04335883038652
    Total Energy =                       -208.0433588303865804
    Molecular point group: c1
  Basis Set: CC-PVTZ
  Basis Set:
  Basis Set: CC-PVTZ
  Basis Set:
  @DF-RHF Final Energy:  -208.04357742010643
    Total Energy =                       -208.0435774201066010
  Basis Set: CC-PVTZ
  Basis Set:
  Basis Set: CC-PVTZ
  Basis Set:
  @DF-RHF Final Energy:  -208.04358707350588
    Total Energy =                       -208.0435870735059325
  Basis Set: CC-PVTZ
  Basis Set:
  Basis Set: CC-PVTZ
  Basis Set:
  @DF-RHF Final Energy:  -208.04364238344760
    Total Energy =                       -208.0436423834474340
  Basis Set: CC-PVTZ
  Basis Set:
  @DF-RHF Final Energy:  -208.04365774331109
    Total Energy =                       -208.0436577433111154
  @DF-RHF Final Energy:  -208.04366550975061
    Total Energy =                       -208.0436655097506673
  @DF-RHF Final Energy:  -208.04366689876491
    Total Energy =                       -208.0436668987649114
  @DF-RHF Final Energy:  -208.04366812167314
    Total Energy =                       -208.0436681216731074
  Basis Set: CC-PVTZ
  Basis Set:
  @DF-RHF Final Energy:  -208.04366923867883
    Total Energy =                       -208.0436692386788877
  Basis Set: CC-PVTZ
  Basis Set:
  Basis Set: CC-PVTZ
  Basis Set:
  @DF-RHF Final Energy:  -208.04367197515296
    Total Energy =                       -208.0436719751530177
  Basis Set: CC-PVTZ
  Basis Set:
  Basis Set: CC-PVTZ
  Basis Set:
  @DF-RHF Final Energy:  -208.04367378057731
    Total Energy =                       -208.0436737805772509
  Basis Set: CC-PVTZ
  Basis Set:
  Charge       = 0
  Multiplicity = 1
  Basis Set: CC-PVTZ
  Basis Set:

    Orbital Energies (a.u.)
    -----------------------

    Doubly Occupied:

       1A    -20.516819     2A    -15.584607     3A    -11.336682
       4A    -11.259986     5A     -1.394126     6A     -1.239572
       7A     -0.969871     8A     -0.808700     9A     -0.748866
      10A     -0.646192    11A     -0.629825    12A     -0.596312
      13A     -0.557949    14A     -0.538893    15A     -0.428629
      16A     -0.396650

  @DF-RHF Final Energy:  -208.04367463289165

   => Energetics <=

    Nuclear Repulsion Energy =            122.8466533478530494
    One-Electron Energy =                -526.4732998380831077
    Two-Electron Energy =                 195.5829718573384639
    DFT Exchange-Correlation Energy =       0.0000000000000000
    Empirical Dispersion Energy =           0.0000000000000000
    PCM Polarization Energy =               0.0000000000000000
    EFP Energy =                            0.0000000000000000
    Total Energy =                       -208.0436746328916229
    Molecular point group: c1
  Basis Set: CC-PVTZ
  Basis Set:

  -Total Gradient:
     Atom            X                  Y                   Z
    ------   -----------------  -----------------  -----------------
       1       -0.000000130818     0.000000410048     0.000000839088
       2        0.000015094289     0.000007397106    -0.000006280936
       3        0.000015313061     0.000021255383    -0.000034932340
       4       -0.000013764444    -0.000005183731    -0.000008710163
       5        0.000039662442     0.000023654568    -0.000021029118
       6       -0.000019751019    -0.000022810754     0.000044481913
       7       -0.000036828047    -0.000036190268     0.000017093611
       8        0.000004833453     0.000008821817    -0.000003028825
       9       -0.000004428920     0.000002645831     0.000011566768

  **** Optimization is complete! (in 12 steps) ****
    Final optimized geometry and variables:
    Molecular point group: c1

    Geometry (in Angstrom), charge = 0, multiplicity = 1:

    H            1.255632991543    -1.461679377353    -0.049442658875
    C            0.395620980225    -0.795340968497    -0.139545084205
    N            0.633618790956     0.427093260419     0.362830941713
    O           -0.623326487477    -1.144775984138    -0.645649964907
    C           -0.375540678924     1.461395561329     0.407213738554
    H            1.491604306619     0.571624354081     0.834453863246
    H           -0.961800725715     1.429134775544    -0.497494754447
    H            0.108194183632     2.425274321663     0.479313443319
    H           -1.043801188576     1.339290249436     1.251718582783

  Mulliken Charges: (a.u.)
   Center  Symbol    Alpha    Beta     Spin     Total
       1     H     0.46385  0.46385  0.00000  0.07230
       2     C     2.88039  2.88039  0.00000  0.23922
       3     N     3.60627  3.60627  0.00000 -0.21254
       4     O     4.21401  4.21401  0.00000 -0.42801
       5     C     3.07753  3.07753  0.00000 -0.15506
       6     H     0.41044  0.41044  0.00000  0.17911
       7     H     0.43881  0.43881  0.00000  0.12238
       8     H     0.45392  0.45392  0.00000  0.09215
       9     H     0.45478  0.45478  0.00000  0.09044

   Total alpha = 16.00000, Total beta = 16.00000, Total charge =  0.00000

*** Psi4 exiting successfully. Buy a developer a beer!
