                              Psi4 1.0.54 Driver

  ==> Input File <==

--------------------------------------------------------------------------
set {
	reference rhf
	basis cc-pvtz
}

set_num_threads( 4 )
memory 2 gb

molecule MOL {
0 1

O	 1.359807	 2.140699	 0.138705
C	 0.289885	 2.572839	 0.402446
C	 -0.997676	 1.789432	 0.392340
O	 0.082959	 3.832757	 0.749152
C	 -0.824290	 0.329213	 -0.000115
H	 -1.436855	 1.881428	 1.380322
H	 -1.678191	 2.299461	 -0.281612
C	 -2.146151	 -0.432825	 -0.000068
H	 -0.126615	 -0.143614	 0.681763
H	 -0.367984	 0.274909	 -0.982014
C	 -3.366283	 0.483552	 0.000557
H	 -2.189286	 -1.084450	 -0.869996
H	 -2.188867	 -1.085083	 0.869399
C	 -4.687436	 -0.278003	 0.000108
H	 -3.325150	 1.134819	 -0.867957
H	 -3.325087	 1.133730	 0.869885
H	 -4.773783	 -0.912098	 -0.876078
H	 -5.531922	 0.401392	 0.000363
H	 -4.773901	 -0.912898	 0.875703
C	 1.209101	 4.685123	 0.800162
H	 1.927834	 4.324607	 1.521039
H	 0.837142	 5.652226	 1.097157
H	 1.682980	 4.749180	 -0.168109

	symmetry c1
}
set optking {
	frozen_dihedral = ("
		9 5 8 12
	")
}

ee,wfn = optimize('scf', return_wfn=True)
oeprop( wfn, 'DIPOLE', 'QUADRUPOLE', 'MULLIKEN_CHARGES')
f=open( 'psi4out.xyz', 'w' )
f.write( "23  " )
f.write( str(ee) + "\n" )
f.write( MOL.save_string_xyz() )
f.close()
--------------------------------------------------------------------------

    Molecular point group: c1
  Charge       = 0
  Multiplicity = 1
  Basis Set: CC-PVTZ
  Basis Set:
  @DF-RHF Final Energy:  -423.11788605114822
    Total Energy =                       -423.1178860511483890
    Molecular point group: c1
  Basis Set: CC-PVTZ
  Basis Set:
  Basis Set: CC-PVTZ
  Basis Set:
  @DF-RHF Final Energy:  -423.00151757206692
    Total Energy =                       -423.0015175720666321
  Basis Set: CC-PVTZ
  Basis Set:
  Basis Set: CC-PVTZ
  Basis Set:
  @DF-RHF Final Energy:  -423.09718689256493
    Total Energy =                       -423.0971868925651052
  Basis Set: CC-PVTZ
  Basis Set:
  Basis Set: CC-PVTZ
  Basis Set:
  @DF-RHF Final Energy:  -423.12068696578473
    Total Energy =                       -423.1206869657847847
  Basis Set: CC-PVTZ
  Basis Set:
  @DF-RHF Final Energy:  -423.12212512942665
    Total Energy =                       -423.1221251294273316
  @DF-RHF Final Energy:  -423.12216900335693
    Total Energy =                       -423.1221690033567029
  Basis Set: CC-PVTZ
  Basis Set:
  @DF-RHF Final Energy:  -423.12168580656720
    Total Energy =                       -423.1216858065669157
  Basis Set: CC-PVTZ
  Basis Set:
  Basis Set: CC-PVTZ
  Basis Set:
  @DF-RHF Final Energy:  -423.12220202379814
    Total Energy =                       -423.1222020237978541
  Basis Set: CC-PVTZ
  Basis Set:
  Basis Set: CC-PVTZ
  Basis Set:
  @DF-RHF Final Energy:  -423.12220431915995
    Total Energy =                       -423.1222043191604598
  Basis Set: CC-PVTZ
  Basis Set:
  Charge       = 0
  Multiplicity = 1
  Basis Set: CC-PVTZ
  Basis Set:

    Orbital Energies (a.u.)
    -----------------------

    Doubly Occupied:

       1A    -20.595778     2A    -20.533760     3A    -11.363964
       4A    -11.278102     5A    -11.232807     6A    -11.217625
       7A    -11.217320     8A    -11.216046     9A    -11.209221
      10A     -1.471815    11A     -1.365395    12A     -1.092310
      13A     -1.042750    14A     -0.986994    15A     -0.933020
      16A     -0.854233    17A     -0.792860    18A     -0.760632
      19A     -0.701096    20A     -0.686475    21A     -0.674251
      22A     -0.651168    23A     -0.610816    24A     -0.602579
      25A     -0.578087    26A     -0.561297    27A     -0.550233
      28A     -0.526626    29A     -0.523080    30A     -0.512764
      31A     -0.496712    32A     -0.467330    33A     -0.462239
      34A     -0.456221    35A     -0.452806    36A     -0.440582

  @DF-RHF Final Energy:  -423.12220488832105

   => Energetics <=

    Nuclear Repulsion Energy =            459.2417011130291371
    One-Electron Energy =               -1486.4898254551458194
    Two-Electron Energy =                 604.1259194537957455
    DFT Exchange-Correlation Energy =       0.0000000000000000
    Empirical Dispersion Energy =           0.0000000000000000
    PCM Polarization Energy =               0.0000000000000000
    EFP Energy =                            0.0000000000000000
    Total Energy =                       -423.1222048883208799
    Molecular point group: c1
  Basis Set: CC-PVTZ
  Basis Set:

  -Total Gradient:
     Atom            X                  Y                   Z
    ------   -----------------  -----------------  -----------------
       1       -0.000214157802     0.000082906507     0.000004159867
       2        0.000157624722     0.000014170900    -0.000062441317
       3       -0.000016454370     0.000028895740     0.000069585346
       4        0.000040362880    -0.000067878783     0.000012966744
       5        0.003565383273    -0.002355601418    -0.004999678381
       6       -0.000011227248     0.000012094466    -0.000021139964
       7       -0.000000353681     0.000019497262    -0.000017479318
       8        0.001289427097    -0.004412231402     0.004484741840
       9       -0.003219381176     0.002537716063     0.003475782631
      10       -0.000014827669    -0.000024077142     0.000006496406
      11       -0.000061178277     0.000021704965     0.000115991364
      12       -0.001562445531     0.004137088488    -0.002971503333
      13        0.000052536158     0.000030061824    -0.000004808640
      14        0.000034227127     0.000043197107    -0.000038064762
      15        0.000008756906     0.000022764381     0.000008448128
      16       -0.000013529107    -0.000002109469    -0.000023686474
      17       -0.000013290932    -0.000020896520    -0.000003876279
      18        0.000014318835    -0.000010696800    -0.000012268003
      19       -0.000000545171     0.000012276400     0.000002420171
      20       -0.000004534033    -0.000039105028     0.000009908837
      21       -0.000013636097     0.000044695601    -0.000060447236
      22        0.000028840077    -0.000065827463    -0.000041562957
      23       -0.000045915983    -0.000008645680     0.000066455332

  **** Optimization is complete! (in 10 steps) ****
    Final optimized geometry and variables:
    Molecular point group: c1

    Geometry (in Angstrom), charge = 0, multiplicity = 1:

    O            2.259812637930     0.488262098265     0.640491431163
    C            1.149594925921     0.898423779907     0.644233833828
    C           -0.064849216791     0.157228532447     0.144598130624
    O            0.823326002858     2.097189049227     1.100321778792
    C            0.265186731448    -1.239174919710    -0.377606448698
    H           -0.770957242492     0.121157941299     0.966738423315
    H           -0.522439657427     0.782675304697    -0.611927451566
    C           -0.942878264990    -2.071809107556    -0.868022638867
    H            0.742815913872    -1.764312684413     0.439322857377
    H            1.001155062309    -1.147267472523    -1.164678210711
    C           -2.211352853852    -1.302625674308    -1.247519342809
    H           -0.637538177916    -2.609463753535    -1.759591025917
    H           -1.201296249654    -2.814386589680    -0.120932312701
    C           -3.303101530766    -2.225910578344    -1.779175645718
    H           -1.977916334156    -0.559274071627    -2.004542732853
    H           -2.597171689870    -0.758799231193    -0.391931755228
    H           -2.970297382187    -2.758431691631    -2.663780967147
    H           -4.193608086804    -1.667869237378    -2.044553444358
    H           -3.585155065289    -2.965441110042    -1.037074537482
    C            1.867393459564     2.907246288796     1.600505973471
    H            2.354655482486     2.428526733630     2.436856030040
    H            1.404476053058     3.827779480092     1.916798613580
    H            2.599835066082     3.103561972817     0.831720955592

  Mulliken Charges: (a.u.)
   Center  Symbol    Alpha    Beta     Spin     Total
       1     O     4.19684  4.19684  0.00000 -0.39368
       2     C     2.81302  2.81302  0.00000  0.37396
       3     C     3.10017  3.10017  0.00000 -0.20035
       4     O     4.14633  4.14633  0.00000 -0.29267
       5     C     3.09085  3.09085  0.00000 -0.18170
       6     H     0.43864  0.43864  0.00000  0.12273
       7     H     0.43677  0.43677  0.00000  0.12646
       8     C     3.09393  3.09393  0.00000 -0.18785
       9     H     0.44317  0.44317  0.00000  0.11367
      10     H     0.44300  0.44300  0.00000  0.11399
      11     C     3.09262  3.09262  0.00000 -0.18525
      12     H     0.45004  0.45004  0.00000  0.09992
      13     H     0.45026  0.45026  0.00000  0.09947
      14     C     3.15095  3.15095  0.00000 -0.30189
      15     H     0.45262  0.45262  0.00000  0.09477
      16     H     0.45183  0.45183  0.00000  0.09634
      17     H     0.45401  0.45401  0.00000  0.09198
      18     H     0.44773  0.44773  0.00000  0.10453
      19     H     0.45473  0.45473  0.00000  0.09055
      20     C     3.03864  3.03864  0.00000 -0.07729
      21     H     0.45430  0.45430  0.00000  0.09140
      22     H     0.44517  0.44517  0.00000  0.10966
      23     H     0.45437  0.45437  0.00000  0.09126

   Total alpha = 36.00000, Total beta = 36.00000, Total charge = -0.00000

*** Psi4 exiting successfully. Buy a developer a beer!
