                              Psi4 1.0.54 Driver

  ==> Input File <==

--------------------------------------------------------------------------
set {
	reference rhf
	basis cc-pvtz
}

set_num_threads( 4 )
memory 2 gb

molecule MOL {
0 1

H	 -0.716912	 0.656892	 3.192690
O	 -0.543252	 0.379019	 2.312529
C	 -0.238002	 1.488005	 1.506930
C	 0.027642	 1.012027	 0.090274
H	 0.646819	 1.995967	 1.882208
H	 -1.054588	 2.204520	 1.522915
C	 -1.138737	 0.285728	 -0.581921
H	 0.887441	 0.350484	 0.115033
H	 0.313005	 1.876385	 -0.504426
C	 -1.933983	 -0.631436	 0.343653
H	 -0.763151	 -0.285569	 -1.422081
H	 -1.808359	 1.035291	 -0.992333
H	 -2.789188	 -1.049673	 -0.174718
H	 -1.335629	 -1.461368	 0.700418
H	 -2.305435	 -0.092167	 1.209725

	symmetry c1
}
set optking {
	frozen_dihedral = ("
		8 4 7 11
	")
}

ee,wfn = optimize('scf', return_wfn=True)
oeprop( wfn, 'DIPOLE', 'QUADRUPOLE', 'MULLIKEN_CHARGES')
f=open( 'psi4out.xyz', 'w' )
f.write( "15  " )
f.write( str(ee) + "\n" )
f.write( MOL.save_string_xyz() )
f.close()
--------------------------------------------------------------------------

    Molecular point group: c1
  Charge       = 0
  Multiplicity = 1
  Basis Set: CC-PVTZ
  Basis Set:
  @DF-RHF Final Energy:  -232.22547908574546
    Total Energy =                       -232.2254790857455191
    Molecular point group: c1
  Basis Set: CC-PVTZ
  Basis Set:
  Basis Set: CC-PVTZ
  Basis Set:
  @DF-RHF Final Energy:  -232.23155425267058
    Total Energy =                       -232.2315542526704348
  Basis Set: CC-PVTZ
  Basis Set:
  Basis Set: CC-PVTZ
  Basis Set:
  @DF-RHF Final Energy:  -232.23331857491993
    Total Energy =                       -232.2333185749197355
  Basis Set: CC-PVTZ
  Basis Set:
  Basis Set: CC-PVTZ
  Basis Set:
  @DF-RHF Final Energy:  -232.23373517579913
    Total Energy =                       -232.2337351757991541
  Basis Set: CC-PVTZ
  Basis Set:
  Basis Set: CC-PVTZ
  Basis Set:
  @DF-RHF Final Energy:  -232.23381319452164
    Total Energy =                       -232.2338131945214741
  Basis Set: CC-PVTZ
  Basis Set:
  Basis Set: CC-PVTZ
  Basis Set:
  @DF-RHF Final Energy:  -232.23383250671532
    Total Energy =                       -232.2338325067152596
  Basis Set: CC-PVTZ
  Basis Set:
  Basis Set: CC-PVTZ
  Basis Set:
  @DF-RHF Final Energy:  -232.23383634244584
    Total Energy =                       -232.2338363424458407
  Basis Set: CC-PVTZ
  Basis Set:
  Charge       = 0
  Multiplicity = 1
  Basis Set: CC-PVTZ
  Basis Set:

    Orbital Energies (a.u.)
    -----------------------

    Doubly Occupied:

       1A    -20.546062     2A    -11.267095     3A    -11.211666
       4A    -11.210707     5A    -11.195629     6A     -1.364310
       7A     -1.063114     8A     -0.971119     9A     -0.867381
      10A     -0.775157    11A     -0.706409    12A     -0.650126
      13A     -0.609062    14A     -0.570398    15A     -0.560086
      16A     -0.538507    17A     -0.507757    18A     -0.476330
      19A     -0.463798    20A     -0.453830    21A     -0.429505

  @DF-RHF Final Energy:  -232.23383669007848

   => Energetics <=

    Nuclear Repulsion Energy =            192.9633801411656577
    One-Electron Energy =                -697.5183379464838254
    Two-Electron Energy =                 272.3211211152396345
    DFT Exchange-Correlation Energy =       0.0000000000000000
    Empirical Dispersion Energy =           0.0000000000000000
    PCM Polarization Energy =               0.0000000000000000
    EFP Energy =                            0.0000000000000000
    Total Energy =                       -232.2338366900785331
    Molecular point group: c1
  Basis Set: CC-PVTZ
  Basis Set:

  -Total Gradient:
     Atom            X                  Y                   Z
    ------   -----------------  -----------------  -----------------
       1        0.000002612406    -0.000005893981    -0.000003127378
       2        0.000002097146     0.000036377168    -0.000002170673
       3        0.000006843937    -0.000021466283     0.000025961199
       4       -0.001671046450    -0.002785421352     0.005538185435
       5        0.000015347167     0.000008370942     0.000018927346
       6       -0.000007468805     0.000000721480    -0.000001776027
       7       -0.000264994422     0.004732901392    -0.004184552958
       8        0.001404535987     0.001627391668    -0.004020697026
       9        0.000005719383    -0.000000854825     0.000005906462
      10       -0.000008049640    -0.000002362236     0.000007462881
      11        0.000529670466    -0.003590482941     0.002618129052
      12       -0.000000368305    -0.000006543417     0.000009526953
      13        0.000000539194    -0.000008312823     0.000008540482
      14       -0.000013128239     0.000019551851    -0.000018152248
      15       -0.000002309825    -0.000003976646    -0.000002163499

  **** Optimization is complete! (in 8 steps) ****
    Final optimized geometry and variables:
    Molecular point group: c1

    Geometry (in Angstrom), charge = 0, multiplicity = 1:

    H            0.337259592264     0.326630886060     2.494606312750
    O            0.496329540670    -0.020377048155     1.636357900902
    C            0.489664726409     1.016567939901     0.689663855525
    C            0.728360821430     0.451592122860    -0.698959204941
    H            1.275939082510     1.730770671544     0.919594900377
    H           -0.456582117533     1.554234570699     0.716617375242
    C           -0.458045226558    -0.233279066972    -1.392157230840
    H            1.582964032492    -0.216250779913    -0.668892408499
    H            1.038517003869     1.280742690949    -1.330112444837
    C           -1.267159376694    -1.209605140103    -0.538371613014
    H           -0.065096418398    -0.792944174041    -2.235122415424
    H           -1.125072593909     0.523840010095    -1.793208798333
    H           -2.034535063382    -1.680966047932    -1.143007173223
    H           -0.636912645823    -1.987534142444    -0.125532508273
    H           -1.754696735236    -0.716080427025     0.292024142996

  Mulliken Charges: (a.u.)
   Center  Symbol    Alpha    Beta     Spin     Total
       1     H     0.39603  0.39603  0.00000  0.20794
       2     O     4.19797  4.19797  0.00000 -0.39594
       3     C     2.98294  2.98294  0.00000  0.03412
       4     C     3.09351  3.09351  0.00000 -0.18702
       5     H     0.45932  0.45932  0.00000  0.08137
       6     H     0.46985  0.46985  0.00000  0.06030
       7     C     3.09267  3.09267  0.00000 -0.18534
       8     H     0.45007  0.45007  0.00000  0.09985
       9     H     0.45160  0.45160  0.00000  0.09681
      10     C     3.14065  3.14065  0.00000 -0.28129
      11     H     0.45167  0.45167  0.00000  0.09667
      12     H     0.45470  0.45470  0.00000  0.09059
      13     H     0.45233  0.45233  0.00000  0.09534
      14     H     0.45024  0.45024  0.00000  0.09952
      15     H     0.45646  0.45646  0.00000  0.08709

   Total alpha = 21.00000, Total beta = 21.00000, Total charge =  0.00000

*** Psi4 exiting successfully. Buy a developer a beer!
