                              Psi4 1.0.54 Driver

  ==> Input File <==

--------------------------------------------------------------------------
set {
	reference rhf
	basis cc-pvtz
}

set_num_threads( 4 )
memory 2 gb

molecule MOL {
0 1

O	 -1.284252	 0.799719	 -0.849206
C	 -1.081510	 0.147522	 0.122720
C	 0.327029	 -0.064006	 0.641890
C	 -2.206377	 -0.518079	 0.878973
C	 1.349460	 -0.017068	 -0.500215
H	 0.399029	 -1.014606	 1.159950
H	 0.538021	 0.726928	 1.350471
C	 2.779782	 -0.209014	 -0.009215
H	 1.115007	 -0.782959	 -1.233891
H	 1.259071	 0.936707	 -1.006644
H	 3.481860	 -0.160270	 -0.833072
H	 2.903471	 -1.171535	 0.475559
H	 3.052569	 0.559584	 0.705428
H	 -1.986767	 -1.566556	 1.046969
H	 -3.132128	 -0.416529	 0.333839
H	 -2.306503	 -0.051575	 1.853756

	symmetry c1
}
set optking {
	frozen_dihedral = ("
		4 2 3 5
	")
}

ee,wfn = optimize('scf', return_wfn=True)
oeprop( wfn, 'DIPOLE', 'QUADRUPOLE', 'MULLIKEN_CHARGES')
f=open( 'psi4out.xyz', 'w' )
f.write( "16  " )
f.write( str(ee) + "\n" )
f.write( MOL.save_string_xyz() )
f.close()
--------------------------------------------------------------------------

    Molecular point group: c1
  Charge       = 0
  Multiplicity = 1
  Basis Set: CC-PVTZ
  Basis Set:
  @DF-RHF Final Energy:  -270.12928755559983
    Total Energy =                       -270.1292875555996602
    Molecular point group: c1
  Basis Set: CC-PVTZ
  Basis Set:
  Basis Set: CC-PVTZ
  Basis Set:
  @DF-RHF Final Energy:  -269.91870892610274
    Total Energy =                       -269.9187089261025108
  Basis Set: CC-PVTZ
  Basis Set:
  Basis Set: CC-PVTZ
  Basis Set:
  @DF-RHF Final Energy:  -270.05612555023231
    Total Energy =                       -270.0561255502323093
  Basis Set: CC-PVTZ
  Basis Set:
  Basis Set: CC-PVTZ
  Basis Set:
  @DF-RHF Final Energy:  -270.12393000748614
    Total Energy =                       -270.1239300074861944
  Basis Set: CC-PVTZ
  Basis Set:
  @DF-RHF Final Energy:  -270.12910351315759
    Total Energy =                       -270.1291035131573608
  @DF-RHF Final Energy:  -270.12875627587118
    Total Energy =                       -270.1287562758710692
  @DF-RHF Final Energy:  -270.13012127289147
    Total Energy =                       -270.1301212728915289
  @DF-RHF Final Energy:  -270.13012022575015
    Total Energy =                       -270.1301202257502041
  @DF-RHF Final Energy:  -270.13037576962120
    Total Energy =                       -270.1303757696211960
  Basis Set: CC-PVTZ
  Basis Set:
  @DF-RHF Final Energy:  -270.13037905415189
    Total Energy =                       -270.1303790541518310
  Basis Set: CC-PVTZ
  Basis Set:
  Basis Set: CC-PVTZ
  Basis Set:
  @DF-RHF Final Energy:  -270.13038012089203
    Total Energy =                       -270.1303801208918003
  Basis Set: CC-PVTZ
  Basis Set:
  Basis Set: CC-PVTZ
  Basis Set:
  @DF-RHF Final Energy:  -270.13039500897798
    Total Energy =                       -270.1303950089780415
  Basis Set: CC-PVTZ
  Basis Set:
  Charge       = 0
  Multiplicity = 1
  Basis Set: CC-PVTZ
  Basis Set:

    Orbital Energies (a.u.)
    -----------------------

    Doubly Occupied:

       1A    -20.538272     2A    -11.321125     3A    -11.230426
       4A    -11.227575     5A    -11.220243     6A    -11.212821
       7A     -1.398855     8A     -1.078895     9A     -1.016750
      10A     -0.948154    11A     -0.825670    12A     -0.733716
      13A     -0.658309    14A     -0.650891    15A     -0.624434
      16A     -0.601256    17A     -0.569487    18A     -0.561348
      19A     -0.546553    20A     -0.505753    21A     -0.495593
      22A     -0.482831    23A     -0.476673    24A     -0.402070

  @DF-RHF Final Energy:  -270.13039538048258

   => Energetics <=

    Nuclear Repulsion Energy =            237.2043147306081892
    One-Electron Energy =                -836.0140153633235514
    Two-Electron Energy =                 328.6793052522326661
    DFT Exchange-Correlation Energy =       0.0000000000000000
    Empirical Dispersion Energy =           0.0000000000000000
    PCM Polarization Energy =               0.0000000000000000
    EFP Energy =                            0.0000000000000000
    Total Energy =                       -270.1303953804826961
    Molecular point group: c1
  Basis Set: CC-PVTZ
  Basis Set:

  -Total Gradient:
     Atom            X                  Y                   Z
    ------   -----------------  -----------------  -----------------
       1        0.000002717774    -0.000016469841     0.000005032780
       2        0.000084779902     0.000405985879     0.001248852016
       3        0.000575536475     0.000948557978     0.000395244033
       4       -0.000177878164    -0.000496371288    -0.001059256972
       5       -0.000474483487    -0.000841099659    -0.000613478293
       6       -0.000002233972    -0.000001167607    -0.000000239367
       7       -0.000003920260    -0.000001257753     0.000001890358
       8        0.000009218092     0.000003601649     0.000002735931
       9       -0.000008778612     0.000001608476    -0.000008547222
      10        0.000005952086     0.000005286609    -0.000000471830
      11       -0.000001904161     0.000001458449    -0.000000545715
      12       -0.000003236657    -0.000001425961    -0.000000905552
      13        0.000008201068    -0.000000917461     0.000008855357
      14       -0.000004636699    -0.000012735725    -0.000009718782
      15       -0.000012647064     0.000010037571     0.000001961940
      16        0.000003313675    -0.000005091315     0.000028591320

  **** Optimization is complete! (in 13 steps) ****
    Final optimized geometry and variables:
    Molecular point group: c1

    Geometry (in Angstrom), charge = 0, multiplicity = 1:

    O           -0.971558281453     1.461318203758    -0.278956615291
    C           -0.984753836350     0.393725712169     0.240921677443
    C            0.278209071082    -0.430158939743     0.409561457770
    C           -2.263280149671    -0.212303495652     0.768346073687
    C            1.319282978289    -0.195326684739    -0.679471787875
    H            0.015509379042    -1.481802603310     0.467156468040
    H            0.685841051783    -0.169685208766     1.384848037019
    C            2.593570357456    -1.000463822595    -0.450115491427
    H            0.890552384242    -0.456330753262    -1.641702716265
    H            1.549397676556     0.860603213586    -0.726619965706
    H            3.311977395768    -0.821593496878    -1.241204753700
    H            2.390318060912    -2.066131105026    -0.423900792164
    H            3.063968546359    -0.731398762885     0.489940937876
    H           -2.529398057910    -1.067740403917     0.155739844945
    H           -3.060111960180     0.514833749814     0.737069266958
    H           -2.127197357831    -0.573196712272     1.781963487644

  Mulliken Charges: (a.u.)
   Center  Symbol    Alpha    Beta     Spin     Total
       1     O     4.17301  4.17301  0.00000 -0.34602
       2     C     2.86034  2.86034  0.00000  0.27933
       3     C     3.10592  3.10592  0.00000 -0.21183
       4     C     3.15263  3.15263  0.00000 -0.30526
       5     C     3.08167  3.08167  0.00000 -0.16334
       6     H     0.44652  0.44652  0.00000  0.10695
       7     H     0.44467  0.44467  0.00000  0.11067
       8     C     3.14974  3.14974  0.00000 -0.29948
       9     H     0.45207  0.45207  0.00000  0.09585
      10     H     0.44006  0.44006  0.00000  0.11987
      11     H     0.44591  0.44591  0.00000  0.10817
      12     H     0.45677  0.45677  0.00000  0.08645
      13     H     0.45498  0.45498  0.00000  0.09005
      14     H     0.44923  0.44923  0.00000  0.10153
      15     H     0.43619  0.43619  0.00000  0.12761
      16     H     0.45028  0.45028  0.00000  0.09945

   Total alpha = 24.00000, Total beta = 24.00000, Total charge =  0.00000

*** Psi4 exiting successfully. Buy a developer a beer!
