  ==> Input File <==

--------------------------------------------------------------------------
set {
	reference rhf
	basis 6-31G*
}

set_num_threads( 4 )
memory 2 gb

molecule MOL {
0 1

H	 -2.577059	 0.204429	 0.730862
C	 -1.587496	 -0.236856	 0.756460
C	 -0.603454	 0.661669	 0.000000
H	 -1.639823	 -1.220558	 0.305866
H	 -1.290800	 -0.351684	 1.791944
C	 0.763625	 0.112519	 0.000000
H	 -0.912158	 0.785675	 -1.031452
H	 -0.565347	 1.649043	 0.445209
N	 1.813038	 -0.320305	 0.000000

	symmetry c1
}
set optking {
	frozen_dihedral = ("
		7 3 6 9
	")
}

ee = optimize('scf')
oeprop('DIPOLE', 'QUADRUPOLE', 'MULLIKEN_CHARGES')
f=open( 'psi4out.xyz', 'w' )
f.write( "9  " )
f.write( str(ee) + "\n" )
f.write( MOL.save_string_xyz() )
f.close()
--------------------------------------------------------------------------

    Molecular point group: c1
  Charge       = 0
  Multiplicity = 1
  Basis Set: 6-31G*
  Basis Set:
  @DF-RHF Final Energy:  -170.96243094789955
    Total Energy =                       -170.9624309478995769
    Molecular point group: c1
  Basis Set: 6-31G*
  Basis Set:
  Basis Set: 6-31G*
  Basis Set:
  @DF-RHF Final Energy:  -170.66120530795823
    Total Energy =                       -170.6612053079581983
  Basis Set: 6-31G*
  Basis Set:
  Basis Set: 6-31G*
  Basis Set:
  @DF-RHF Final Energy:  -170.73336898066890
    Total Energy =                       -170.7333689806688426
  Basis Set: 6-31G*
  Basis Set:
  Basis Set: 6-31G*
  Basis Set:
  @DF-RHF Final Energy:  -170.94482802904156
    Total Energy =                       -170.9448280290415596
  Basis Set: 6-31G*
  Basis Set:
  @DF-RHF Final Energy:  -170.72452163120542
    Total Energy =                       -170.7245216312053344
  @DF-RHF Final Energy:  -170.60102215547226
    Total Energy =                       -170.6010221554722364
  @DF-RHF Final Energy:  -170.74298755034442
    Total Energy =                       -170.7429875503444521
  @DF-RHF Final Energy:  -170.83720735343988
    Total Energy =                       -170.8372073534398510
  @DF-RHF Final Energy:  -170.76624990181261
    Total Energy =                       -170.7662499018126709
  @DF-RHF Final Energy:  -170.73381323689068
    Total Energy =                       -170.7338132368904837
  @DF-RHF Final Energy:  -170.85247996748978
    Total Energy =                       -170.8524799674898418
  @DF-RHF Final Energy:  -170.91334363541927
    Total Energy =                       -170.9133436354192384
  @DF-RHF Final Energy:  -170.94572131069248
    Total Energy =                       -170.9457213106925053
  @DF-RHF Final Energy:  -170.80243771866333
    Total Energy =                       -170.8024377186633558
  @DF-RHF Final Energy:  -170.81260448173333
    Total Energy =                       -170.8126044817333025
  @DF-RHF Final Energy:  -170.93782653326275
    Total Energy =                       -170.9378265332627507
  @DF-RHF Final Energy:  -170.95718691100802
    Total Energy =                       -170.9571869110079376
  @DF-RHF Final Energy:  -170.96166852868851
    Total Energy =                       -170.9616685286885343
  @DF-RHF Final Energy:  -170.96153514821219
    Total Energy =                       -170.9615351482121639
  @DF-RHF Final Energy:  -170.96227966516602
    Total Energy =                       -170.9622796651659939
  @DF-RHF Final Energy:  -170.96204324580231
    Total Energy =                       -170.9620432458022492
  @DF-RHF Final Energy:  -170.96156805174772
    Total Energy =                       -170.9615680517477188
  @DF-RHF Final Energy:  -170.96218907647983
    Total Energy =                       -170.9621890764799161
  @DF-RHF Final Energy:  -170.96231909878060
    Total Energy =                       -170.9623190987805970
  @DF-RHF Final Energy:  -170.96206160282867
    Total Energy =                       -170.9620616028285838
  @DF-RHF Final Energy:  -170.96230971935935
    Total Energy =                       -170.9623097193594106
  @DF-RHF Final Energy:  -170.96236420689732
    Total Energy =                       -170.9623642068974050
  @DF-RHF Final Energy:  -170.96228492910751
    Total Energy =                       -170.9622849291075113
  @DF-RHF Final Energy:  -170.96239601495452
    Total Energy =                       -170.9623960149545496
  @DF-RHF Final Energy:  -170.96080471047574
    Total Energy =                       -170.9608047104757702
  @DF-RHF Final Energy:  -170.96135810853613
    Total Energy =                       -170.9613581085361602
  @DF-RHF Final Energy:  -170.96135842813564
    Total Energy =                       -170.9613584281356680
  @DF-RHF Final Energy:  -170.96225965396249
    Total Energy =                       -170.9622596539626045
  @DF-RHF Final Energy:  -170.96242809420528
    Total Energy =                       -170.9624280942051939
  @DF-RHF Final Energy:  -170.96238215708382
    Total Energy =                       -170.9623821570838231
  @DF-RHF Final Energy:  -170.96242998074257
    Total Energy =                       -170.9624299807426837
  Basis Set: 6-31G*
  Basis Set:
  @DF-RHF Final Energy:  -170.96241735421262
    Total Energy =                       -170.9624173542127039
  Basis Set: 6-31G*
  Basis Set:
  Basis Set: 6-31G*
  Basis Set:
  @DF-RHF Final Energy:  -170.96243211389057
    Total Energy =                       -170.9624321138905145
  Basis Set: 6-31G*
  Basis Set:
  Basis Set: 6-31G*
  Basis Set:
  @DF-RHF Final Energy:  -170.96242815440723
    Total Energy =                       -170.9624281544072062
  Basis Set: 6-31G*
  Basis Set:
  Charge       = 0
  Multiplicity = 1
  Basis Set: 6-31G*
  Basis Set:

    Orbital Energies (a.u.)
    -----------------------

    Doubly Occupied:

       1A    -15.567072     2A    -11.283665     3A    -11.269410
       4A    -11.245855     5A     -1.224527     6A     -1.082256
       7A     -0.911746     8A     -0.699382     9A     -0.659424
      10A     -0.587720    11A     -0.560795    12A     -0.543880
      13A     -0.536580    14A     -0.458562    15A     -0.458463

  @DF-RHF Final Energy:  -170.96243209753777

   => Energetics <=

    Nuclear Repulsion Energy =            103.4094255317288429
    One-Electron Energy =                -434.5650434138100877
    Two-Electron Energy =                 160.1931857845434592
    DFT Exchange-Correlation Energy =       0.0000000000000000
    Empirical Dispersion Energy =           0.0000000000000000
    PCM Polarization Energy =               0.0000000000000000
    EFP Energy =                            0.0000000000000000
    Total Energy =                       -170.9624320975377714
    Molecular point group: c1
  Basis Set: 6-31G*
  Basis Set:

  -Total Gradient:
     Atom            X                  Y                   Z
    ------   -----------------  -----------------  -----------------
       1        0.000000330594     0.000005147927    -0.000008891206
       2        0.000021042298    -0.000017770428     0.000018467209
       3        0.000025833322    -0.000102976431    -0.000072050291
       4        0.000000094064    -0.000004825328     0.000003019396
       5        0.000003477870     0.000000526949    -0.000010191941
       6       -0.000061921597     0.000172696727    -0.000008247163
       7       -0.000056246052     0.000031171455     0.000022533855
       8        0.000040477208     0.000006505805     0.000008305565
       9        0.000026912293    -0.000090476677     0.000047054575

  **** Optimization is complete! (in 41 steps) ****
    Final optimized geometry and variables:
    Molecular point group: c1

    Geometry (in Angstrom), charge = 0, multiplicity = 1:

    H           -2.594602717755     0.200384772081     0.528614876175
    C           -1.611626647105    -0.255114616022     0.560235820621
    C           -0.616983091921     0.611653285093    -0.219079461721
    H           -1.680481809152    -1.247461171336     0.131366640919
    H           -1.312569980493    -0.351916386695     1.596852248652
    C            0.741351993414     0.041379441883    -0.211408775844
    H           -0.928069777863     0.718496089451    -1.251731618610
    H           -0.561695666493     1.607633443789     0.204754972148
    N            1.783886447266    -0.407725400264    -0.198263273176

  Mulliken Charges: (a.u.)
   Center  Symbol    Alpha    Beta     Spin     Total
       1     H     0.40907  0.40907  0.00000  0.18185
       2     C     3.24293  3.24293  0.00000 -0.48585
       3     C     3.18197  3.18197  0.00000 -0.36395
       4     H     0.40537  0.40537  0.00000  0.18926
       5     H     0.40537  0.40537  0.00000  0.18926
       6     C     2.84851  2.84851  0.00000  0.30298
       7     H     0.38856  0.38856  0.00000  0.22288
       8     H     0.38858  0.38858  0.00000  0.22285
       9     N     3.72964  3.72964  0.00000 -0.45927

   Total alpha = 15.00000, Total beta = 15.00000, Total charge = -0.00000
