                              Psi4 1.0.54 Driver

  ==> Input File <==

--------------------------------------------------------------------------
set {
	reference rhf
	basis cc-pvtz
}

set_num_threads( 4 )
memory 2 gb

molecule MOL {
0 1

H	 1.355422	 -1.345685	 -0.175438
C	 0.788096	 -0.429819	 0.000000
N	 -0.537714	 -0.645117	 0.000000
O	 1.326235	 0.618584	 0.167262
C	 -1.522613	 0.412524	 0.000000
H	 -0.845894	 -1.585866	 0.000000
H	 -2.150256	 0.356137	 -0.880771
H	 -1.005621	 1.357208	 0.000000
H	 -2.150256	 0.356137	 0.880771

	symmetry c1
}
set optking {
	frozen_dihedral = ("
		1 2 3 6
	")
}

ee,wfn = optimize('scf', return_wfn=True)
oeprop( wfn, 'DIPOLE', 'QUADRUPOLE', 'MULLIKEN_CHARGES')
f=open( 'psi4out.xyz', 'w' )
f.write( "9  " )
f.write( str(ee) + "\n" )
f.write( MOL.save_string_xyz() )
f.close()
--------------------------------------------------------------------------

    Molecular point group: c1
  Charge       = 0
  Multiplicity = 1
  Basis Set: CC-PVTZ
  Basis Set:
  @DF-RHF Final Energy:  -208.04241386431283
    Total Energy =                       -208.0424138643128344
    Molecular point group: c1
  Basis Set: CC-PVTZ
  Basis Set:
  Basis Set: CC-PVTZ
  Basis Set:
  @DF-RHF Final Energy:  -208.04238642561128
    Total Energy =                       -208.0423864256112552
  Basis Set: CC-PVTZ
  Basis Set:
  Basis Set: CC-PVTZ
  Basis Set:
  @DF-RHF Final Energy:  -208.04326240567914
    Total Energy =                       -208.0432624056791155
  Basis Set: CC-PVTZ
  Basis Set:
  Basis Set: CC-PVTZ
  Basis Set:
  @DF-RHF Final Energy:  -208.04336115690148
    Total Energy =                       -208.0433611569014261
  Basis Set: CC-PVTZ
  Basis Set:
  @DF-RHF Final Energy:  -208.04338125892286
    Total Energy =                       -208.0433812589228637
  @DF-RHF Final Energy:  -208.04343091050060
    Total Energy =                       -208.0434309105005468
  @DF-RHF Final Energy:  -208.04345600884818
    Total Energy =                       -208.0434560088482669
  @DF-RHF Final Energy:  -208.04352683073799
    Total Energy =                       -208.0435268307380170
  @DF-RHF Final Energy:  -208.04350907730867
    Total Energy =                       -208.0435090773087268
  Basis Set: CC-PVTZ
  Basis Set:
  @DF-RHF Final Energy:  -208.04364093505887
    Total Energy =                       -208.0436409350588747
  Basis Set: CC-PVTZ
  Basis Set:
  Basis Set: CC-PVTZ
  Basis Set:
  @DF-RHF Final Energy:  -208.04364373054841
    Total Energy =                       -208.0436437305483537
  Basis Set: CC-PVTZ
  Basis Set:
  Basis Set: CC-PVTZ
  Basis Set:
  @DF-RHF Final Energy:  -208.04364483796522
    Total Energy =                       -208.0436448379650756
  Basis Set: CC-PVTZ
  Basis Set:
  Charge       = 0
  Multiplicity = 1
  Basis Set: CC-PVTZ
  Basis Set:

    Orbital Energies (a.u.)
    -----------------------

    Doubly Occupied:

       1A    -20.517571     2A    -15.584456     3A    -11.336724
       4A    -11.259919     5A     -1.394725     6A     -1.239474
       7A     -0.969427     8A     -0.808559     9A     -0.748716
      10A     -0.646370    11A     -0.630180    12A     -0.595872
      13A     -0.557966    14A     -0.538563    15A     -0.429119
      16A     -0.397294

  @DF-RHF Final Energy:  -208.04364496107934

   => Energetics <=

    Nuclear Repulsion Energy =            122.8815916488871807
    One-Electron Energy =                -526.5406024377539325
    Two-Electron Energy =                 195.6153658277873717
    DFT Exchange-Correlation Energy =       0.0000000000000000
    Empirical Dispersion Energy =           0.0000000000000000
    PCM Polarization Energy =               0.0000000000000000
    EFP Energy =                            0.0000000000000000
    Total Energy =                       -208.0436449610793659
    Molecular point group: c1
  Basis Set: CC-PVTZ
  Basis Set:

  -Total Gradient:
     Atom            X                  Y                   Z
    ------   -----------------  -----------------  -----------------
       1        0.000105808011     0.000155738568    -0.000499286991
       2       -0.000193713598    -0.000235982082     0.000854496388
       3        0.000215164472     0.000157124965    -0.000940810746
       4        0.000010930750     0.000009208464     0.000003997154
       5        0.000008287758    -0.000012014747    -0.000011446073
       6       -0.000140158380    -0.000080075709     0.000588303894
       7       -0.000012113561    -0.000001982712    -0.000005072864
       8        0.000006185217     0.000010573173    -0.000003431005
       9       -0.000000390666    -0.000002589921     0.000013250244

  **** Optimization is complete! (in 13 steps) ****
    Final optimized geometry and variables:
    Molecular point group: c1

    Geometry (in Angstrom), charge = 0, multiplicity = 1:

    H            1.382595785001    -1.336787587080    -0.141667008123
    C            0.786748053705    -0.435255399531     0.012953007061
    N           -0.505811520281    -0.605467534045    -0.312350755684
    O            1.267276190566     0.579475789028     0.407218777928
    C           -1.493187204769     0.433010822900    -0.117901425341
    H           -0.812738406153    -1.527526557903    -0.500795720837
    H           -2.373017516027     0.194459048805    -0.698352583970
    H           -1.095208286639     1.376930137206    -0.456134171426
    H           -1.774851980427     0.535527455427     0.923605610395

  Mulliken Charges: (a.u.)
   Center  Symbol    Alpha    Beta     Spin     Total
       1     H     0.46381  0.46381  0.00000  0.07238
       2     C     2.88020  2.88020  0.00000  0.23960
       3     N     3.60571  3.60571  0.00000 -0.21143
       4     O     4.21327  4.21327  0.00000 -0.42653
       5     C     3.07736  3.07736  0.00000 -0.15472
       6     H     0.41139  0.41139  0.00000  0.17721
       7     H     0.45372  0.45372  0.00000  0.09256
       8     H     0.43983  0.43983  0.00000  0.12034
       9     H     0.45470  0.45470  0.00000  0.09060

   Total alpha = 16.00000, Total beta = 16.00000, Total charge = -0.00000

*** Psi4 exiting successfully. Buy a developer a beer!
