  ==> Input File <==

--------------------------------------------------------------------------
set {
	reference rhf
	basis 6-31G*
}

set_num_threads( 4 )
memory 2 gb

molecule MOL {
0 1

O	 3.225979	 0.970355	 -0.599647
C	 2.701189	 0.057885	 -0.047330
C	 1.245376	 -0.013843	 0.345420
O	 3.347903	 -1.046386	 0.304773
C	 0.455112	 1.231400	 -0.050772
H	 0.838542	 -0.913825	 -0.103701
H	 1.208210	 -0.175333	 1.419774
C	 -0.998893	 1.219485	 0.433193
H	 0.482531	 1.345121	 -1.130325
H	 0.957290	 2.103070	 0.354729
C	 -1.883438	 0.145884	 -0.207175
H	 -1.431207	 2.195402	 0.224832
H	 -1.019646	 1.105716	 1.516076
C	 -3.347647	 0.245583	 0.225435
H	 -1.822183	 0.231698	 -1.291012
H	 -1.510341	 -0.844814	 0.042401
C	 -4.239992	 -0.825570	 -0.404234
H	 -3.732888	 1.230466	 -0.033079
H	 -3.408585	 0.170602	 1.310038
C	 -3.486417	 -1.738154	 -1.371197
H	 -4.689967	 -1.427163	 0.382691
H	 -5.063237	 -0.345585	 -0.929271
H	 -4.145317	 -2.486331	 -1.800950
H	 -2.677417	 -2.259994	 -0.867810
H	 -3.053090	 -1.169916	 -2.189493
C	 4.728119	 -1.109107	 -0.004993
H	 4.882018	 -1.033965	 -1.071845
H	 5.068212	 -2.067527	 0.355250
H	 5.265056	 -0.311663	 0.488280

	symmetry c1
}
set optking {
	frozen_dihedral = ("
		21 17 14 11
	")
}

ee = optimize('scf')
oeprop('DIPOLE', 'QUADRUPOLE', 'MULLIKEN_CHARGES')
f=open( 'psi4out.xyz', 'w' )
f.write( "29  " )
f.write( str(ee) + "\n" )
f.write( MOL.save_string_xyz() )
f.close()
--------------------------------------------------------------------------

    Molecular point group: c1
  Charge       = 0
  Multiplicity = 1
  Basis Set: 6-31G*
  Basis Set:
  @DF-RHF Final Energy:  -501.02956308409955
    Total Energy =                       -501.0295630840994363
    Molecular point group: c1
  Basis Set: 6-31G*
  Basis Set:
  Basis Set: 6-31G*
  Basis Set:
  @DF-RHF Final Energy:  -501.02949891641674
    Total Energy =                       -501.0294989164169692
  Basis Set: 6-31G*
  Basis Set:
  Basis Set: 6-31G*
  Basis Set:
  @DF-RHF Final Energy:  -501.03347457816483
    Total Energy =                       -501.0334745781655101
  Basis Set: 6-31G*
  Basis Set:
  Basis Set: 6-31G*
  Basis Set:
  @DF-RHF Final Energy:  -501.03407232922439
    Total Energy =                       -501.0340723292247276
  Basis Set: 6-31G*
  Basis Set:
  @DF-RHF Final Energy:  -501.03413553231974
    Total Energy =                       -501.0341355323191692
  @DF-RHF Final Energy:  -501.03398077166503
    Total Energy =                       -501.0339807716653695
  Basis Set: 6-31G*
  Basis Set:
  @DF-RHF Final Energy:  -501.03415803761447
    Total Energy =                       -501.0341580376141337
  Basis Set: 6-31G*
  Basis Set:
  Basis Set: 6-31G*
  Basis Set:
  @DF-RHF Final Energy:  -501.03412604860455
    Total Energy =                       -501.0341260486046622
  Basis Set: 6-31G*
  Basis Set:
  Basis Set: 6-31G*
  Basis Set:
  @DF-RHF Final Energy:  -501.03416359696325
    Total Energy =                       -501.0341635969623439
  Basis Set: 6-31G*
  Basis Set:
  Charge       = 0
  Multiplicity = 1
  Basis Set: 6-31G*
  Basis Set:

    Orbital Energies (a.u.)
    -----------------------

    Doubly Occupied:

       1A    -20.603321     2A    -20.545142     3A    -11.371946
       4A    -11.280618     5A    -11.234672     6A    -11.218946
       7A    -11.217366     8A    -11.216444     9A    -11.215560
      10A    -11.214863    11A    -11.209205    12A     -1.469013
      13A     -1.362455    14A     -1.096883    15A     -1.063069
      16A     -1.017187    17A     -0.975642    18A     -0.927937
      19A     -0.873598    20A     -0.804649    21A     -0.773456
      22A     -0.763056    23A     -0.700473    24A     -0.682202
      25A     -0.672103    26A     -0.648505    27A     -0.627978
      28A     -0.601866    29A     -0.598794    30A     -0.588781
      31A     -0.556919    32A     -0.548691    33A     -0.541799
      34A     -0.524550    35A     -0.521519    36A     -0.506491
      37A     -0.502751    38A     -0.477158    39A     -0.473028
      40A     -0.456992    41A     -0.454074    42A     -0.445799
      43A     -0.442617    44A     -0.435729

  @DF-RHF Final Energy:  -501.03416346974302

   => Energetics <=

    Nuclear Repulsion Energy =            617.7707925363109780
    One-Electron Energy =               -1906.6822276165073617
    Two-Electron Energy =                 787.8772716104540450
    DFT Exchange-Correlation Energy =       0.0000000000000000
    Empirical Dispersion Energy =           0.0000000000000000
    PCM Polarization Energy =               0.0000000000000000
    EFP Energy =                            0.0000000000000000
    Total Energy =                       -501.0341634697424524
    Molecular point group: c1
  Basis Set: 6-31G*
  Basis Set:

  -Total Gradient:
     Atom            X                  Y                   Z
    ------   -----------------  -----------------  -----------------
       1       -0.000003688622    -0.000010363540    -0.000032833952
       2        0.000018678116     0.000037100731     0.000078209907
       3       -0.000006707248    -0.000016077446    -0.000021891159
       4       -0.000008959910    -0.000012454016    -0.000022744068
       5       -0.000000986659     0.000009718768     0.000016138167
       6       -0.000003057749    -0.000003527694     0.000002945986
       7        0.000006478699     0.000000379597    -0.000000650389
       8       -0.000006139792    -0.000008830537    -0.000027410674
       9       -0.000004623200    -0.000003181717    -0.000002431177
      10       -0.000004531574     0.000002621863    -0.000002462685
      11       -0.000131148780     0.000507796655    -0.000608256267
      12       -0.000004414496     0.000004431928     0.000003496353
      13        0.000012346804    -0.000011067316    -0.000006982527
      14        0.000041283465    -0.000558379071     0.000934190699
      15        0.000021350350     0.000017117067     0.000024018420
      16       -0.000001268817    -0.000009543326    -0.000003955240
      17        0.000913737275    -0.000664164192    -0.000379545575
      18       -0.000010905687     0.000001534943     0.000003198292
      19        0.000002909507     0.000002344607    -0.000002755875
      20       -0.000014191787     0.000001369099    -0.000022798626
      21       -0.000814613260     0.000730108898     0.000059809834
      22        0.000006002138     0.000004895462     0.000000168681
      23        0.000002436052    -0.000009766977     0.000011198871
      24        0.000020790666     0.000009101081     0.000005051967
      25       -0.000028825682    -0.000022442024    -0.000002258110
      26       -0.000000646448     0.000001880950    -0.000000857050
      27        0.000000760625    -0.000000253905    -0.000000260172
      28       -0.000001305435    -0.000000283840    -0.000000272532
      29       -0.000000758561    -0.000000066048    -0.000000061100

  **** Optimization is complete! (in 10 steps) ****
    Final optimized geometry and variables:
    Molecular point group: c1

    Geometry (in Angstrom), charge = 0, multiplicity = 1:

    O            3.049656188037     1.107352534102    -0.426428012743
    C            2.530296022866     0.182276824821     0.109827482969
    C            1.070847370215     0.087165106982     0.483673259485
    O            3.187157477028    -0.917273010475     0.457941253699
    C            0.268810358951     1.325733445931     0.090165600124
    H            0.681828195531    -0.813575998498     0.020538164335
    H            1.022661334544    -0.085702872899     1.555826058310
    C           -1.190592711387     1.290536451515     0.556586423855
    H            0.307724010061     1.450542701240    -0.987808774030
    H            0.754618718837     2.199838663990     0.510141424147
    C           -2.053123866253     0.211766240765    -0.106099033539
    H           -1.632220335355     2.263395892524     0.353329019825
    H           -1.222347210945     1.165482691577     1.637980363602
    C           -3.521001475994     0.312071029486     0.324773064119
    H           -1.973458286311     0.312042917934    -1.185714578317
    H           -1.665993809160    -0.772399371678     0.141675990461
    C           -4.510254946931    -0.728646270605    -0.272635779969
    H           -3.871993853443     1.310506763293     0.077378636162
    H           -3.559668494241     0.251165773375     1.409238108439
    C           -3.953903511846    -1.716481501314    -1.302063888272
    H           -4.956477909600    -1.296799576224     0.538449207017
    H           -5.335935810992    -0.195548797958    -0.735126239555
    H           -4.744142508730    -2.380721780087    -1.638529040131
    H           -3.163588086202    -2.335008988732    -0.889944809543
    H           -3.559131624698    -1.211971509120    -2.177795315752
    C            4.571708149641    -0.958689418174     0.164377925467
    H            4.737465426148    -0.869953082408    -0.899654274304
    H            4.919949601799    -1.916478803176     0.518445137581
    H            5.092153443537    -0.159763463768     0.672700865203

  Mulliken Charges: (a.u.)
   Center  Symbol    Alpha    Beta     Spin     Total
       1     O     4.28598  4.28598  0.00000 -0.57195
       2     C     2.60479  2.60479  0.00000  0.79042
       3     C     3.20972  3.20972  0.00000 -0.41943
       4     O     4.30748  4.30748  0.00000 -0.61496
       5     C     3.15352  3.15352  0.00000 -0.30703
       6     H     0.39891  0.39891  0.00000  0.20217
       7     H     0.40129  0.40129  0.00000  0.19742
       8     C     3.15676  3.15676  0.00000 -0.31353
       9     H     0.41320  0.41320  0.00000  0.17360
      10     H     0.40877  0.40877  0.00000  0.18247
      11     C     3.15709  3.15709  0.00000 -0.31418
      12     H     0.41840  0.41840  0.00000  0.16319
      13     H     0.42400  0.42400  0.00000  0.15200
      14     C     3.15619  3.15619  0.00000 -0.31238
      15     H     0.42121  0.42121  0.00000  0.15758
      16     H     0.42244  0.42244  0.00000  0.15511
      17     C     3.15563  3.15563  0.00000 -0.31125
      18     H     0.42099  0.42099  0.00000  0.15802
      19     H     0.42123  0.42123  0.00000  0.15754
      20     C     3.24172  3.24172  0.00000 -0.48345
      21     H     0.42054  0.42054  0.00000  0.15892
      22     H     0.42011  0.42011  0.00000  0.15978
      23     H     0.41902  0.41902  0.00000  0.16197
      24     H     0.42128  0.42128  0.00000  0.15744
      25     H     0.42059  0.42059  0.00000  0.15882
      26     C     3.09240  3.09240  0.00000 -0.18481
      27     H     0.40908  0.40908  0.00000  0.18184
      28     H     0.40852  0.40852  0.00000  0.18295
      29     H     0.40913  0.40913  0.00000  0.18173

   Total alpha = 44.00000, Total beta = 44.00000, Total charge =  0.00000
