                              Psi4 1.0.54 Driver

  ==> Input File <==

--------------------------------------------------------------------------
set {
	reference rhf
	basis cc-pvtz
}

set_num_threads( 4 )
memory 2 gb

molecule MOL {
0 1

H	 -3.401682	 -1.036167	 0.000000
O	 -3.113760	 -0.140926	 0.000000
C	 -1.775087	 -0.058754	 0.000000
C	 -0.970672	 -1.117645	 -0.402619
C	 -1.206936	 1.132433	 0.420073
H	 -1.418843	 -2.038630	 -0.727206
C	 0.396939	 -0.979973	 -0.383102
H	 -1.845285	 1.936589	 0.726446
C	 0.164207	 1.254114	 0.433701
H	 1.028516	 -1.789454	 -0.691259
C	 0.981501	 0.207366	 0.035207
H	 0.606061	 2.177800	 0.759411
C	 2.448032	 0.361037	 0.058330
O	 3.224586	 -0.475575	 -0.262916
H	 2.800918	 1.338170	 0.405440

	symmetry c1
}
set optking {
	frozen_dihedral = ("
		5 3 2 1
	")
}

ee,wfn = optimize('scf', return_wfn=True)
oeprop( wfn, 'DIPOLE', 'QUADRUPOLE', 'MULLIKEN_CHARGES')
f=open( 'psi4out.xyz', 'w' )
f.write( "15  " )
f.write( str(ee) + "\n" )
f.write( MOL.save_string_xyz() )
f.close()
--------------------------------------------------------------------------

    Molecular point group: c1
  Charge       = 0
  Multiplicity = 1
  Basis Set: CC-PVTZ
  Basis Set:
  @DF-RHF Final Energy:  -418.44189167834230
    Total Energy =                       -418.4418916783421309
    Molecular point group: c1
  Basis Set: CC-PVTZ
  Basis Set:
  Basis Set: CC-PVTZ
  Basis Set:
  @DF-RHF Final Energy:  -418.44190905199019
    Total Energy =                       -418.4419090519903648
  Basis Set: CC-PVTZ
  Basis Set:
  Basis Set: CC-PVTZ
  Basis Set:
  @DF-RHF Final Energy:  -418.44191262579483
    Total Energy =                       -418.4419126257948847
  Basis Set: CC-PVTZ
  Basis Set:
  Basis Set: CC-PVTZ
  Basis Set:
  @DF-RHF Final Energy:  -418.44191128179239
    Total Energy =                       -418.4419112817924997
  Basis Set: CC-PVTZ
  Basis Set:
  Basis Set: CC-PVTZ
  Basis Set:
  @DF-RHF Final Energy:  -418.44191263222336
    Total Energy =                       -418.4419126322234206
  Basis Set: CC-PVTZ
  Basis Set:
  Charge       = 0
  Multiplicity = 1
  Basis Set: CC-PVTZ
  Basis Set:

    Orbital Energies (a.u.)
    -----------------------

    Doubly Occupied:

       1A    -20.602776     2A    -20.546129     3A    -11.323136
       4A    -11.321467     5A    -11.258265     6A    -11.254427
       7A    -11.242308     8A    -11.237564     9A    -11.236962
      10A     -1.435519    11A     -1.402380    12A     -1.175347
      13A     -1.044937    14A     -1.042346    15A     -0.891717
      16A     -0.870136    17A     -0.797659    18A     -0.761974
      19A     -0.717456    20A     -0.670656    21A     -0.647897
      22A     -0.631666    23A     -0.618848    24A     -0.610506
      25A     -0.580606    26A     -0.561754    27A     -0.555440
      28A     -0.508642    29A     -0.490252    30A     -0.422017
      31A     -0.362293    32A     -0.333058

  @DF-RHF Final Energy:  -418.44191304017312

   => Energetics <=

    Nuclear Repulsion Energy =            402.2417048921682294
    One-Electron Energy =               -1367.0549561605234885
    Two-Electron Energy =                 546.3713382281822533
    DFT Exchange-Correlation Energy =       0.0000000000000000
    Empirical Dispersion Energy =           0.0000000000000000
    PCM Polarization Energy =               0.0000000000000000
    EFP Energy =                            0.0000000000000000
    Total Energy =                       -418.4419130401730627
    Molecular point group: c1
  Basis Set: CC-PVTZ
  Basis Set:

  -Total Gradient:
     Atom            X                  Y                   Z
    ------   -----------------  -----------------  -----------------
       1       -0.000018188022    -0.000007411994     0.002454464176
       2       -0.000002407181    -0.000277911567    -0.002285837082
       3        0.000018133921     0.000868646038    -0.001821599181
       4       -0.000036221951     0.000012479436    -0.000002546472
       5        0.000029457449    -0.000595204501     0.001652035693
       6        0.000001307281    -0.000002263115     0.000000557197
       7        0.000032040906     0.000019166346     0.000009887378
       8       -0.000000633657    -0.000000375475    -0.000000947565
       9       -0.000014666077     0.000014398566     0.000005168844
      10       -0.000003088010     0.000000194919    -0.000001352066
      11       -0.000015212196    -0.000033665534    -0.000008850904
      12        0.000001303089    -0.000002630685    -0.000001789029
      13        0.000018636831    -0.000003809635    -0.000003750058
      14       -0.000009172306     0.000008135749     0.000004509503
      15       -0.000001290070     0.000000251453     0.000000049566

  **** Optimization is complete! (in 6 steps) ****
    Final optimized geometry and variables:
    Molecular point group: c1

    Geometry (in Angstrom), charge = 0, multiplicity = 1:

    H           -3.402266115220    -1.035651263118    -0.006517740808
    O           -3.115655858749    -0.139805803174    -0.002219558909
    C           -1.774567371871    -0.057297965896     0.008338698811
    C           -0.970595856922    -1.118612321055    -0.390282062006
    C           -1.206480067861     1.130247047857     0.434505557548
    H           -1.421160224049    -2.035436185478    -0.722713205969
    C            0.396756642346    -0.984487615954    -0.364316261400
    H           -1.844010341917     1.933612151408     0.744809477275
    C            0.165862954122     1.252245337926     0.447104387017
    H            1.028265083297    -1.795211992103    -0.669476833218
    C            0.981570926196     0.203964593314     0.052802951840
    H            0.608137954181     2.174696351679     0.775793766225
    C            2.448892998593     0.355898481997     0.080716169320
    O            3.225066123015    -0.483164495977    -0.233961519673
    H            2.801191697768     1.334346980264     0.425087272173

  Mulliken Charges: (a.u.)
   Center  Symbol    Alpha    Beta     Spin     Total
       1     H     0.38446  0.38446  0.00000  0.23108
       2     O     4.16921  4.16921  0.00000 -0.33842
       3     C     2.84810  2.84810  0.00000  0.30380
       4     C     3.13002  3.13002  0.00000 -0.26004
       5     C     3.10843  3.10843  0.00000 -0.21686
       6     H     0.42863  0.42863  0.00000  0.14274
       7     C     3.06702  3.06702  0.00000 -0.13404
       8     H     0.41605  0.41605  0.00000  0.16790
       9     C     3.06685  3.06685  0.00000 -0.13370
      10     H     0.40710  0.40710  0.00000  0.18579
      11     C     3.00298  3.00298  0.00000 -0.00596
      12     H     0.42132  0.42132  0.00000  0.15737
      13     C     2.91076  2.91076  0.00000  0.17848
      14     O     4.17865  4.17865  0.00000 -0.35730
      15     H     0.46041  0.46041  0.00000  0.07917

   Total alpha = 32.00000, Total beta = 32.00000, Total charge =  0.00000

*** Psi4 exiting successfully. Buy a developer a beer!
