                              Psi4 1.0.54 Driver

  ==> Input File <==

--------------------------------------------------------------------------
set {
	reference rhf
	basis cc-pvtz
}

set_num_threads( 4 )
memory 2 gb

molecule MOL {
0 1

O	 -2.081319	 -0.951530	 -0.502732
N	 -1.613558	 0.006676	 0.014756
C	 -0.329345	 -0.171618	 0.743966
O	 -2.068523	 1.100482	 -0.024385
C	 0.835904	 0.041968	 -0.213982
H	 -0.346048	 -1.174374	 1.137184
H	 -0.333613	 0.555559	 1.538590
C	 1.860706	 -1.083920	 -0.102977
H	 0.453531	 0.096697	 -1.226580
H	 1.304908	 0.993284	 0.009110
C	 3.042136	 -0.890552	 -1.047070
H	 1.378593	 -2.033254	 -0.316914
H	 2.221332	 -1.144223	 0.919627
H	 2.715530	 -0.860066	 -2.080557
H	 3.563135	 0.036719	 -0.836249
H	 3.753756	 -1.701034	 -0.947685

	symmetry c1
}
set optking {
	frozen_dihedral = ("
		9 5 3 2
	")
}

ee,wfn = optimize('scf', return_wfn=True)
oeprop( wfn, 'DIPOLE', 'QUADRUPOLE', 'MULLIKEN_CHARGES')
f=open( 'psi4out.xyz', 'w' )
f.write( "16  " )
f.write( str(ee) + "\n" )
f.write( MOL.save_string_xyz() )
f.close()
--------------------------------------------------------------------------

    Molecular point group: c1
  Charge       = 0
  Multiplicity = 1
  Basis Set: CC-PVTZ
  Basis Set:
  @DF-RHF Final Energy:  -360.90438122754296
    Total Energy =                       -360.9043812275431264
    Molecular point group: c1
  Basis Set: CC-PVTZ
  Basis Set:
  Basis Set: CC-PVTZ
  Basis Set:
  @DF-RHF Final Energy:  -360.90179849091203
    Total Energy =                       -360.9017984909117445
  Basis Set: CC-PVTZ
  Basis Set:
  Basis Set: CC-PVTZ
  Basis Set:
  @DF-RHF Final Energy:  -360.90012130911413
    Total Energy =                       -360.9001213091140698
  Basis Set: CC-PVTZ
  Basis Set:
  Basis Set: CC-PVTZ
  Basis Set:
  @DF-RHF Final Energy:  -360.90456227192880
    Total Energy =                       -360.9045622719289099
  Basis Set: CC-PVTZ
  Basis Set:
  Basis Set: CC-PVTZ
  Basis Set:
  @DF-RHF Final Energy:  -360.90463434157044
    Total Energy =                       -360.9046343415706133
  Basis Set: CC-PVTZ
  Basis Set:
  Basis Set: CC-PVTZ
  Basis Set:
  @DF-RHF Final Energy:  -360.90478798907367
    Total Energy =                       -360.9047879890735544
  Basis Set: CC-PVTZ
  Basis Set:
  Basis Set: CC-PVTZ
  Basis Set:
  @DF-RHF Final Energy:  -360.90479360685856
    Total Energy =                       -360.9047936068584477
  Basis Set: CC-PVTZ
  Basis Set:
  Charge       = 0
  Multiplicity = 1
  Basis Set: CC-PVTZ
  Basis Set:

    Orbital Energies (a.u.)
    -----------------------

    Doubly Occupied:

       1A    -20.590219     2A    -20.589081     3A    -15.836194
       4A    -11.296402     5A    -11.251754     6A    -11.239566
       7A    -11.224504     8A     -1.635268     9A     -1.419444
      10A     -1.134106    11A     -1.059480    12A     -0.948175
      13A     -0.845028    14A     -0.828586    15A     -0.760501
      16A     -0.736688    17A     -0.727922    18A     -0.665988
      19A     -0.625301    20A     -0.605761    21A     -0.563102
      22A     -0.549166    23A     -0.512099    24A     -0.502662
      25A     -0.495478    26A     -0.482486    27A     -0.470764
      28A     -0.453165

  @DF-RHF Final Energy:  -360.90479453975507

   => Energetics <=

    Nuclear Repulsion Energy =            313.9519375541826207
    One-Electron Energy =               -1113.6156854636794833
    Two-Electron Energy =                 438.7589533697413913
    DFT Exchange-Correlation Energy =       0.0000000000000000
    Empirical Dispersion Energy =           0.0000000000000000
    PCM Polarization Energy =               0.0000000000000000
    EFP Energy =                            0.0000000000000000
    Total Energy =                       -360.9047945397554145
    Molecular point group: c1
  Basis Set: CC-PVTZ
  Basis Set:

  -Total Gradient:
     Atom            X                  Y                   Z
    ------   -----------------  -----------------  -----------------
       1       -0.000035569241     0.000087359471    -0.000017222230
       2       -0.000049695733    -0.001873250553    -0.000319777276
       3        0.000114993164     0.002833749445     0.000622052955
       4       -0.000037585138     0.000051961879    -0.000072639890
       5        0.000143618617    -0.003522136569    -0.000406101152
       6        0.000014112648    -0.000000219649    -0.000007074691
       7        0.000004840246     0.000011675376     0.000013614161
       8       -0.000023898437    -0.000012191782     0.000001583095
       9       -0.000124284305     0.002417265195     0.000209294938
      10       -0.000008483386     0.000001575360    -0.000023965679
      11        0.000001368380     0.000020955700     0.000006902587
      12       -0.000001419831    -0.000013496257    -0.000009429103
      13       -0.000006864257    -0.000007956175     0.000005598287
      14       -0.000000392216    -0.000001370823    -0.000004027934
      15        0.000006722687     0.000011278646    -0.000005965368
      16        0.000002536802    -0.000005199267     0.000007157302

  **** Optimization is complete! (in 8 steps) ****
    Final optimized geometry and variables:
    Molecular point group: c1

    Geometry (in Angstrom), charge = 0, multiplicity = 1:

    O           -2.023906971504    -0.577274334235    -0.340853309667
    N           -1.521786204619     0.346204437250     0.207629564094
    C           -0.236641017481     0.099507077922     0.912588941791
    O           -1.942564194920     1.454194687883     0.212108169175
    C            0.938016173642     0.248352037547    -0.069713510644
    H           -0.310812534775    -0.904773620924     1.294146524474
    H           -0.194814697113     0.809813193208     1.719410745678
    C            1.933487313298    -0.903511051783     0.030123715702
    H            0.555705826027     0.323681594067    -1.080259463788
    H            1.440427125827     1.187215250458     0.128477280658
    C            3.126657273121    -0.727103279518    -0.901373642167
    H            1.423402679630    -1.833212793742    -0.200822159031
    H            2.283872591134    -0.988932322970     1.055189563590
    H            2.808291599061    -0.668602607807    -1.936356727336
    H            3.673892398683     0.180508176136    -0.670974065179
    H            3.813612847741    -1.559798363803    -0.812560526252

  Mulliken Charges: (a.u.)
   Center  Symbol    Alpha    Beta     Spin     Total
       1     O     4.17447  4.17447  0.00000 -0.34894
       2     N     3.27865  3.27865  0.00000  0.44271
       3     C     3.04181  3.04181  0.00000 -0.08362
       4     O     4.17194  4.17194  0.00000 -0.34388
       5     C     3.09472  3.09472  0.00000 -0.18943
       6     H     0.43592  0.43592  0.00000  0.12816
       7     H     0.43123  0.43123  0.00000  0.13753
       8     C     3.09205  3.09205  0.00000 -0.18410
       9     H     0.43951  0.43951  0.00000  0.12097
      10     H     0.44311  0.44311  0.00000  0.11378
      11     C     3.14977  3.14977  0.00000 -0.29954
      12     H     0.44589  0.44589  0.00000  0.10821
      13     H     0.45121  0.45121  0.00000  0.09757
      14     H     0.45113  0.45113  0.00000  0.09773
      15     H     0.45344  0.45344  0.00000  0.09312
      16     H     0.44514  0.44514  0.00000  0.10973

   Total alpha = 28.00000, Total beta = 28.00000, Total charge =  0.00000

*** Psi4 exiting successfully. Buy a developer a beer!
