                              Psi4 1.0.54 Driver

  ==> Input File <==

--------------------------------------------------------------------------
set {
	reference rhf
	basis cc-pvtz
}

set_num_threads( 4 )
memory 2 gb

molecule MOL {
0 1

O	 -2.193273	 0.443559	 -1.886369
C	 -2.335278	 -0.324129	 -0.995911
C	 -3.503159	 -1.266328	 -0.883670
O	 -1.481217	 -0.452708	 0.001092
H	 -3.530489	 -1.887456	 -1.768844
H	 -3.439697	 -1.883646	 -0.001894
H	 -4.414221	 -0.683588	 -0.862353
C	 -0.332055	 0.384012	 -0.000250
C	 0.892252	 -0.506059	 -0.000295
H	 -0.360822	 1.020205	 -0.874146
H	 -0.359817	 1.021310	 0.872861
C	 2.188199	 0.299473	 -0.001416
H	 0.857046	 -1.152781	 -0.871031
H	 0.857910	 -1.151798	 0.871202
C	 3.437151	 -0.577593	 -0.000991
H	 2.209565	 0.950707	 -0.871712
H	 2.210062	 0.952234	 0.867721
C	 4.732399	 0.226982	 -0.000914
H	 3.417321	 -1.229122	 -0.869998
H	 3.416993	 -1.228707	 0.868337
H	 4.797903	 0.863451	 -0.876963
H	 5.598517	 -0.424436	 -0.000420
H	 4.797415	 0.864118	 0.874691

	symmetry c1
}
set optking {
	frozen_dihedral = ("
		2 4 8 10
	")
}

ee,wfn = optimize('scf', return_wfn=True)
oeprop( wfn, 'DIPOLE', 'QUADRUPOLE', 'MULLIKEN_CHARGES')
f=open( 'psi4out.xyz', 'w' )
f.write( "23  " )
f.write( str(ee) + "\n" )
f.write( MOL.save_string_xyz() )
f.close()
--------------------------------------------------------------------------

    Molecular point group: c1
  Charge       = 0
  Multiplicity = 1
  Basis Set: CC-PVTZ
  Basis Set:
  @DF-RHF Final Energy:  -423.13196199855298
    Total Energy =                       -423.1319619985526970
    Molecular point group: c1
  Basis Set: CC-PVTZ
  Basis Set:
  Basis Set: CC-PVTZ
  Basis Set:
  @DF-RHF Final Energy:  -423.13232304639877
    Total Energy =                       -423.1323230463985965
  Basis Set: CC-PVTZ
  Basis Set:
  Basis Set: CC-PVTZ
  Basis Set:
  @DF-RHF Final Energy:  -423.13262508575610
    Total Energy =                       -423.1326250857557625
  Basis Set: CC-PVTZ
  Basis Set:
  Basis Set: CC-PVTZ
  Basis Set:
  @DF-RHF Final Energy:  -423.13276759458222
    Total Energy =                       -423.1327675945821056
  Basis Set: CC-PVTZ
  Basis Set:
  Basis Set: CC-PVTZ
  Basis Set:
  @DF-RHF Final Energy:  -423.13284879639559
    Total Energy =                       -423.1328487963957059
  Basis Set: CC-PVTZ
  Basis Set:
  Charge       = 0
  Multiplicity = 1
  Basis Set: CC-PVTZ
  Basis Set:

    Orbital Energies (a.u.)
    -----------------------

    Doubly Occupied:

       1A    -20.594867     2A    -20.528841     3A    -11.367899
       4A    -11.277890     5A    -11.230065     6A    -11.221850
       7A    -11.220936     8A    -11.219050     9A    -11.210540
      10A     -1.468520    11A     -1.364507    12A     -1.094479
      13A     -1.042796    14A     -1.003602    15A     -0.932380
      16A     -0.847071    17A     -0.800896    18A     -0.773502
      19A     -0.699962    20A     -0.682939    21A     -0.662869
      22A     -0.650026    23A     -0.606766    24A     -0.588593
      25A     -0.586461    26A     -0.572979    27A     -0.552348
      28A     -0.540198    29A     -0.523600    30A     -0.508719
      31A     -0.489653    32A     -0.479437    33A     -0.474278
      34A     -0.470714    35A     -0.444357    36A     -0.437756

  @DF-RHF Final Energy:  -423.13286209397717

   => Energetics <=

    Nuclear Repulsion Energy =            452.2234371606500076
    One-Electron Energy =               -1472.3699030640209457
    Two-Electron Energy =                 597.0136038093933166
    DFT Exchange-Correlation Energy =       0.0000000000000000
    Empirical Dispersion Energy =           0.0000000000000000
    PCM Polarization Energy =               0.0000000000000000
    EFP Energy =                            0.0000000000000000
    Total Energy =                       -423.1328620939775647
    Molecular point group: c1
  Basis Set: CC-PVTZ
  Basis Set:

  -Total Gradient:
     Atom            X                  Y                   Z
    ------   -----------------  -----------------  -----------------
       1       -0.000017911141     0.000050314139    -0.000063407174
       2        0.000047111156     0.000022627017     0.000240012556
       3       -0.000022883525     0.000017934710    -0.000025328156
       4       -0.000006183496    -0.000148994519    -0.000163794080
       5        0.000009043150     0.000006314751     0.000016130847
       6        0.000000852755     0.000001967916    -0.000003678294
       7        0.000021608368    -0.000008091673    -0.000007244977
       8       -0.000144826897     0.000124887090     0.000079954739
       9       -0.000005523002     0.000014946314     0.000014608376
      10        0.000064478588    -0.000058207459    -0.000080006046
      11       -0.000006930334    -0.000015301579    -0.000025409405
      12        0.000010206496    -0.000026417221    -0.000002762030
      13       -0.000007123463     0.000013739526     0.000014217014
      14        0.000011104873    -0.000007311347    -0.000000438052
      15        0.000020771367     0.000021063017     0.000004518277
      16       -0.000005043792    -0.000003214277     0.000002085990
      17        0.000011925949    -0.000003432921    -0.000003669782
      18        0.000016951488    -0.000013159366     0.000006371160
      19       -0.000006399667     0.000004745446    -0.000001252982
      20        0.000000530813     0.000001919309    -0.000001359958
      21       -0.000002207159    -0.000002031464    -0.000000795821
      22        0.000009339208     0.000004317618     0.000000563979
      23        0.000001108270     0.000001384971     0.000000683819

  **** Optimization is complete! (in 6 steps) ****
    Final optimized geometry and variables:
    Molecular point group: c1

    Geometry (in Angstrom), charge = 0, multiplicity = 1:

    O           -2.430809499668     0.650470337058    -1.464391597686
    C           -2.517273281335    -0.106023228295    -0.557562979038
    C           -3.684760274450    -1.036561200146    -0.365448076917
    O           -1.613583409783    -0.236190932708     0.396068149849
    H           -3.771101475697    -1.664279348145    -1.242178723197
    H           -3.573933907562    -1.646836707997     0.516441343790
    H           -4.587166310074    -0.444181891551    -0.294932612029
    C           -0.438514716826     0.566564792648     0.378812530552
    C            0.785696494366    -0.327777510376     0.367586387308
    H           -0.459826236869     1.216200500896    -0.479968427477
    H           -0.465932580574     1.172096533640     1.275223797434
    C            2.082969370685     0.473718981398     0.424185641103
    H            0.765968783941    -0.935794339012    -0.531594958408
    H            0.733308342118    -1.009813189869     1.210138184229
    C            3.330890896093    -0.404675820797     0.409377089728
    H            2.120169981278     1.161657018040    -0.416786238440
    H            2.090119960619     1.088259110759     1.321356958235
    C            4.626666043403     0.396990821037     0.467472171075
    H            3.326122954841    -1.017718563874    -0.487388429252
    H            3.294490062450    -1.092834387831     1.249243669955
    H            4.708274008635     1.070805839287    -0.378815861859
    H            5.491993531117    -0.255434613611     0.454914414196
    H            4.676853724922     0.995330261192     1.371106046476

  Mulliken Charges: (a.u.)
   Center  Symbol    Alpha    Beta     Spin     Total
       1     O     4.20351  4.20351  0.00000 -0.40701
       2     C     2.80703  2.80703  0.00000  0.38593
       3     C     3.14283  3.14283  0.00000 -0.28566
       4     O     4.15333  4.15333  0.00000 -0.30666
       5     H     0.44254  0.44254  0.00000  0.11493
       6     H     0.44210  0.44210  0.00000  0.11580
       7     H     0.44218  0.44218  0.00000  0.11564
       8     C     2.98668  2.98668  0.00000  0.02664
       9     C     3.08593  3.08593  0.00000 -0.17186
      10     H     0.44091  0.44091  0.00000  0.11819
      11     H     0.44972  0.44972  0.00000  0.10055
      12     C     3.09862  3.09862  0.00000 -0.19724
      13     H     0.45120  0.45120  0.00000  0.09760
      14     H     0.45028  0.45028  0.00000  0.09944
      15     C     3.08460  3.08460  0.00000 -0.16920
      16     H     0.45099  0.45099  0.00000  0.09803
      17     H     0.45420  0.45420  0.00000  0.09159
      18     C     3.14984  3.14984  0.00000 -0.29968
      19     H     0.45291  0.45291  0.00000  0.09419
      20     H     0.45373  0.45373  0.00000  0.09255
      21     H     0.45420  0.45420  0.00000  0.09160
      22     H     0.44766  0.44766  0.00000  0.10468
      23     H     0.45502  0.45502  0.00000  0.08996

   Total alpha = 36.00000, Total beta = 36.00000, Total charge =  0.00000

*** Psi4 exiting successfully. Buy a developer a beer!
