                              Psi4 1.0.54 Driver

  ==> Input File <==

--------------------------------------------------------------------------
set {
	reference rhf
	basis cc-pvtz
}

set_num_threads( 4 )
memory 2 gb

molecule MOL {
0 1

H	 2.614283	 2.028610	 0.296620
O	 3.358864	 1.662087	 -0.142800
C	 3.565468	 0.338079	 0.273842
C	 2.533667	 -0.637565	 -0.272227
H	 4.548038	 0.064914	 -0.086598
H	 3.593945	 0.282242	 1.360360
C	 1.114816	 -0.402372	 0.240993
H	 2.544552	 -0.580764	 -1.356576
H	 2.850574	 -1.642962	 -0.005497
C	 0.903943	 -0.931033	 1.659051
H	 0.407267	 -0.877148	 -0.430546
H	 0.897132	 0.664183	 0.221995
C	 -0.479216	 -0.656492	 2.252138
H	 1.094218	 -2.001469	 1.672858
H	 1.650926	 -0.483393	 2.308745
C	 -1.631738	 -1.395102	 1.573986
H	 -0.461132	 -0.934729	 3.302273
H	 -0.673850	 0.413401	 2.227613
C	 -2.974927	 -1.166846	 2.262574
H	 -1.414321	 -2.460926	 1.559255
H	 -1.713797	 -1.086973	 0.536044
C	 -4.128444	 -1.899857	 1.585826
H	 -2.905261	 -1.485013	 3.299152
H	 -3.189648	 -0.101752	 2.285660
H	 -3.958791	 -2.971466	 1.575423
H	 -5.065156	 -1.718812	 2.100511
H	 -4.248816	 -1.575975	 0.557253

	symmetry c1
}
set optking {
	frozen_dihedral = ("
		10 7 4 8
	")
}

ee,wfn = optimize('scf', return_wfn=True)
oeprop( wfn, 'DIPOLE', 'QUADRUPOLE', 'MULLIKEN_CHARGES')
f=open( 'psi4out.xyz', 'w' )
f.write( "27  " )
f.write( str(ee) + "\n" )
f.write( MOL.save_string_xyz() )
f.close()
--------------------------------------------------------------------------

    Molecular point group: c1
  Charge       = 0
  Multiplicity = 1
  Basis Set: CC-PVTZ
  Basis Set:
  @DF-RHF Final Energy:  -388.42506904125116
    Total Energy =                       -388.4250690412513904
    Molecular point group: c1
  Basis Set: CC-PVTZ
  Basis Set:
  Basis Set: CC-PVTZ
  Basis Set:
  @DF-RHF Final Energy:  -388.42539879655374
    Total Energy =                       -388.4253987965533952
  Basis Set: CC-PVTZ
  Basis Set:
  Basis Set: CC-PVTZ
  Basis Set:
  @DF-RHF Final Energy:  -388.42545575116327
    Total Energy =                       -388.4254557511626444
  Basis Set: CC-PVTZ
  Basis Set:
  Basis Set: CC-PVTZ
  Basis Set:
  @DF-RHF Final Energy:  -388.42545950093870
    Total Energy =                       -388.4254595009385866
  Basis Set: CC-PVTZ
  Basis Set:
  Basis Set: CC-PVTZ
  Basis Set:
  @DF-RHF Final Energy:  -388.42545949840974
    Total Energy =                       -388.4254594984097366
  Basis Set: CC-PVTZ
  Basis Set:
  Basis Set: CC-PVTZ
  Basis Set:
  @DF-RHF Final Energy:  -388.42546211323503
    Total Energy =                       -388.4254621132353122
  Basis Set: CC-PVTZ
  Basis Set:
  Charge       = 0
  Multiplicity = 1
  Basis Set: CC-PVTZ
  Basis Set:

    Orbital Energies (a.u.)
    -----------------------

    Doubly Occupied:

       1A    -20.544955     2A    -11.264514     3A    -11.217091
       4A    -11.216009     5A    -11.214648     6A    -11.214341
       7A    -11.213534     8A    -11.212363     9A    -11.207553
      10A     -1.362850    11A     -1.096725    12A     -1.062157
      13A     -1.011804    14A     -0.948199    15A     -0.893026
      16A     -0.826042    17A     -0.799695    18A     -0.774865
      19A     -0.698308    20A     -0.647925    21A     -0.642286
      22A     -0.609809    23A     -0.607150    24A     -0.586789
      25A     -0.574444    26A     -0.563372    27A     -0.543258
      28A     -0.526281    29A     -0.511431    30A     -0.495296
      31A     -0.489332    32A     -0.472673    33A     -0.468888
      34A     -0.461354    35A     -0.450895    36A     -0.440903
      37A     -0.427101

  @DF-RHF Final Energy:  -388.42546214973697

   => Energetics <=

    Nuclear Repulsion Energy =            461.8190702433424804
    One-Electron Energy =               -1441.8933393463933044
    Two-Electron Energy =                 591.6488069533139651
    DFT Exchange-Correlation Energy =       0.0000000000000000
    Empirical Dispersion Energy =           0.0000000000000000
    PCM Polarization Energy =               0.0000000000000000
    EFP Energy =                            0.0000000000000000
    Total Energy =                       -388.4254621497368589
    Molecular point group: c1
  Basis Set: CC-PVTZ
  Basis Set:

  -Total Gradient:
     Atom            X                  Y                   Z
    ------   -----------------  -----------------  -----------------
       1        0.000000719005     0.000009754593     0.000004491926
       2       -0.000014891383     0.000008908843    -0.000012382588
       3        0.000010417684    -0.000015546918     0.000014039061
       4        0.000195222856     0.001583779083    -0.000089782701
       5        0.000000620685    -0.000007523558     0.000003563189
       6       -0.000000030658    -0.000000085022     0.000000423226
       7        0.000379803826     0.001144709007     0.000603352697
       8       -0.000268412366    -0.001634677559    -0.000077555332
       9        0.000004254232    -0.000000077997    -0.000001582733
      10       -0.000317082269    -0.001091339514    -0.000441349126
      11        0.000004696442     0.000000349752     0.000000070304
      12        0.000001537900    -0.000003179237    -0.000003463892
      13        0.000001267405     0.000003597379    -0.000002874189
      14        0.000002105806    -0.000001322185     0.000001918016
      15        0.000001420180     0.000000046412     0.000002172036
      16       -0.000000759006     0.000003739364    -0.000003150886
      17        0.000000843966    -0.000000450273    -0.000002018493
      18       -0.000001670894     0.000000816533     0.000000106613
      19        0.000000535375    -0.000001591928     0.000001349489
      20        0.000000304207     0.000001467960     0.000000184546
      21        0.000000001691     0.000000203246     0.000000947800
      22       -0.000000430116    -0.000000846929     0.000000952320
      23       -0.000000719109     0.000000734766     0.000001213210
      24        0.000000240759    -0.000000965757    -0.000001009456
      25       -0.000000277396    -0.000000310029    -0.000000006035
      26       -0.000000195172    -0.000000237086    -0.000000206234
      27        0.000000476344     0.000000047054     0.000000597229

  **** Optimization is complete! (in 7 steps) ****
    Final optimized geometry and variables:
    Molecular point group: c1

    Geometry (in Angstrom), charge = 0, multiplicity = 1:

    H            2.350102604616     2.562458647685    -0.773629389601
    O            3.092494255613     2.184310676466    -1.206355575520
    C            3.300173840230     0.869911157828    -0.760325236683
    C            2.261555650521    -0.113947484508    -1.281700587868
    H            4.276137706509     0.584706437950    -1.129228405379
    H            3.349785017488     0.842244520865     0.324947445358
    C            0.835200317451     0.092873419707    -0.760655065508
    H            2.261643468784    -0.063004198886    -2.365103711176
    H            2.590170453087    -1.118190502162    -1.023921311336
    C            0.613285832020    -0.422906842200     0.661957039728
    H            0.153656245469    -0.414268242152    -1.433403920257
    H            0.566976694141     1.145517594718    -0.815672336631
    C           -0.774095566075    -0.136117166701     1.240326877583
    H            0.794322497589    -1.494869029344     0.679397529592
    H            1.352579637154     0.016370327228     1.325077886850
    C           -1.927675836631    -0.851059046990     0.539149857541
    H           -0.773785534789    -0.425190027207     2.287660199287
    H           -0.954459554887     0.936516047292     1.224453397901
    C           -3.275521182314    -0.615276968749     1.215883533347
    H           -1.723233154005    -1.919286511729     0.513065827623
    H           -1.993749067209    -0.528111174473    -0.495154700112
    C           -4.430312727418    -1.324120174812     0.516096716540
    H           -3.221829613531    -0.948309198871     2.248740439535
    H           -3.477113278827     0.451998914325     1.250999578398
    H           -4.274498567470    -2.397639702077     0.493624037281
    H           -5.370570369398    -1.137543344013     1.022165580428
    H           -4.534126390255    -0.985267042585    -0.509364339272

  Mulliken Charges: (a.u.)
   Center  Symbol    Alpha    Beta     Spin     Total
       1     H     0.39272  0.39272  0.00000  0.21455
       2     O     4.20544  4.20544  0.00000 -0.41089
       3     C     2.97818  2.97818  0.00000  0.04363
       4     C     3.09586  3.09586  0.00000 -0.19173
       5     H     0.44777  0.44777  0.00000  0.10446
       6     H     0.46925  0.46925  0.00000  0.06150
       7     C     3.11347  3.11347  0.00000 -0.22695
       8     H     0.44487  0.44487  0.00000  0.11025
       9     H     0.45689  0.45689  0.00000  0.08622
      10     C     3.10232  3.10232  0.00000 -0.20464
      11     H     0.44132  0.44132  0.00000  0.11736
      12     H     0.45701  0.45701  0.00000  0.08598
      13     C     3.09645  3.09645  0.00000 -0.19290
      14     H     0.45187  0.45187  0.00000  0.09625
      15     H     0.44680  0.44680  0.00000  0.10639
      16     C     3.08824  3.08824  0.00000 -0.17648
      17     H     0.44795  0.44795  0.00000  0.10409
      18     H     0.45459  0.45459  0.00000  0.09082
      19     C     3.08422  3.08422  0.00000 -0.16844
      20     H     0.45473  0.45473  0.00000  0.09053
      21     H     0.45300  0.45300  0.00000  0.09400
      22     C     3.14973  3.14973  0.00000 -0.29945
      23     H     0.45398  0.45398  0.00000  0.09205
      24     H     0.45463  0.45463  0.00000  0.09073
      25     H     0.45514  0.45514  0.00000  0.08971
      26     H     0.44826  0.44826  0.00000  0.10348
      27     H     0.45527  0.45527  0.00000  0.08946

   Total alpha = 37.00000, Total beta = 37.00000, Total charge = -0.00000

*** Psi4 exiting successfully. Buy a developer a beer!
