  ==> Input File <==

--------------------------------------------------------------------------
set {
	reference rhf
	basis 6-31G*
}

set_num_threads( 4 )
memory 2 gb

molecule MOL {
0 1

O	 -1.296855	 0.949768	 -0.734536
C	 -1.083277	 0.139568	 0.115197
C	 0.323299	 -0.082943	 0.642902
C	 -2.187867	 -0.719549	 0.689328
C	 1.355627	 -0.005344	 -0.493127
H	 0.396251	 -1.044647	 1.143147
H	 0.528637	 0.693580	 1.371677
C	 2.786168	 -0.195604	 0.007473
H	 1.132807	 -0.760304	 -1.243899
H	 1.259610	 0.958506	 -0.981915
H	 3.495561	 -0.130713	 -0.811210
H	 2.912696	 -1.165395	 0.480041
H	 3.049284	 0.565503	 0.735850
H	 -1.915653	 -1.770462	 0.655416
H	 -3.104705	 -0.559540	 0.139289
H	 -2.344389	 -0.462732	 1.733718

	symmetry c1
}
set optking {
	frozen_dihedral = ("
		4 2 3 5
	")
}

ee = optimize('scf')
oeprop('DIPOLE', 'QUADRUPOLE', 'MULLIKEN_CHARGES')
f=open( 'psi4out.xyz', 'w' )
f.write( "16  " )
f.write( str(ee) + "\n" )
f.write( MOL.save_string_xyz() )
f.close()
--------------------------------------------------------------------------

    Molecular point group: c1
  Charge       = 0
  Multiplicity = 1
  Basis Set: 6-31G*
  Basis Set:
  @DF-RHF Final Energy:  -270.03037410117525
    Total Energy =                       -270.0303741011753687
    Molecular point group: c1
  Basis Set: 6-31G*
  Basis Set:
  Basis Set: 6-31G*
  Basis Set:
  @DF-RHF Final Energy:  -270.02909563464254
    Total Energy =                       -270.0290956346427720
  Basis Set: 6-31G*
  Basis Set:
  Basis Set: 6-31G*
  Basis Set:
  @DF-RHF Final Energy:  -270.03082940710453
    Total Energy =                       -270.0308294071047612
  Basis Set: 6-31G*
  Basis Set:
  Basis Set: 6-31G*
  Basis Set:
  @DF-RHF Final Energy:  -270.03098343945015
    Total Energy =                       -270.0309834394499831
  Basis Set: 6-31G*
  Basis Set:
  @DF-RHF Final Energy:  -270.03104125280254
    Total Energy =                       -270.0310412528023107
  Basis Set: 6-31G*
  Basis Set:
  @DF-RHF Final Energy:  -270.03106774778519
    Total Energy =                       -270.0310677477852437
  Basis Set: 6-31G*
  Basis Set:
  Basis Set: 6-31G*
  Basis Set:
  @DF-RHF Final Energy:  -270.03106485981726
    Total Energy =                       -270.0310648598170928
  Basis Set: 6-31G*
  Basis Set:
  Basis Set: 6-31G*
  Basis Set:
  @DF-RHF Final Energy:  -270.03107581410700
    Total Energy =                       -270.0310758141072256
  Basis Set: 6-31G*
  Basis Set:
  Charge       = 0
  Multiplicity = 1
  Basis Set: 6-31G*
  Basis Set:

    Orbital Energies (a.u.)
    -----------------------

    Doubly Occupied:

       1A    -20.549164     2A    -11.326515     3A    -11.231496
       4A    -11.229075     5A    -11.223700     6A    -11.215131
       7A     -1.395117     8A     -1.077745     9A     -1.015323
      10A     -0.947538    11A     -0.825222    12A     -0.733056
      13A     -0.656947    14A     -0.648487    15A     -0.619289
      16A     -0.601045    17A     -0.570260    18A     -0.559963
      19A     -0.545575    20A     -0.506046    21A     -0.494907
      22A     -0.481225    23A     -0.473501    24A     -0.399480

  @DF-RHF Final Energy:  -270.03107645785872

   => Energetics <=

    Nuclear Repulsion Energy =            236.7402014384371682
    One-Electron Energy =                -834.8909450351120540
    Two-Electron Energy =                 328.1196671388159984
    DFT Exchange-Correlation Energy =       0.0000000000000000
    Empirical Dispersion Energy =           0.0000000000000000
    PCM Polarization Energy =               0.0000000000000000
    EFP Energy =                            0.0000000000000000
    Total Energy =                       -270.0310764578588305
    Molecular point group: c1
  Basis Set: 6-31G*
  Basis Set:

  -Total Gradient:
     Atom            X                  Y                   Z
    ------   -----------------  -----------------  -----------------
       1       -0.000002326891    -0.000020542412     0.000020716215
       2       -0.000300758679     0.000712532698     0.001009304963
       3        0.000224276363     0.001075528096    -0.000142515249
       4        0.000156043709    -0.000731454347    -0.000779456041
       5       -0.000114889460    -0.001040675659    -0.000111911201
       6        0.000013201293    -0.000000701672    -0.000006304329
       7       -0.000002260695     0.000001948407     0.000012568591
       8        0.000011900989     0.000012657150    -0.000007751572
       9        0.000003488216    -0.000005762587    -0.000020854701
      10       -0.000000245475    -0.000004173188     0.000013357668
      11        0.000001842379    -0.000001383080    -0.000000142254
      12       -0.000008953795     0.000005124464    -0.000001086351
      13        0.000006191178     0.000000168424     0.000001018428
      14        0.000005898316    -0.000000986663     0.000003800641
      15       -0.000007338190    -0.000006934036     0.000009096262
      16        0.000013930746     0.000004654403     0.000000158933

  **** Optimization is complete! (in 9 steps) ****
    Final optimized geometry and variables:
    Molecular point group: c1

    Geometry (in Angstrom), charge = 0, multiplicity = 1:

    O           -1.316509001909     0.928842093904    -0.786519736803
    C           -1.080500578081     0.124860646451     0.062926026298
    C            0.334867118946    -0.087599994382     0.578129583828
    C           -2.171219405271    -0.726658687267     0.672469845808
    C            1.388940943346    -0.041422394821    -0.530418717126
    H            0.394826966313    -1.026656820222     1.121505320745
    H            0.526170030956     0.700298015206     1.305485636035
    C            2.809751215759    -0.189277295384     0.010811995555
    H            1.188142268551    -0.833433510327    -1.247417863266
    H            1.289266894038     0.893011384533    -1.069041368032
    H            3.536545164416    -0.159158804154    -0.794546994353
    H            2.938425979671    -1.131343148712     0.536589736012
    H            3.051384567708     0.611605034693     0.703933930108
    H           -2.005535954824    -1.769242146967     0.414008714941
    H           -3.137328433665    -0.412703715529     0.302639706967
    H           -2.150585137832    -0.658328374241     1.756427808373

  Mulliken Charges: (a.u.)
   Center  Symbol    Alpha    Beta     Spin     Total
       1     O     4.26294  4.26294  0.00000 -0.52588
       2     C     2.73455  2.73455  0.00000  0.53090
       3     C     3.20640  3.20640  0.00000 -0.41280
       4     C     3.28850  3.28850  0.00000 -0.57699
       5     C     3.15361  3.15361  0.00000 -0.30722
       6     H     0.41547  0.41547  0.00000  0.16906
       7     H     0.40377  0.40377  0.00000  0.19245
       8     C     3.24129  3.24129  0.00000 -0.48258
       9     H     0.41911  0.41911  0.00000  0.16178
      10     H     0.40237  0.40237  0.00000  0.19526
      11     H     0.41565  0.41565  0.00000  0.16870
      12     H     0.42240  0.42240  0.00000  0.15520
      13     H     0.42045  0.42045  0.00000  0.15909
      14     H     0.40713  0.40713  0.00000  0.18575
      15     H     0.39710  0.39710  0.00000  0.20580
      16     H     0.40926  0.40926  0.00000  0.18147

   Total alpha = 24.00000, Total beta = 24.00000, Total charge = -0.00000
