  ==> Input File <==

--------------------------------------------------------------------------
set {
	reference rhf
	basis cc-pvtz
}

set_num_threads( 4 )
memory 2 gb

molecule MOL {
0 1

H	 -4.211511	 0.348369	 0.520016
O	 -3.496733	 -0.206462	 0.268120
C	 -2.302264	 0.528872	 0.237390
C	 -1.175688	 -0.398187	 -0.171891
H	 -2.380108	 1.352102	 -0.469720
H	 -2.093130	 0.956375	 1.215825
C	 0.196029	 0.106276	 0.266738
H	 -1.201873	 -0.515469	 -1.250677
H	 -1.365975	 -1.378728	 0.252664
C	 1.330220	 -0.826136	 -0.155230
H	 0.359542	 1.097229	 -0.145561
H	 0.212134	 0.218135	 1.348778
C	 2.719700	 -0.407669	 0.328325
H	 1.339388	 -0.911200	 -1.239363
H	 1.119001	 -1.821953	 0.224128
C	 3.241564	 0.893452	 -0.276737
H	 3.418299	 -1.204729	 0.093035
H	 2.711776	 -0.323368	 1.411960
H	 3.254204	 0.841071	 -1.360784
H	 2.634460	 1.745075	 0.005842
H	 4.254264	 1.092401	 0.054971

	symmetry c1
}
set optking {
	frozen_dihedral = ("
		2 3 4 8
	")
}

ee = optimize('scf')
oeprop('DIPOLE', 'QUADRUPOLE', 'MULLIKEN_CHARGES')
f=open( 'psi4out.xyz', 'w' )
f.write( "21  " )
f.write( str(ee) + "\n" )
f.write( MOL.save_string_xyz() )
f.close()
--------------------------------------------------------------------------

    Molecular point group: c1
  Charge       = 0
  Multiplicity = 1
  Basis Set: CC-PVTZ
  Basis Set:
  @DF-RHF Final Energy:  -310.33123682783344
    Total Energy =                       -310.3312368278335498
    Molecular point group: c1
  Basis Set: CC-PVTZ
  Basis Set:
  Basis Set: CC-PVTZ
  Basis Set:
  @DF-RHF Final Energy:  -310.33143963263342
    Total Energy =                       -310.3314396326334759
  Basis Set: CC-PVTZ
  Basis Set:
  Basis Set: CC-PVTZ
  Basis Set:
  @DF-RHF Final Energy:  -310.33147144391131
    Total Energy =                       -310.3314714439115960
  Basis Set: CC-PVTZ
  Basis Set:
  Basis Set: CC-PVTZ
  Basis Set:
  @DF-RHF Final Energy:  -310.33147401159323
    Total Energy =                       -310.3314740115926043
  Basis Set: CC-PVTZ
  Basis Set:
  Charge       = 0
  Multiplicity = 1
  Basis Set: CC-PVTZ
  Basis Set:

    Orbital Energies (a.u.)
    -----------------------

    Doubly Occupied:

       1A    -20.545292     2A    -11.265082     3A    -11.212972
       4A    -11.212796     5A    -11.211027     6A    -11.209078
       7A    -11.206105     8A     -1.362868     9A     -1.087163
      10A     -1.034013    11A     -0.955020    12A     -0.876296
      13A     -0.807785    14A     -0.778987    15A     -0.698977
      16A     -0.657591    17A     -0.626435    18A     -0.605426
      19A     -0.587056    20A     -0.574256    21A     -0.536337
      22A     -0.522224    23A     -0.511114    24A     -0.485951
      25A     -0.482576    26A     -0.461011    27A     -0.455714
      28A     -0.444201    29A     -0.435328

  @DF-RHF Final Energy:  -310.33147422982699

   => Energetics <=

    Nuclear Repulsion Energy =            312.9300241096449327
    One-Electron Energy =               -1040.8256318552234916
    Two-Electron Energy =                 417.5641335157515641
    DFT Exchange-Correlation Energy =       0.0000000000000000
    Empirical Dispersion Energy =           0.0000000000000000
    PCM Polarization Energy =               0.0000000000000000
    EFP Energy =                            0.0000000000000000
    Total Energy =                       -310.3314742298269948
    Molecular point group: c1
  Basis Set: CC-PVTZ
  Basis Set:

  -Total Gradient:
     Atom            X                  Y                   Z
    ------   -----------------  -----------------  -----------------
       1       -0.000015855227    -0.000001106628     0.000007057498
       2        0.000464206176    -0.000579811183     0.002871308952
       3        0.000052139226     0.001489488968    -0.003879055661
       4       -0.002959619309    -0.003912244063     0.001312012755
       5       -0.000040558810    -0.000022475408    -0.000009019224
       6        0.000019810573    -0.000009140357    -0.000000537218
       7        0.000032722244     0.000026218131     0.000088763895
       8        0.002404763889     0.003014258273    -0.000391326420
       9        0.000023167301     0.000020905336    -0.000005042567
      10        0.000011150863    -0.000010980690     0.000024787347
      11       -0.000009888156     0.000008070268    -0.000001446149
      12        0.000017848805     0.000002430581     0.000017563756
      13        0.000008978727    -0.000007143945    -0.000040728259
      14       -0.000001880919    -0.000010447098    -0.000000662702
      15        0.000025003050    -0.000003365649     0.000010236878
      16       -0.000006833708     0.000003487724     0.000012216099
      17        0.000003251348    -0.000010277191    -0.000006278679
      18       -0.000012365954    -0.000000819459    -0.000011494746
      19       -0.000000099611    -0.000001683896    -0.000000814423
      20       -0.000017550220     0.000005671079     0.000000520275
      21        0.000001609709    -0.000001034793     0.000001938593

  **** Optimization is complete! (in 5 steps) ****
    Final optimized geometry and variables:
    Molecular point group: c1

    Geometry (in Angstrom), charge = 0, multiplicity = 1:

    H           -4.223714702860     0.440334604331     0.351246957107
    O           -3.509796907103    -0.147699876693     0.187464339739
    C           -2.298131866284     0.560438403381     0.157345314266
    C           -1.179562475897    -0.398595580666    -0.214060258923
    H           -2.345389188614     1.378643923223    -0.556993756624
    H           -2.099242907244     0.992536512100     1.135906102661
    C            0.196105585557     0.117730879492     0.204281300369
    H           -1.180552042641    -0.548736246455    -1.289031962241
    H           -1.378986218035    -1.355452145466     0.253780650469
    C            1.332232170279    -0.800033118526    -0.242768712252
    H            0.342784181654     1.113382499030    -0.204716943656
    H            0.227255595726     0.223688769566     1.286113811702
    C            2.723516613712    -0.379912575831     0.233933712805
    H            1.332153093412    -0.868953714620    -1.328120160182
    H            1.130861311183    -1.802912625922     0.123450372267
    C            3.228248265004     0.936791967698    -0.351439407534
    H            3.425859740631    -1.166613919895    -0.023954384383
    H            2.726417740789    -0.316255775184     1.318917499070
    H            3.229106836151     0.905552922179    -1.436393663356
    H            2.617491475882     1.777667889816    -0.045515187915
    H            4.242989137083     1.137575124043    -0.027206119969

  Mulliken Charges: (a.u.)
   Center  Symbol    Alpha    Beta     Spin     Total
       1     H     0.39653  0.39653  0.00000  0.20695
       2     O     4.19568  4.19568  0.00000 -0.39135
       3     C     2.96323  2.96323  0.00000  0.07354
       4     C     3.08419  3.08419  0.00000 -0.16839
       5     H     0.47264  0.47264  0.00000  0.05471
       6     H     0.47697  0.47697  0.00000  0.04605
       7     C     3.10246  3.10246  0.00000 -0.20492
       8     H     0.45449  0.45449  0.00000  0.09101
       9     H     0.44684  0.44684  0.00000  0.10631
      10     C     3.09517  3.09517  0.00000 -0.19035
      11     H     0.45443  0.45443  0.00000  0.09115
      12     H     0.45431  0.45431  0.00000  0.09139
      13     C     3.08980  3.08980  0.00000 -0.17959
      14     H     0.45353  0.45353  0.00000  0.09295
      15     H     0.44853  0.44853  0.00000  0.10294
      16     C     3.15244  3.15244  0.00000 -0.30488
      17     H     0.44846  0.44846  0.00000  0.10308
      18     H     0.45475  0.45475  0.00000  0.09050
      19     H     0.45487  0.45487  0.00000  0.09025
      20     H     0.45423  0.45423  0.00000  0.09154
      21     H     0.44644  0.44644  0.00000  0.10712

   Total alpha = 29.00000, Total beta = 29.00000, Total charge = -0.00000
