  ==> Input File <==

--------------------------------------------------------------------------
set {
	reference rhf
	basis 6-31G*
}

set_num_threads( 4 )
memory 2 gb

molecule MOL {
0 1

H	 0.258412	 -1.037551	 -1.441755
C	 0.387902	 0.044594	 -1.567844
C	 0.065331	 0.871482	 -0.349150
O	 0.761651	 0.484126	 -2.606517
C	 -1.339775	 0.583656	 0.198860
H	 0.184481	 1.918103	 -0.604689
H	 0.804613	 0.625642	 0.411893
C	 -1.808407	 -0.848507	 -0.061364
H	 -2.036183	 1.280685	 -0.256307
H	 -1.360094	 0.788874	 1.267089
H	 -1.828843	 -1.063152	 -1.125336
H	 -2.808409	 -1.004529	 0.329750
H	 -1.153967	 -1.577789	 0.406873

	symmetry c1
}
set optking {
	frozen_dihedral = ("
		6 3 5 9
	")
}

ee = optimize('scf')
oeprop('DIPOLE', 'QUADRUPOLE', 'MULLIKEN_CHARGES')
f=open( 'psi4out.xyz', 'w' )
f.write( "13  " )
f.write( str(ee) + "\n" )
f.write( MOL.save_string_xyz() )
f.close()
--------------------------------------------------------------------------

    Molecular point group: c1
  Charge       = 0
  Multiplicity = 1
  Basis Set: 6-31G*
  Basis Set:
  @DF-RHF Final Energy:  -230.97671944268384
    Total Energy =                       -230.9767194426838728
    Molecular point group: c1
  Basis Set: 6-31G*
  Basis Set:
  Basis Set: 6-31G*
  Basis Set:
  @DF-RHF Final Energy:  -230.97717053747786
    Total Energy =                       -230.9771705374778037
  Basis Set: 6-31G*
  Basis Set:
  Basis Set: 6-31G*
  Basis Set:
  @DF-RHF Final Energy:  -230.97916251111653
    Total Energy =                       -230.9791625111166979
  Basis Set: 6-31G*
  Basis Set:
  Basis Set: 6-31G*
  Basis Set:
  @DF-RHF Final Energy:  -230.97955300288808
    Total Energy =                       -230.9795530028881103
  Basis Set: 6-31G*
  Basis Set:
  @DF-RHF Final Energy:  -230.97939239659541
    Total Energy =                       -230.9793923965953013
  @DF-RHF Final Energy:  -230.97982331186148
    Total Energy =                       -230.9798233118614519
  @DF-RHF Final Energy:  -230.97984501893819
    Total Energy =                       -230.9798450189381924
  @DF-RHF Final Energy:  -230.97989005206168
    Total Energy =                       -230.9798900520618758
  Basis Set: 6-31G*
  Basis Set:
  @DF-RHF Final Energy:  -230.97992490749576
    Total Energy =                       -230.9799249074957288
  Basis Set: 6-31G*
  Basis Set:
  Basis Set: 6-31G*
  Basis Set:
  @DF-RHF Final Energy:  -230.97994997615851
    Total Energy =                       -230.9799499761587072
  Basis Set: 6-31G*
  Basis Set:
  Basis Set: 6-31G*
  Basis Set:
  @DF-RHF Final Energy:  -230.97997112898864
    Total Energy =                       -230.9799711289885238
  Basis Set: 6-31G*
  Basis Set:
  Charge       = 0
  Multiplicity = 1
  Basis Set: 6-31G*
  Basis Set:

    Orbital Energies (a.u.)
    -----------------------

    Doubly Occupied:

       1A    -20.562013     2A    -11.325495     3A    -11.238726
       4A    -11.235148     5A    -11.225579     6A     -1.401681
       7A     -1.083255     8A     -0.973220     9A     -0.857983
      10A     -0.775215    11A     -0.679812    12A     -0.639065
      13A     -0.615959    14A     -0.603300    15A     -0.561744
      16A     -0.531925    17A     -0.514022    18A     -0.489081
      19A     -0.479721    20A     -0.407820

  @DF-RHF Final Energy:  -230.97997120888999

   => Energetics <=

    Nuclear Repulsion Energy =            174.1058211165424154
    One-Electron Energy =                -657.7700567537011693
    Two-Electron Energy =                 252.6842644282687900
    DFT Exchange-Correlation Energy =       0.0000000000000000
    Empirical Dispersion Energy =           0.0000000000000000
    PCM Polarization Energy =               0.0000000000000000
    EFP Energy =                            0.0000000000000000
    Total Energy =                       -230.9799712088899639
    Molecular point group: c1
  Basis Set: 6-31G*
  Basis Set:

  -Total Gradient:
     Atom            X                  Y                   Z
    ------   -----------------  -----------------  -----------------
       1        0.000009935473    -0.000019276580     0.000027487228
       2       -0.000044127106     0.000018956580    -0.000018380456
       3        0.001893326851     0.001788328030     0.006552904540
       4        0.000004894440    -0.000013607266     0.000035772453
       5       -0.001152119171    -0.004038809045    -0.005648540277
       6       -0.001380391896    -0.000853666578    -0.004619127420
       7        0.000001030599    -0.000002776955    -0.000006373489
       8        0.000008837824     0.000012142154    -0.000007157511
       9        0.000673113107     0.003110619127     0.003674477421
      10       -0.000006690483    -0.000009580451     0.000010536495
      11       -0.000029150780     0.000003725900     0.000012461988
      12        0.000001065651    -0.000000744391     0.000012659024
      13        0.000020275491     0.000004689476    -0.000026719994

  **** Optimization is complete! (in 12 steps) ****
    Final optimized geometry and variables:
    Molecular point group: c1

    Geometry (in Angstrom), charge = 0, multiplicity = 1:

    H            1.094635103552    -1.225580631518    -0.564527419396
    C            0.891616906259    -0.156312599242    -0.681876334844
    C            0.539627766813     0.597250343824     0.579869339740
    O            0.953676031872     0.344792275916    -1.758449618392
    C           -0.910511045965     0.343658072710     1.055074910908
    H            0.670812607238     1.646354764554     0.345006510634
    H            1.243171308248     0.307702747658     1.355824549761
    C           -1.435416845740    -1.079996998996     0.863474987847
    H           -1.566770034991     1.059161054760     0.570844325568
    H           -0.954304991792     0.590752570597     2.111936392729
    H           -1.520047973637    -1.344958605476    -0.185761935606
    H           -2.422291375673    -1.177269790196     1.302833880056
    H           -0.789758950275    -1.810974475251     1.342450065228

  Mulliken Charges: (a.u.)
   Center  Symbol    Alpha    Beta     Spin     Total
       1     H     0.42945  0.42945  0.00000  0.14110
       2     C     2.83805  2.83805  0.00000  0.32391
       3     C     3.20649  3.20649  0.00000 -0.41297
       4     O     4.23695  4.23695  0.00000 -0.47390
       5     C     3.15802  3.15802  0.00000 -0.31604
       6     H     0.39809  0.39809  0.00000  0.20382
       7     H     0.41273  0.41273  0.00000  0.17454
       8     C     3.25080  3.25080  0.00000 -0.50161
       9     H     0.40936  0.40936  0.00000  0.18128
      10     H     0.41428  0.41428  0.00000  0.17144
      11     H     0.41408  0.41408  0.00000  0.17184
      12     H     0.41222  0.41222  0.00000  0.17556
      13     H     0.41948  0.41948  0.00000  0.16103

   Total alpha = 20.00000, Total beta = 20.00000, Total charge = -0.00000
