  ==> Input File <==

--------------------------------------------------------------------------
set {
	reference rhf
	basis cc-pvtz
}

set_num_threads( 4 )
memory 2 gb

molecule MOL {
0 1

O	 -0.294688	 1.318815	 -0.000872
C	 -0.448732	 0.145721	 -0.000187
C	 -1.780748	 -0.548101	 0.000195
O	 0.550743	 -0.719877	 0.000412
H	 -1.859389	 -1.183260	 -0.872613
H	 -2.570236	 0.185547	 -0.001342
H	 -1.860233	 -1.180337	 0.875064
C	 1.321963	 -0.819801	 -1.180393
H	 0.705190	 -1.123053	 -2.013254
H	 2.073794	 -1.566223	 -0.982177
H	 1.787371	 0.126592	 -1.412247

	symmetry c1
}
set optking {
	frozen_dihedral = ("
		8 4 2 1
	")
}

ee = optimize('scf')
oeprop('DIPOLE', 'QUADRUPOLE', 'MULLIKEN_CHARGES')
f=open( 'psi4out.xyz', 'w' )
f.write( "11  " )
f.write( str(ee) + "\n" )
f.write( MOL.save_string_xyz() )
f.close()
--------------------------------------------------------------------------

    Molecular point group: c1
  Charge       = 0
  Multiplicity = 1
  Basis Set: CC-PVTZ
  Basis Set:
  @DF-RHF Final Energy:  -266.92167804497183
    Total Energy =                       -266.9216780449715998
    Molecular point group: c1
  Basis Set: CC-PVTZ
  Basis Set:
  Basis Set: CC-PVTZ
  Basis Set:
  @DF-RHF Final Energy:  -266.91973077291641
    Total Energy =                       -266.9197307729166369
  Basis Set: CC-PVTZ
  Basis Set:
  Basis Set: CC-PVTZ
  Basis Set:
  @DF-RHF Final Energy:  -266.92267644171716
    Total Energy =                       -266.9226764417171012
  Basis Set: CC-PVTZ
  Basis Set:
  Basis Set: CC-PVTZ
  Basis Set:
  @DF-RHF Final Energy:  -266.92282262116368
    Total Energy =                       -266.9228226211636184
  Basis Set: CC-PVTZ
  Basis Set:
  @DF-RHF Final Energy:  -266.92282818872457
    Total Energy =                       -266.9228281887245089
  @DF-RHF Final Energy:  -266.92282746604099
    Total Energy =                       -266.9228274660409284
  @DF-RHF Final Energy:  -266.84148717916008
    Total Energy =                       -266.8414871791603673
  @DF-RHF Final Energy:  -266.84217670775200
    Total Energy =                       -266.8421767077521736
  @DF-RHF Final Energy:  -266.87408853023203
    Total Energy =                       -266.8740885302319157
  @DF-RHF Final Energy:  -266.89668251946364
    Total Energy =                       -266.8966825194635817
  @DF-RHF Final Energy:  -266.91909422909896
    Total Energy =                       -266.9190942290988460
  @DF-RHF Final Energy:  -266.92165469452743
    Total Energy =                       -266.9216546945272626
  @DF-RHF Final Energy:  -266.92246733259799
    Total Energy =                       -266.9224673325978756
  @DF-RHF Final Energy:  -266.92271762970711
    Total Energy =                       -266.9227176297071082
  @DF-RHF Final Energy:  -266.92280832476592
    Total Energy =                       -266.9228083247660948
  @DF-RHF Final Energy:  -266.92282329379793
    Total Energy =                       -266.9228232937979328
  Basis Set: CC-PVTZ
  Basis Set:
  @DF-RHF Final Energy:  -266.92282801365752
    Total Energy =                       -266.9228280136574654
  Basis Set: CC-PVTZ
  Basis Set:
  Basis Set: CC-PVTZ
  Basis Set:
  @DF-RHF Final Energy:  -266.92279739577782
    Total Energy =                       -266.9227973957775362
  Basis Set: CC-PVTZ
  Basis Set:
  Basis Set: CC-PVTZ
  Basis Set:
  @DF-RHF Final Energy:  -266.92282821897084
    Total Energy =                       -266.9228282189710626
  Basis Set: CC-PVTZ
  Basis Set:
  Charge       = 0
  Multiplicity = 1
  Basis Set: CC-PVTZ
  Basis Set:

    Orbital Energies (a.u.)
    -----------------------

    Doubly Occupied:

       1A    -20.581870     2A    -20.545851     3A    -11.371910
       4A    -11.287800     5A    -11.236461     6A     -1.464806
       7A     -1.370804     8A     -1.030316     9A     -0.959668
      10A     -0.779114    11A     -0.697257    12A     -0.685437
      13A     -0.671978    14A     -0.609844    15A     -0.593001
      16A     -0.574970    17A     -0.538914    18A     -0.505540
      19A     -0.460535    20A     -0.444810

  @DF-RHF Final Energy:  -266.92282838331573

   => Energetics <=

    Nuclear Repulsion Energy =            182.7591111449516745
    One-Electron Energy =                -726.5421094361315681
    Two-Electron Energy =                 276.8601699078639058
    DFT Exchange-Correlation Energy =       0.0000000000000000
    Empirical Dispersion Energy =           0.0000000000000000
    PCM Polarization Energy =               0.0000000000000000
    EFP Energy =                            0.0000000000000000
    Total Energy =                       -266.9228283833159594
    Molecular point group: c1
  Basis Set: CC-PVTZ
  Basis Set:

  -Total Gradient:
     Atom            X                  Y                   Z
    ------   -----------------  -----------------  -----------------
       1       -0.000251036354    -0.000028346275     0.006852905335
       2       -0.001133299177    -0.001859386358    -0.010919061817
       3       -0.000073550585     0.000020603856    -0.000017735447
       4        0.004740379190     0.005805440229     0.006145067121
       5       -0.000006769790     0.000001716413    -0.000030496760
       6       -0.000030264304    -0.000010253899     0.000005937863
       7        0.000015131892    -0.000001749275    -0.000018503517
       8       -0.003233917387    -0.003925309426    -0.001981529467
       9       -0.000016243484    -0.000021940236    -0.000020113708
      10       -0.000021776899     0.000009773616    -0.000010735237
      11        0.000011346897     0.000009451354    -0.000005734368

  **** Optimization is complete! (in 20 steps) ****
    Final optimized geometry and variables:
    Molecular point group: c1

    Geometry (in Angstrom), charge = 0, multiplicity = 1:

    O           -0.180495252084     1.443093848975     0.224942339775
    C           -0.351189011224     0.278665184392     0.218312411101
    C           -1.693741776645    -0.390735979548     0.273209858851
    O            0.669341364898    -0.599021508858     0.253733922031
    H           -1.817684350979    -1.026382054904    -0.595755120865
    H           -2.478498123875     0.347524583190     0.308229933030
    H           -1.735939416221    -1.027546735879     1.147630732723
    C            1.474830548511    -0.687427770477    -0.902072595739
    H            0.899373607667    -1.065609169290    -1.739758976816
    H            2.267872135196    -1.381167840278    -0.675490687399
    H            1.894619473544     0.276633105176    -1.153443127158

  Mulliken Charges: (a.u.)
   Center  Symbol    Alpha    Beta     Spin     Total
       1     O     4.17315  4.17315  0.00000 -0.34630
       2     C     2.79899  2.79899  0.00000  0.40203
       3     C     3.13734  3.13734  0.00000 -0.27468
       4     O     4.16614  4.16614  0.00000 -0.33228
       5     H     0.45046  0.45046  0.00000  0.09908
       6     H     0.43808  0.43808  0.00000  0.12384
       7     H     0.44332  0.44332  0.00000  0.11335
       8     C     3.03002  3.03002  0.00000 -0.06004
       9     H     0.46742  0.46742  0.00000  0.06516
      10     H     0.44498  0.44498  0.00000  0.11005
      11     H     0.45010  0.45010  0.00000  0.09979

   Total alpha = 20.00000, Total beta = 20.00000, Total charge = -0.00000
