  ==> Input File <==

--------------------------------------------------------------------------
set {
	reference rhf
	basis 6-31G*
}

set_num_threads( 1 )
memory 2 gb

molecule MOL {
0 1

O	 3.225979	 0.970355	 -0.599647
C	 2.701189	 0.057885	 -0.047330
C	 1.245376	 -0.013843	 0.345420
O	 3.347903	 -1.046386	 0.304773
C	 0.455112	 1.231400	 -0.050772
H	 0.838542	 -0.913825	 -0.103701
H	 1.208210	 -0.175333	 1.419774
C	 -0.998893	 1.219485	 0.433193
H	 0.482531	 1.345121	 -1.130325
H	 0.957290	 2.103070	 0.354729
C	 -1.496863	 -0.134321	 0.947338
H	 -1.631901	 1.530894	 -0.394484
H	 -1.128343	 1.970859	 1.210810
C	 -2.982100	 -0.121503	 1.314633
H	 -1.321415	 -0.892668	 0.185795
H	 -0.922229	 -0.438356	 1.819308
C	 -3.489532	 -1.467709	 1.834609
H	 -3.565790	 0.169146	 0.442817
H	 -3.160058	 0.643957	 2.068358
C	 -4.974469	 -1.447478	 2.195516
H	 -3.311565	 -2.233955	 1.083052
H	 -2.910185	 -1.757839	 2.708657
H	 -5.304165	 -2.415231	 2.560704
H	 -5.584178	 -1.194428	 1.332721
H	 -5.179692	 -0.714194	 2.970405
C	 4.728119	 -1.109107	 -0.004993
H	 4.882018	 -1.033965	 -1.071845
H	 5.068212	 -2.067527	 0.355250
H	 5.265056	 -0.311663	 0.488280

	symmetry c1
}
set optking {
	frozen_dihedral = ("
		21 17 14 11,
		17 14 11 15,
		15 11 8 5,
		6 3 5 9,
		2 4 26 27,
		1 2 4 26,
		6 3 2 1
	")
}

ee = energy('scf')
oeprop('DIPOLE', 'QUADRUPOLE', 'MULLIKEN_CHARGES')
f=open( 'psi4out.xyz', 'w' )
f.write( "29  " )
f.write( str(ee) + "\n" )
f.write( MOL.save_string_xyz() )
f.close()
--------------------------------------------------------------------------

    Molecular point group: c1

    Geometry (in Angstrom), charge = 0, multiplicity = 1:

       Center              X                  Y                   Z               Mass
    ------------   -----------------  -----------------  -----------------  -----------------
           O          3.023827044732     1.154217540457    -1.202456897906    15.994914619560
           C          2.499037044732     0.241747540457    -0.650139897906    12.000000000000
           C          1.043224044732     0.170019540457    -0.257389897906    12.000000000000
           O          3.145751044732    -0.862523459543    -0.298036897906    15.994914619560
           C          0.252960044732     1.415262540457    -0.653581897906    12.000000000000
           H          0.636390044732    -0.729962459543    -0.706510897906     1.007825032070
           H          1.006058044732     0.008529540457     0.816964102094     1.007825032070
           C         -1.201044955268     1.403347540457    -0.169616897906    12.000000000000
           H          0.280379044732     1.528983540457    -1.733134897906     1.007825032070
           H          0.755138044732     2.286932540457    -0.248080897906     1.007825032070
           C         -1.699014955268     0.049541540457     0.344528102094    12.000000000000
           H         -1.834052955268     1.714756540457    -0.997293897906     1.007825032070
           H         -1.330494955268     2.154721540457     0.608000102094     1.007825032070
           C         -3.184251955268     0.062359540457     0.711823102094    12.000000000000
           H         -1.523566955268    -0.708805459543    -0.417014897906     1.007825032070
           H         -1.124380955268    -0.254493459543     1.216498102094     1.007825032070
           C         -3.691683955268    -1.283846459543     1.231799102094    12.000000000000
           H         -3.767941955268     0.353008540457    -0.159992897906     1.007825032070
           H         -3.362209955268     0.827819540457     1.465548102094     1.007825032070
           C         -5.176620955268    -1.263615459543     1.592706102094    12.000000000000
           H         -3.513716955268    -2.050092459543     0.480242102094     1.007825032070
           H         -3.112336955268    -1.573976459543     2.105847102094     1.007825032070
           H         -5.506316955268    -2.231368459543     1.957894102094     1.007825032070
           H         -5.786329955268    -1.010565459543     0.729911102094     1.007825032070
           H         -5.381843955268    -0.530331459543     2.367595102094     1.007825032070
           C          4.525967044732    -0.925244459543    -0.607802897906    12.000000000000
           H          4.679866044732    -0.850102459543    -1.674654897906     1.007825032070
           H          4.866060044732    -1.883664459543    -0.247559897906     1.007825032070
           H          5.062904044732    -0.127800459543    -0.114529897906     1.007825032070

  Charge       = 0
  Multiplicity = 1
  Basis Set: 6-31G*
  Basis Set:

    Orbital Energies (a.u.)
    -----------------------

    Doubly Occupied:

       1A    -20.602798     2A    -20.544234     3A    -11.370827
       4A    -11.280300     5A    -11.233736     6A    -11.217632
       7A    -11.216897     8A    -11.216146     9A    -11.216015
      10A    -11.214418    11A    -11.209295    12A     -1.468360
      13A     -1.361716    14A     -1.100124    15A     -1.065955
      16A     -1.017966    17A     -0.976352    18A     -0.929164
      19A     -0.865856    20A     -0.798572    21A     -0.792142
      22A     -0.757331    23A     -0.698627    24A     -0.683668
      25A     -0.669959    26A     -0.658949    27A     -0.629537
      28A     -0.603668    29A     -0.588868    30A     -0.579032
      31A     -0.568796    32A     -0.554519    33A     -0.531262
      34A     -0.524429    35A     -0.521992    36A     -0.512191
      37A     -0.502538    38A     -0.480192    39A     -0.467568
      40A     -0.459787    41A     -0.456572    42A     -0.448433
      43A     -0.439417    44A     -0.436341

  @DF-RHF Final Energy:  -501.03443581279203

   => Energetics <=

    Nuclear Repulsion Energy =            616.2240279999443828
    One-Electron Energy =               -1903.5723972759944900
    Two-Electron Energy =                 786.3139334632605824
    DFT Exchange-Correlation Energy =       0.0000000000000000
    Empirical Dispersion Energy =           0.0000000000000000
    PCM Polarization Energy =               0.0000000000000000
    EFP Energy =                            0.0000000000000000
    Total Energy =                       -501.0344358127895248

  Mulliken Charges: (a.u.)
   Center  Symbol    Alpha    Beta     Spin     Total
       1     O     4.28613  4.28613  0.00000 -0.57226
       2     C     2.60297  2.60297  0.00000  0.79406
       3     C     3.21521  3.21521  0.00000 -0.43042
       4     O     4.30746  4.30746  0.00000 -0.61492
       5     C     3.15521  3.15521  0.00000 -0.31041
       6     H     0.39860  0.39860  0.00000  0.20280
       7     H     0.39976  0.39976  0.00000  0.20048
       8     C     3.15687  3.15687  0.00000 -0.31375
       9     H     0.41095  0.41095  0.00000  0.17810
      10     H     0.40798  0.40798  0.00000  0.18403
      11     C     3.15994  3.15994  0.00000 -0.31988
      12     H     0.41870  0.41870  0.00000  0.16260
      13     H     0.41946  0.41946  0.00000  0.16108
      14     C     3.14823  3.14823  0.00000 -0.29645
      15     H     0.42345  0.42345  0.00000  0.15310
      16     H     0.42252  0.42252  0.00000  0.15496
      17     C     3.15144  3.15144  0.00000 -0.30287
      18     H     0.42360  0.42360  0.00000  0.15279
      19     H     0.42370  0.42370  0.00000  0.15260
      20     C     3.23933  3.23933  0.00000 -0.47867
      21     H     0.42331  0.42331  0.00000  0.15337
      22     H     0.42339  0.42339  0.00000  0.15322
      23     H     0.41924  0.41924  0.00000  0.16151
      24     H     0.42161  0.42161  0.00000  0.15678
      25     H     0.42166  0.42166  0.00000  0.15667
      26     C     3.09228  3.09228  0.00000 -0.18456
      27     H     0.40918  0.40918  0.00000  0.18165
      28     H     0.40859  0.40859  0.00000  0.18283
      29     H     0.40922  0.40922  0.00000  0.18157

   Total alpha = 44.00000, Total beta = 44.00000, Total charge = -0.00000
