  ==> Input File <==

--------------------------------------------------------------------------
set {
	reference rhf
	basis 6-31G*
}

set_num_threads( 4 )
memory 2 gb

molecule MOL {
0 1

O	 1.389474	 0.059521	 0.863913
C	 0.576249	 0.131685	 -0.000108
C	 -0.766779	 -0.556801	 -0.000461
O	 0.750665	 0.846460	 -1.104345
C	 -1.945214	 0.412366	 0.000161
H	 -0.796911	 -1.211249	 -0.867467
H	 -0.796854	 -1.212390	 0.865687
C	 -3.287791	 -0.317055	 0.000105
H	 -1.876087	 1.060580	 -0.866812
H	 -1.875822	 1.059691	 0.867761
H	 -3.394745	 -0.949193	 -0.877058
H	 -4.111778	 0.388953	 0.000015
H	 -3.394954	 -0.949187	 0.877259
C	 1.975449	 1.545902	 -1.230403
H	 2.091062	 2.257699	 -0.425717
H	 1.926400	 2.058115	 -2.178611
H	 2.808772	 0.858189	 -1.218836

	symmetry c1
}
set optking {
	frozen_dihedral = ("
		1 2 3 6
	")
}

ee = optimize('scf')
oeprop('DIPOLE', 'QUADRUPOLE', 'MULLIKEN_CHARGES')
f=open( 'psi4out.xyz', 'w' )
f.write( "17  " )
f.write( str(ee) + "\n" )
f.write( MOL.save_string_xyz() )
f.close()
--------------------------------------------------------------------------

    Molecular point group: c1
  Charge       = 0
  Multiplicity = 1
  Basis Set: 6-31G*
  Basis Set:
  @DF-RHF Final Energy:  -344.90524615556211
    Total Energy =                       -344.9052461555623950
    Molecular point group: c1
  Basis Set: 6-31G*
  Basis Set:
  Basis Set: 6-31G*
  Basis Set:
  @DF-RHF Final Energy:  -344.90550688355984
    Total Energy =                       -344.9055068835600082
  Basis Set: 6-31G*
  Basis Set:
  Basis Set: 6-31G*
  Basis Set:
  @DF-RHF Final Energy:  -344.90486359764128
    Total Energy =                       -344.9048635976410537
  Basis Set: 6-31G*
  Basis Set:
  Basis Set: 6-31G*
  Basis Set:
  @DF-RHF Final Energy:  -344.90554568071855
    Total Energy =                       -344.9055456807184328
  Basis Set: 6-31G*
  Basis Set:
  Basis Set: 6-31G*
  Basis Set:
  @DF-RHF Final Energy:  -344.90554783820488
    Total Energy =                       -344.9055478382049955
  Basis Set: 6-31G*
  Basis Set:
  Charge       = 0
  Multiplicity = 1
  Basis Set: 6-31G*
  Basis Set:

    Orbital Energies (a.u.)
    -----------------------

    Doubly Occupied:

       1A    -20.604561     2A    -20.544172     3A    -11.371378
       4A    -11.281167     5A    -11.234834     6A    -11.231077
       7A    -11.218485     8A     -1.469163     9A     -1.361765
      10A     -1.084396    11A     -0.998893    12A     -0.941829
      13A     -0.831298    14A     -0.774356    15A     -0.696895
      16A     -0.680250    17A     -0.672943    18A     -0.637067
      19A     -0.595888    20A     -0.578587    21A     -0.549504
      22A     -0.545769    23A     -0.525475    24A     -0.509446
      25A     -0.489329    26A     -0.483554    27A     -0.454891
      28A     -0.431675

  @DF-RHF Final Energy:  -344.90554814009698

   => Energetics <=

    Nuclear Repulsion Energy =            314.1916881891003754
    One-Electron Energy =               -1092.5971728763306601
    Two-Electron Energy =                 433.4999365471330748
    DFT Exchange-Correlation Energy =       0.0000000000000000
    Empirical Dispersion Energy =           0.0000000000000000
    PCM Polarization Energy =               0.0000000000000000
    EFP Energy =                            0.0000000000000000
    Total Energy =                       -344.9055481400971530
    Molecular point group: c1
  Basis Set: 6-31G*
  Basis Set:

  -Total Gradient:
     Atom            X                  Y                   Z
    ------   -----------------  -----------------  -----------------
       1        0.000097120387    -0.000208712567    -0.000177929955
       2       -0.000133780272     0.000242808233     0.000285887518
       3       -0.000075292135     0.000167701414    -0.000239414885
       4        0.000012293483     0.000000609211    -0.000000546897
       5       -0.000002446746    -0.000026405346    -0.000015716742
       6        0.000107337044    -0.000208321503     0.000155040022
       7        0.000009638981    -0.000011831498    -0.000005216707
       8       -0.000000583739     0.000025254161     0.000003230907
       9       -0.000016975114     0.000017389042    -0.000005405605
      10       -0.000010183402    -0.000021716329     0.000004198881
      11        0.000021382775     0.000003840340     0.000007836254
      12       -0.000011329693     0.000002427602    -0.000006350515
      13        0.000002338660     0.000006662350     0.000004433599
      14       -0.000013961132     0.000004200848    -0.000008759030
      15        0.000001998601     0.000000448109    -0.000000196255
      16        0.000011733787     0.000006874587    -0.000002111596
      17        0.000000708519    -0.000001228653     0.000001021000

  **** Optimization is complete! (in 6 steps) ****
    Final optimized geometry and variables:
    Molecular point group: c1

    Geometry (in Angstrom), charge = 0, multiplicity = 1:

    O            1.553727193260    -0.284401504304     1.071620156192
    C            0.738085344673    -0.192761581933     0.211448552794
    C           -0.602986497182    -0.883626283592     0.213136840338
    O            0.915541008773     0.542051581374    -0.879721166897
    C           -1.783821017055     0.096388565968     0.198011454303
    H           -0.649688665866    -1.526206056382    -0.661529871104
    H           -0.635906637280    -1.511563683033     1.094135478401
    C           -3.127658725413    -0.628701651812     0.241314125191
    H           -1.726693796370     0.714059448093    -0.691116223371
    H           -1.705246724640     0.764597465126     1.051700334441
    H           -3.245418677149    -1.287258667783    -0.614416843596
    H           -3.950108659688     0.079061691608     0.230061352090
    H           -3.221217918877    -1.231658616253     1.139608810472
    C            2.141057216785     1.242864955212    -0.990206478002
    H            2.256545667911     1.937501106276    -0.170739006550
    H            2.093778861325     1.774564965860    -1.927776363309
    H            2.973225842904     0.553755183908    -0.991724939226

  Mulliken Charges: (a.u.)
   Center  Symbol    Alpha    Beta     Spin     Total
       1     O     4.28523  4.28523  0.00000 -0.57046
       2     C     2.61486  2.61486  0.00000  0.77029
       3     C     3.19627  3.19627  0.00000 -0.39254
       4     O     4.30264  4.30264  0.00000 -0.60528
       5     C     3.16316  3.16316  0.00000 -0.32631
       6     H     0.40446  0.40446  0.00000  0.19109
       7     H     0.39889  0.39889  0.00000  0.20221
       8     C     3.24133  3.24133  0.00000 -0.48265
       9     H     0.40708  0.40708  0.00000  0.18583
      10     H     0.41422  0.41422  0.00000  0.17155
      11     H     0.41952  0.41952  0.00000  0.16096
      12     H     0.41530  0.41530  0.00000  0.16941
      13     H     0.41843  0.41843  0.00000  0.16314
      14     C     3.09228  3.09228  0.00000 -0.18455
      15     H     0.40888  0.40888  0.00000  0.18224
      16     H     0.40881  0.40881  0.00000  0.18238
      17     H     0.40866  0.40866  0.00000  0.18269

   Total alpha = 28.00000, Total beta = 28.00000, Total charge =  0.00000
