  ==> Input File <==

--------------------------------------------------------------------------
set {
	reference rhf
	basis cc-pvtz
}

set_num_threads( 4 )
memory 2 gb

molecule MOL {
0 1

H	 -3.144994	 -1.202467	 -0.018751
O	 -2.321472	 -0.864941	 -0.318626
C	 -2.021813	 0.336996	 0.342658
C	 -0.669613	 0.837286	 -0.127252
H	 -2.780861	 1.084746	 0.127159
H	 -2.006390	 0.184138	 1.420053
C	 0.490865	 -0.082543	 0.241244
H	 -0.708709	 0.967192	 -1.204587
H	 -0.507562	 1.822272	 0.303070
C	 1.839800	 0.429565	 -0.255472
H	 0.305636	 -1.070211	 -0.165276
H	 0.527397	 -0.195943	 1.322876
C	 3.017028	 -0.107319	 0.551792
H	 1.964675	 0.154299	 -1.299185
H	 1.848333	 1.516147	 -0.224548
H	 3.056335	 -1.190702	 0.511141
H	 3.959433	 0.272477	 0.173727
H	 2.939665	 0.180029	 1.595291

	symmetry c1
}
set optking {
	frozen_dihedral = ("
		14 10 7 11
	")
}

ee = optimize('scf')
oeprop('DIPOLE', 'QUADRUPOLE', 'MULLIKEN_CHARGES')
f=open( 'psi4out.xyz', 'w' )
f.write( "18  " )
f.write( str(ee) + "\n" )
f.write( MOL.save_string_xyz() )
f.close()
--------------------------------------------------------------------------

    Molecular point group: c1
  Charge       = 0
  Multiplicity = 1
  Basis Set: CC-PVTZ
  Basis Set:
  @DF-RHF Final Energy:  -271.28494650098850
    Total Energy =                       -271.2849465009883261
    Molecular point group: c1
  Basis Set: CC-PVTZ
  Basis Set:
  Basis Set: CC-PVTZ
  Basis Set:
  @DF-RHF Final Energy:  -271.28517011454704
    Total Energy =                       -271.2851701145473271
  Basis Set: CC-PVTZ
  Basis Set:
  Basis Set: CC-PVTZ
  Basis Set:
  @DF-RHF Final Energy:  -271.28521245080094
    Total Energy =                       -271.2852124508011684
  Basis Set: CC-PVTZ
  Basis Set:
  Charge       = 0
  Multiplicity = 1
  Basis Set: CC-PVTZ
  Basis Set:

    Orbital Energies (a.u.)
    -----------------------

    Doubly Occupied:

       1A    -20.546353     2A    -11.265822     3A    -11.210325
       4A    -11.209054     5A    -11.204887     6A    -11.202954
       7A     -1.364201     8A     -1.075881     9A     -1.009967
      10A     -0.914164    11A     -0.818347    12A     -0.784407
      13A     -0.708705    14A     -0.641455    15A     -0.627568
      16A     -0.585503    17A     -0.573167    18A     -0.556838
      19A     -0.524433    20A     -0.501386    21A     -0.490530
      22A     -0.467738    23A     -0.458599    24A     -0.449245
      25A     -0.430586

  @DF-RHF Final Energy:  -271.28521283346606

   => Energetics <=

    Nuclear Repulsion Energy =            249.1971202239513161
    One-Electron Energy =                -861.7204367393128450
    Two-Electron Energy =                 341.2381036818954385
    DFT Exchange-Correlation Energy =       0.0000000000000000
    Empirical Dispersion Energy =           0.0000000000000000
    PCM Polarization Energy =               0.0000000000000000
    EFP Energy =                            0.0000000000000000
    Total Energy =                       -271.2852128334661188
    Molecular point group: c1
  Basis Set: CC-PVTZ
  Basis Set:

  -Total Gradient:
     Atom            X                  Y                   Z
    ------   -----------------  -----------------  -----------------
       1       -0.000001727541    -0.000004185568    -0.000002239994
       2        0.000026450651    -0.000017610580     0.000036609650
       3       -0.000049950067     0.000028352045    -0.000082444627
       4        0.000034015205    -0.000008452346     0.000078719278
       5       -0.000009830155     0.000013001935     0.000014293121
       6        0.000012062885    -0.000011098893    -0.000012152955
       7        0.002621243019    -0.002686991308     0.004048608687
       8       -0.000011066344    -0.000002904797     0.000012385976
       9       -0.000010274033     0.000021452165     0.000001501913
      10       -0.002491014121     0.004469625398    -0.002072813866
      11       -0.001803810590     0.001547866049    -0.003106529454
      12        0.000004905344     0.000013715817    -0.000022038929
      13       -0.000010260347     0.000023040908    -0.000011451128
      14        0.001674462374    -0.003355384550     0.001095546638
      15       -0.000011904413    -0.000016020940     0.000008945817
      16        0.000002801224    -0.000005326059     0.000006335990
      17        0.000015385210    -0.000003275572     0.000003768642
      18        0.000008511693    -0.000005803704     0.000002955242

  **** Optimization is complete! (in 4 steps) ****
    Final optimized geometry and variables:
    Molecular point group: c1

    Geometry (in Angstrom), charge = 0, multiplicity = 1:

    H           -3.127978283921    -1.294777072247    -0.140879616530
    O           -2.303112669473    -0.943669623054    -0.420524930775
    C           -2.037004953829     0.260355218769     0.251412965826
    C           -0.680882852098     0.781314728454    -0.183388903467
    H           -2.801402796008     0.997797697843     0.019916062769
    H           -2.045585628561     0.103858204835     1.328426091368
    C            0.485566880712    -0.119865091517     0.218299315703
    H           -0.693293172329     0.907303583197    -1.262078252785
    H           -0.545621842203     1.770016569128     0.247315120331
    C            1.830060188425     0.380784689507    -0.314872718866
    H            0.289846354369    -1.111601106089    -0.171187919132
    H            0.521243247681    -0.195046511272     1.302021622702
    C            3.021105093828    -0.189270854861     0.451710577939
    H            1.929183761682     0.089210166979    -1.356055435307
    H            1.866604415168     1.465430272693    -0.279388957837
    H            3.014313800953    -1.274244922764     0.431196250866
    H            3.960631293015     0.143055506546     0.024605260836
    H            3.001997133866     0.119624416820     1.491637235394

  Mulliken Charges: (a.u.)
   Center  Symbol    Alpha    Beta     Spin     Total
       1     H     0.39562  0.39562  0.00000  0.20877
       2     O     4.19897  4.19897  0.00000 -0.39794
       3     C     2.97371  2.97371  0.00000  0.05258
       4     C     3.09087  3.09087  0.00000 -0.18174
       5     H     0.46519  0.46519  0.00000  0.06961
       6     H     0.47368  0.47368  0.00000  0.05264
       7     C     3.08836  3.08836  0.00000 -0.17672
       8     H     0.45212  0.45212  0.00000  0.09576
       9     H     0.45446  0.45446  0.00000  0.09107
      10     C     3.08417  3.08417  0.00000 -0.16833
      11     H     0.44390  0.44390  0.00000  0.11219
      12     H     0.45947  0.45947  0.00000  0.08106
      13     C     3.14923  3.14923  0.00000 -0.29846
      14     H     0.45261  0.45261  0.00000  0.09479
      15     H     0.45682  0.45682  0.00000  0.08635
      16     H     0.45439  0.45439  0.00000  0.09122
      17     H     0.44975  0.44975  0.00000  0.10050
      18     H     0.45667  0.45667  0.00000  0.08666

   Total alpha = 25.00000, Total beta = 25.00000, Total charge = -0.00000
