                              Psi4 1.0.54 Driver

  ==> Input File <==

--------------------------------------------------------------------------
set {
	reference rhf
	basis cc-pvtz
}

set_num_threads( 4 )
memory 2 gb

molecule MOL {
0 1

H	 -0.125910	 2.041876	 1.604655
C	 0.742473	 1.393640	 1.427584
C	 0.692262	 0.592428	 0.156232
O	 1.625723	 1.360804	 2.212713
C	 -0.554654	 -0.292621	 0.086567
H	 1.597667	 0.004136	 0.085588
H	 0.681212	 1.297375	 -0.672506
C	 -1.846385	 0.513195	 -0.016346
H	 -0.473986	 -0.956115	 -0.769708
H	 -0.597929	 -0.929215	 0.966651
C	 -3.089953	 -0.365049	 -0.098564
H	 -1.798267	 1.154820	 -0.891143
H	 -1.925398	 1.173265	 0.842889
H	 -3.055079	 -1.012299	 -0.968245
H	 -3.988403	 0.236438	 -0.170014
H	 -3.183055	 -0.995885	 0.779079

	symmetry c1
}
set optking {
	frozen_dihedral = ("
		6 3 5 9
	")
}

ee,wfn = optimize('scf', return_wfn=True)
oeprop( wfn, 'DIPOLE', 'QUADRUPOLE', 'MULLIKEN_CHARGES')
f=open( 'psi4out.xyz', 'w' )
f.write( "16  " )
f.write( str(ee) + "\n" )
f.write( MOL.save_string_xyz() )
f.close()
--------------------------------------------------------------------------

    Molecular point group: c1
  Charge       = 0
  Multiplicity = 1
  Basis Set: CC-PVTZ
  Basis Set:
  @DF-RHF Final Energy:  -270.11599322051183
    Total Energy =                       -270.1159932205121095
    Molecular point group: c1
  Basis Set: CC-PVTZ
  Basis Set:
  Basis Set: CC-PVTZ
  Basis Set:
  @DF-RHF Final Energy:  -270.11637417044108
    Total Energy =                       -270.1163741704407357
  Basis Set: CC-PVTZ
  Basis Set:
  Basis Set: CC-PVTZ
  Basis Set:
  @DF-RHF Final Energy:  -270.11677617197086
    Total Energy =                       -270.1167761719707414
  Basis Set: CC-PVTZ
  Basis Set:
  Basis Set: CC-PVTZ
  Basis Set:
  @DF-RHF Final Energy:  -270.11689359075666
    Total Energy =                       -270.1168935907568311
  Basis Set: CC-PVTZ
  Basis Set:
  @DF-RHF Final Energy:  -270.11690599836402
    Total Energy =                       -270.1169059983639045
  @DF-RHF Final Energy:  -270.11691881668071
    Total Energy =                       -270.1169188166808226
  Basis Set: CC-PVTZ
  Basis Set:
  @DF-RHF Final Energy:  -270.11692345950627
    Total Energy =                       -270.1169234595063244
  Basis Set: CC-PVTZ
  Basis Set:
  Basis Set: CC-PVTZ
  Basis Set:
  @DF-RHF Final Energy:  -270.11693187336300
    Total Energy =                       -270.1169318733627165
  Basis Set: CC-PVTZ
  Basis Set:
  Basis Set: CC-PVTZ
  Basis Set:
  @DF-RHF Final Energy:  -270.11693660911948
    Total Energy =                       -270.1169366091194206
  Basis Set: CC-PVTZ
  Basis Set:
  Charge       = 0
  Multiplicity = 1
  Basis Set: CC-PVTZ
  Basis Set:

    Orbital Energies (a.u.)
    -----------------------

    Doubly Occupied:

       1A    -20.551649     2A    -11.320295     3A    -11.234517
       4A    -11.233699     5A    -11.228762     6A    -11.217450
       7A     -1.405995     8A     -1.096831     9A     -1.018341
      10A     -0.906032    11A     -0.829450    12A     -0.779494
      13A     -0.681270    14A     -0.655037    15A     -0.620231
      16A     -0.603573    17A     -0.584367    18A     -0.557098
      19A     -0.535026    20A     -0.516464    21A     -0.489188
      22A     -0.481181    23A     -0.473142    24A     -0.410603

  @DF-RHF Final Energy:  -270.11693683155045

   => Energetics <=

    Nuclear Repulsion Energy =            232.5068180420857118
    One-Electron Energy =                -826.3881141643713590
    Two-Electron Energy =                 323.7643592907351149
    DFT Exchange-Correlation Energy =       0.0000000000000000
    Empirical Dispersion Energy =           0.0000000000000000
    PCM Polarization Energy =               0.0000000000000000
    EFP Energy =                            0.0000000000000000
    Total Energy =                       -270.1169368315505608
    Molecular point group: c1
  Basis Set: CC-PVTZ
  Basis Set:

  -Total Gradient:
     Atom            X                  Y                   Z
    ------   -----------------  -----------------  -----------------
       1       -0.000004199605    -0.000003014404     0.000004349973
       2       -0.000002578433    -0.000015101688    -0.000040965265
       3        0.000092104845    -0.000002255925     0.000238272812
       4        0.000006286627     0.000005627959     0.000024019778
       5       -0.000137771947     0.000124528944    -0.000146908845
       6       -0.000027103139     0.000006683839    -0.000166281181
       7       -0.000010524653    -0.000004839404     0.000003598942
       8        0.000018425599    -0.000002911127     0.000004488308
       9        0.000072545892    -0.000110312598     0.000083059345
      10        0.000003542193     0.000009699972    -0.000001009994
      11       -0.000004358450    -0.000007453544    -0.000000587428
      12        0.000000358379    -0.000000648486     0.000000026011
      13       -0.000004681359     0.000000643602    -0.000001497090
      14        0.000000081841    -0.000000968145     0.000001103242
      15       -0.000001465926     0.000000366020     0.000000214581
      16       -0.000000661865    -0.000000045016    -0.000001883185

  **** Optimization is complete! (in 10 steps) ****
    Final optimized geometry and variables:
    Molecular point group: c1

    Geometry (in Angstrom), charge = 0, multiplicity = 1:

    H            0.505216109163     1.675625914459     0.948251719247
    C            1.241971036395     0.885569653824     0.764974563733
    C            1.087100809521     0.120055381169    -0.521871050748
    O            2.091417323569     0.678924266744     1.562263102687
    C           -0.173906780857    -0.756976308077    -0.556969791575
    H            1.970150179771    -0.491921218303    -0.646666778036
    H            1.051269424871     0.836813846159    -1.338773543791
    C           -1.495496551146     0.009210056052    -0.593554493950
    H           -0.110637123277    -1.388789603705    -1.436686618555
    H           -0.163294539476    -1.426992657126     0.297761132634
    C           -2.702392800010    -0.915842878035    -0.710386582590
    H           -1.486510397568     0.698332632522    -1.433627529902
    H           -1.602642552058     0.616887055683     0.299254522331
    H           -2.651733419202    -1.511691595715    -1.615366423244
    H           -3.626697091800    -0.351038165537    -0.736866471203
    H           -2.755063097042    -1.597743108326     0.131425865239

  Mulliken Charges: (a.u.)
   Center  Symbol    Alpha    Beta     Spin     Total
       1     H     0.46212  0.46212  0.00000  0.07576
       2     C     2.90391  2.90391  0.00000  0.19218
       3     C     3.08931  3.08931  0.00000 -0.17862
       4     O     4.16624  4.16624  0.00000 -0.33247
       5     C     3.10430  3.10430  0.00000 -0.20859
       6     H     0.43732  0.43732  0.00000  0.12536
       7     H     0.45065  0.45065  0.00000  0.09870
       8     C     3.08945  3.08945  0.00000 -0.17891
       9     H     0.44563  0.44563  0.00000  0.10875
      10     H     0.44503  0.44503  0.00000  0.10994
      11     C     3.14836  3.14836  0.00000 -0.29672
      12     H     0.45261  0.45261  0.00000  0.09477
      13     H     0.45216  0.45216  0.00000  0.09568
      14     H     0.45356  0.45356  0.00000  0.09287
      15     H     0.44667  0.44667  0.00000  0.10667
      16     H     0.45269  0.45269  0.00000  0.09462

   Total alpha = 24.00000, Total beta = 24.00000, Total charge =  0.00000

*** Psi4 exiting successfully. Buy a developer a beer!
