  ==> Input File <==

--------------------------------------------------------------------------
set {
	reference rhf
	basis 6-31G*
}

set_num_threads( 4 )
memory 2 gb

molecule MOL {
0 1

H	 -3.273446	 0.118016	 0.353723
C	 -2.747413	 -0.063784	 -0.581360
O	 -1.392607	 -0.295399	 -0.366433
H	 -3.159262	 -0.947679	 -1.048534
H	 -2.908694	 0.789107	 -1.239382
C	 -0.719715	 0.768384	 0.229244
C	 0.719720	 0.768376	 -0.229267
H	 -1.185038	 1.714362	 -0.050570
H	 -0.750528	 0.687237	 1.313896
O	 1.392611	 -0.295398	 0.366430
H	 0.750534	 0.687200	 -1.313918
H	 1.185043	 1.714359	 0.050526
C	 2.706965	 -0.449871	 -0.062409
H	 2.756559	 -0.644779	 -1.131878
H	 3.305899	 0.433456	 0.155466
H	 3.125548	 -1.294566	 0.467107

	symmetry c1
}
set optking {
	frozen_dihedral = ("
		2 3 6 7
	")
}

ee = optimize('scf')
oeprop('DIPOLE', 'QUADRUPOLE', 'MULLIKEN_CHARGES')
f=open( 'psi4out.xyz', 'w' )
f.write( "16  " )
f.write( str(ee) + "\n" )
f.write( MOL.save_string_xyz() )
f.close()
--------------------------------------------------------------------------

    Molecular point group: c1
  Charge       = 0
  Multiplicity = 1
  Basis Set: 6-31G*
  Basis Set:
  @DF-RHF Final Energy:  -306.97521587021214
    Total Energy =                       -306.9752158702121392
    Molecular point group: c1
  Basis Set: 6-31G*
  Basis Set:
  Basis Set: 6-31G*
  Basis Set:
  @DF-RHF Final Energy:  -306.97534114469562
    Total Energy =                       -306.9753411446955056
  Basis Set: 6-31G*
  Basis Set:
  Basis Set: 6-31G*
  Basis Set:
  @DF-RHF Final Energy:  -306.97537028077562
    Total Energy =                       -306.9753702807756213
  Basis Set: 6-31G*
  Basis Set:
  Charge       = 0
  Multiplicity = 1
  Basis Set: 6-31G*
  Basis Set:

    Orbital Energies (a.u.)
    -----------------------

    Doubly Occupied:

       1A    -20.553149     2A    -20.552312     3A    -11.269152
       4A    -11.268438     5A    -11.265023     6A    -11.263191
       7A     -1.387008     8A     -1.369653     9A     -1.030623
      10A     -0.936455    11A     -0.894143    12A     -0.822619
      13A     -0.685555    14A     -0.677704    15A     -0.656757
      16A     -0.637870    17A     -0.626235    18A     -0.598409
      19A     -0.557452    20A     -0.530844    21A     -0.507891
      22A     -0.474755    23A     -0.468129    24A     -0.417793
      25A     -0.408790

  @DF-RHF Final Energy:  -306.97537084721893

   => Energetics <=

    Nuclear Repulsion Energy =            258.3463153812028281
    One-Electron Energy =                -930.9234715043028245
    Two-Electron Energy =                 365.6017852758812410
    DFT Exchange-Correlation Energy =       0.0000000000000000
    Empirical Dispersion Energy =           0.0000000000000000
    PCM Polarization Energy =               0.0000000000000000
    EFP Energy =                            0.0000000000000000
    Total Energy =                       -306.9753708472186986
    Molecular point group: c1
  Basis Set: 6-31G*
  Basis Set:

  -Total Gradient:
     Atom            X                  Y                   Z
    ------   -----------------  -----------------  -----------------
       1        0.000031602672     0.000005169002     0.000000286826
       2        0.000519268420     0.000880875234    -0.002407103795
       3       -0.001007165544    -0.000822770555     0.002704064732
       4       -0.000033718801    -0.000002922569    -0.000003600494
       5        0.000021163620     0.000004254442     0.000023590544
       6        0.001008497157    -0.001407042693     0.001484765332
       7       -0.000575307032     0.001426392037    -0.001797386923
       8       -0.000003680987    -0.000005019243    -0.000013064252
       9        0.000023744973    -0.000001349337    -0.000027037885
      10        0.000025301082    -0.000067761062     0.000021180607
      11       -0.000004536363    -0.000024865197     0.000029872287
      12        0.000013350073    -0.000008081064     0.000000807129
      13       -0.000016094277     0.000027029026    -0.000023092232
      14        0.000006010632    -0.000003780820    -0.000001104962
      15        0.000005796406    -0.000001642202     0.000001882269
      16       -0.000014232031     0.000001515002     0.000005940814

  **** Optimization is complete! (in 4 steps) ****
    Final optimized geometry and variables:
    Molecular point group: c1

    Geometry (in Angstrom), charge = 0, multiplicity = 1:

    H           -3.284854976094     0.051575422014     0.459545583874
    C           -2.745900933233    -0.141272381143    -0.466387909469
    O           -1.390243884143    -0.359324385895    -0.240142249883
    H           -3.147333038382    -1.036562979518    -0.920889578977
    H           -2.907205794647     0.698577863837    -1.139943910590
    C           -0.709095657094     0.711100149160     0.341699895889
    C            0.733814177448     0.707931364071    -0.108714868974
    H           -1.155528440763     1.656458312008     0.034863984143
    H           -0.760384639268     0.651945947632     1.425762500719
    O            1.399503373492    -0.370326202228     0.468192318284
    H            0.767261683181     0.646315592199    -1.194618569119
    H            1.204381066644     1.645752575618     0.190660378542
    C            2.714847876789    -0.522802686814     0.041939654301
    H            2.768260317606    -0.696801705573    -1.030999109241
    H            3.316658028882     0.353403783729     0.279612208760
    H            3.127215213452    -1.379717541570     0.556406292538

  Mulliken Charges: (a.u.)
   Center  Symbol    Alpha    Beta     Spin     Total
       1     H     0.42974  0.42974  0.00000  0.14052
       2     C     3.07971  3.07971  0.00000 -0.15942
       3     O     4.30108  4.30108  0.00000 -0.60217
       4     H     0.41140  0.41140  0.00000  0.17720
       5     H     0.43129  0.43129  0.00000  0.13743
       6     C     2.99356  2.99356  0.00000  0.01289
       7     C     2.99088  2.99088  0.00000  0.01825
       8     H     0.43312  0.43312  0.00000  0.13376
       9     H     0.41902  0.41902  0.00000  0.16196
      10     O     4.30032  4.30032  0.00000 -0.60064
      11     H     0.42544  0.42544  0.00000  0.14912
      12     H     0.43349  0.43349  0.00000  0.13303
      13     C     3.07940  3.07940  0.00000 -0.15881
      14     H     0.42851  0.42851  0.00000  0.14299
      15     H     0.43206  0.43206  0.00000  0.13588
      16     H     0.41099  0.41099  0.00000  0.17803

   Total alpha = 25.00000, Total beta = 25.00000, Total charge = -0.00000
