                              Psi4 1.0.54 Driver

  ==> Input File <==

--------------------------------------------------------------------------
set {
	reference rhf
	basis cc-pvtz
}

set_num_threads( 4 )
memory 2 gb

molecule MOL {
0 1

H	 -1.835082	 1.385983	 0.000069
C	 -1.300516	 0.441153	 -0.000028
O	 -0.006604	 0.654344	 -0.000106
O	 -1.828920	 -0.612308	 0.000113
C	 0.441974	 2.006602	 -0.000277
C	 1.952097	 1.991458	 -0.000749
H	 0.048104	 2.505321	 0.873853
H	 0.047556	 2.505308	 -0.874171
H	 2.332826	 1.485875	 0.877546
H	 2.326551	 3.008138	 -0.000884
H	 2.332279	 1.485836	 -0.879257

	symmetry c1
}
set optking {
	frozen_dihedral = ("
		5 3 2 4
	")
}

ee,wfn = optimize('scf', return_wfn=True)
oeprop( wfn, 'DIPOLE', 'QUADRUPOLE', 'MULLIKEN_CHARGES')
f=open( 'psi4out.xyz', 'w' )
f.write( "11  " )
f.write( str(ee) + "\n" )
f.write( MOL.save_string_xyz() )
f.close()
--------------------------------------------------------------------------

    Molecular point group: c1
  Charge       = 0
  Multiplicity = 1
  Basis Set: CC-PVTZ
  Basis Set:
  @DF-RHF Final Energy:  -266.92259531578020
    Total Energy =                       -266.9225953157803133
    Molecular point group: c1
  Basis Set: CC-PVTZ
  Basis Set:
  Basis Set: CC-PVTZ
  Basis Set:
  @DF-RHF Final Energy:  -266.92357120582437
    Total Energy =                       -266.9235712058244872
  Basis Set: CC-PVTZ
  Basis Set:
  Basis Set: CC-PVTZ
  Basis Set:
  @DF-RHF Final Energy:  -266.92373093524861
    Total Energy =                       -266.9237309352486704
  Basis Set: CC-PVTZ
  Basis Set:
  Basis Set: CC-PVTZ
  Basis Set:
  @DF-RHF Final Energy:  -266.92372282236272
    Total Energy =                       -266.9237228223625493
  Basis Set: CC-PVTZ
  Basis Set:
  Basis Set: CC-PVTZ
  Basis Set:
  @DF-RHF Final Energy:  -266.92373491903851
    Total Energy =                       -266.9237349190385657
  Basis Set: CC-PVTZ
  Basis Set:
  Charge       = 0
  Multiplicity = 1
  Basis Set: CC-PVTZ
  Basis Set:

    Orbital Energies (a.u.)
    -----------------------

    Doubly Occupied:

       1A    -20.605565     2A    -20.543959     3A    -11.371558
       4A    -11.304593     5A    -11.232147     6A     -1.476986
       7A     -1.382991     8A     -1.056809     9A     -0.889358
      10A     -0.848753    11A     -0.739371    12A     -0.699778
      13A     -0.672114    14A     -0.599342    15A     -0.581315
      16A     -0.566333    17A     -0.530377    18A     -0.525124
      19A     -0.459509    20A     -0.453729

  @DF-RHF Final Energy:  -266.92373770111487

   => Energetics <=

    Nuclear Repulsion Energy =            176.6743399384342865
    One-Electron Energy =                -714.1167279377835939
    Two-Electron Energy =                 270.5186502982344336
    DFT Exchange-Correlation Energy =       0.0000000000000000
    Empirical Dispersion Energy =           0.0000000000000000
    PCM Polarization Energy =               0.0000000000000000
    EFP Energy =                            0.0000000000000000
    Total Energy =                       -266.9237377011148737
    Molecular point group: c1
  Basis Set: CC-PVTZ
  Basis Set:

  -Total Gradient:
     Atom            X                  Y                   Z
    ------   -----------------  -----------------  -----------------
       1        0.000013310324     0.000009595525     0.000001168279
       2        0.000067455400     0.000001377437    -0.000003786773
       3       -0.000112636768    -0.000033553955     0.000002055741
       4        0.000003820066    -0.000010430239     0.000001072702
       5       -0.000006349948     0.000000940484    -0.000000281994
       6        0.000018455429     0.000028879218    -0.000000132990
       7        0.000010562298     0.000002325329    -0.000007437828
       8        0.000010556252     0.000002609581     0.000007304299
       9       -0.000006269013    -0.000000885104    -0.000000121123
      10        0.000007379562    -0.000000001699    -0.000000017214
      11       -0.000006283600    -0.000000856580     0.000000176900

  **** Optimization is complete! (in 6 steps) ****
    Final optimized geometry and variables:
    Molecular point group: c1

    Geometry (in Angstrom), charge = 0, multiplicity = 1:

    H           -1.767344169987     0.467929912763     0.007407983047
    C           -1.170854241650    -0.445814611030     0.005978027385
    O            0.129501141319    -0.233737170086    -0.000236103078
    O           -1.648587639040    -1.516932541723     0.009677043023
    C            0.587613213119     1.107600298607    -0.004234202195
    C            2.097798543801     1.087273647773    -0.011162039808
    H            0.214917544596     1.619222152236     0.875704603044
    H            0.206820185955     1.616752786616    -0.882136285003
    H            2.475037330568     0.577946091035     0.865816240263
    H            2.479047884547     2.101311134965    -0.014337962067
    H            2.466949451160     0.575486814862    -0.890148079345

  Mulliken Charges: (a.u.)
   Center  Symbol    Alpha    Beta     Spin     Total
       1     H     0.47531  0.47531  0.00000  0.04939
       2     C     2.84609  2.84609  0.00000  0.30782
       3     O     4.12358  4.12358  0.00000 -0.24716
       4     O     4.17628  4.17628  0.00000 -0.35255
       5     C     2.97812  2.97812  0.00000  0.04375
       6     C     3.13387  3.13387  0.00000 -0.26774
       7     H     0.45919  0.45919  0.00000  0.08161
       8     H     0.45920  0.45920  0.00000  0.08161
       9     H     0.44654  0.44654  0.00000  0.10692
      10     H     0.45528  0.45528  0.00000  0.08945
      11     H     0.44654  0.44654  0.00000  0.10692

   Total alpha = 20.00000, Total beta = 20.00000, Total charge = -0.00000

*** Psi4 exiting successfully. Buy a developer a beer!
