                              Psi4 1.0.54 Driver

  ==> Input File <==

--------------------------------------------------------------------------
set {
	reference rhf
	basis cc-pvtz
}

set_num_threads( 4 )
memory 2 gb

molecule MOL {
0 1

H	 -2.284029	 -1.583928	 0.284443
O	 -2.321472	 -0.864941	 -0.318626
C	 -2.021813	 0.336996	 0.342658
C	 -0.669613	 0.837286	 -0.127252
H	 -2.780861	 1.084746	 0.127159
H	 -2.006390	 0.184138	 1.420053
C	 0.490865	 -0.082543	 0.241244
H	 -0.708709	 0.967192	 -1.204587
H	 -0.507562	 1.822272	 0.303070
C	 1.839800	 0.429565	 -0.255472
H	 0.305636	 -1.070211	 -0.165276
H	 0.527397	 -0.195943	 1.322876
C	 3.001144	 -0.485193	 0.119072
H	 1.804373	 0.541073	 -1.335756
H	 2.020437	 1.423114	 0.146921
H	 2.866892	 -1.477297	 -0.298806
H	 3.943543	 -0.095749	 -0.249061
H	 3.085064	 -0.590459	 1.195790

	symmetry c1
}
set optking {
	frozen_dihedral = ("
		1 2 3 4
	")
}

ee,wfn = optimize('scf', return_wfn=True)
oeprop( wfn, 'DIPOLE', 'QUADRUPOLE', 'MULLIKEN_CHARGES')
f=open( 'psi4out.xyz', 'w' )
f.write( "18  " )
f.write( str(ee) + "\n" )
f.write( MOL.save_string_xyz() )
f.close()
--------------------------------------------------------------------------

    Molecular point group: c1
  Charge       = 0
  Multiplicity = 1
  Basis Set: CC-PVTZ
  Basis Set:
  @DF-RHF Final Energy:  -271.28475287866485
    Total Energy =                       -271.2847528786650173
    Molecular point group: c1
  Basis Set: CC-PVTZ
  Basis Set:
  Basis Set: CC-PVTZ
  Basis Set:
  @DF-RHF Final Energy:  -271.28529644732129
    Total Energy =                       -271.2852964473214001
  Basis Set: CC-PVTZ
  Basis Set:
  Basis Set: CC-PVTZ
  Basis Set:
  @DF-RHF Final Energy:  -271.28545616571967
    Total Energy =                       -271.2854561657196086
  Basis Set: CC-PVTZ
  Basis Set:
  Basis Set: CC-PVTZ
  Basis Set:
  @DF-RHF Final Energy:  -271.28545764460762
    Total Energy =                       -271.2854576446074475
  Basis Set: CC-PVTZ
  Basis Set:
  Charge       = 0
  Multiplicity = 1
  Basis Set: CC-PVTZ
  Basis Set:

    Orbital Energies (a.u.)
    -----------------------

    Doubly Occupied:

       1A    -20.545373     2A    -11.266243     3A    -11.212913
       4A    -11.211059     5A    -11.210421     6A    -11.206310
       7A     -1.362717     8A     -1.079654     9A     -1.011769
      10A     -0.918684    11A     -0.824156    12A     -0.787963
      13A     -0.706490    14A     -0.641396    15A     -0.626166
      16A     -0.588560    17A     -0.575221    18A     -0.566033
      19A     -0.524850    20A     -0.503931    21A     -0.484422
      22A     -0.476886    23A     -0.464447    24A     -0.460353
      25A     -0.424795

  @DF-RHF Final Energy:  -271.28545787836038

   => Energetics <=

    Nuclear Repulsion Energy =            248.9995173686704959
    One-Electron Energy =                -861.2083216043149605
    Two-Electron Energy =                 340.9233463572838900
    DFT Exchange-Correlation Energy =       0.0000000000000000
    Empirical Dispersion Energy =           0.0000000000000000
    PCM Polarization Energy =               0.0000000000000000
    EFP Energy =                            0.0000000000000000
    Total Energy =                       -271.2854578783606030
    Molecular point group: c1
  Basis Set: CC-PVTZ
  Basis Set:

  -Total Gradient:
     Atom            X                  Y                   Z
    ------   -----------------  -----------------  -----------------
       1       -0.000504398683     0.000076172727     0.000118181475
       2        0.000565868858    -0.000063025365    -0.000267942308
       3        0.000085632132    -0.000166360007     0.000403609874
       4       -0.000154985987     0.000135720378    -0.000256922811
       5       -0.000005619356     0.000004985534    -0.000002135436
       6        0.000000775008    -0.000003461250     0.000001244006
       7        0.000005863005     0.000001857256    -0.000000239334
       8        0.000006103721     0.000003941787    -0.000002040483
       9        0.000006441862    -0.000009855881    -0.000000978198
      10        0.000005318484     0.000008980993     0.000006655015
      11       -0.000008192500     0.000011267218     0.000001569883
      12        0.000000008389    -0.000000043829    -0.000000985939
      13       -0.000002861438    -0.000001785540     0.000000141707
      14       -0.000003524514    -0.000001379909     0.000002120970
      15        0.000003713807     0.000003229655    -0.000000427485
      16        0.000000362783    -0.000001365740     0.000001263689
      17       -0.000000339969     0.000001218370    -0.000002016350
      18       -0.000000165608    -0.000000096396    -0.000001098275

  **** Optimization is complete! (in 5 steps) ****
    Final optimized geometry and variables:
    Molecular point group: c1

    Geometry (in Angstrom), charge = 0, multiplicity = 1:

    H           -2.344236055560    -1.610728647532     0.266614958556
    O           -2.372776513477    -0.891885278378    -0.334430178842
    C           -2.029481115818     0.310271471446     0.311326639637
    C           -0.676847548288     0.829121161234    -0.146990363968
    H           -2.796200447352     1.038755093684     0.075063627726
    H           -2.033763162305     0.178370577128     1.390006828648
    C            0.494077314859    -0.068504598325     0.240180257926
    H           -0.705686435936     0.948687671344    -1.225891244383
    H           -0.533832737126     1.820958578880     0.275779939090
    C            1.843150129931     0.460407304554    -0.238490664092
    H            0.334067789244    -1.060452602331    -0.170140887403
    H            0.518978899852    -0.180033850678     1.322898733476
    C            3.011427698583    -0.439100391959     0.150719644801
    H            1.819490124122     0.572252240234    -1.318836883031
    H            2.004529478559     1.455673885265     0.167016276759
    H            2.896041537755    -1.432922013095    -0.268894674022
    H            3.952894356772    -0.037199003806    -0.205815976249
    H            3.083673087326    -0.543073458566     1.228414353897

  Mulliken Charges: (a.u.)
   Center  Symbol    Alpha    Beta     Spin     Total
       1     H     0.39024  0.39024  0.00000  0.21952
       2     O     4.20884  4.20884  0.00000 -0.41768
       3     C     2.98305  2.98305  0.00000  0.03390
       4     C     3.08031  3.08031  0.00000 -0.16061
       5     H     0.45275  0.45275  0.00000  0.09451
       6     H     0.46964  0.46964  0.00000  0.06071
       7     C     3.09507  3.09507  0.00000 -0.19014
       8     H     0.45242  0.45242  0.00000  0.09516
       9     H     0.45579  0.45579  0.00000  0.08842
      10     C     3.08360  3.08360  0.00000 -0.16720
      11     H     0.45128  0.45128  0.00000  0.09745
      12     H     0.45888  0.45888  0.00000  0.08224
      13     C     3.14997  3.14997  0.00000 -0.29995
      14     H     0.45318  0.45318  0.00000  0.09363
      15     H     0.45567  0.45567  0.00000  0.08865
      16     H     0.45487  0.45487  0.00000  0.09026
      17     H     0.44842  0.44842  0.00000  0.10316
      18     H     0.45601  0.45601  0.00000  0.08798

   Total alpha = 25.00000, Total beta = 25.00000, Total charge =  0.00000

*** Psi4 exiting successfully. Buy a developer a beer!
