                              Psi4 1.0.54 Driver

  ==> Input File <==

--------------------------------------------------------------------------
set {
	reference rhf
	basis cc-pvtz
}

set_num_threads( 4 )
memory 2 gb

molecule MOL {
0 1

H	 -3.201480	 -0.279568	 1.570814
C	 -3.284095	 -0.295132	 0.475452
C	 -2.664803	 0.884629	 -0.223499
O	 -3.837513	 -1.190024	 -0.063254
C	 -1.216901	 1.136108	 0.207794
H	 -2.741999	 0.731343	 -1.292086
H	 -3.270058	 1.750875	 0.034549
C	 -0.247837	 0.040196	 -0.230469
H	 -0.896466	 2.086627	 -0.204727
H	 -1.177608	 1.247748	 1.288621
C	 1.181757	 0.280428	 0.247371
H	 -0.259600	 -0.030819	 -1.314870
H	 -0.591284	 -0.923375	 0.136958
C	 2.151032	 -0.811012	 -0.202643
H	 1.515939	 1.247397	 -0.115449
H	 1.191514	 0.341223	 1.333422
C	 3.580021	 -0.656538	 0.320835
H	 2.170545	 -0.847575	 -1.289412
H	 1.766632	 -1.772905	 0.124928
C	 4.327657	 0.562694	 -0.213579
H	 4.138806	 -1.549270	 0.057813
H	 3.561991	 -0.620783	 1.406976
H	 4.355973	 0.557257	 -1.298551
H	 3.867136	 1.491650	 0.100501
H	 5.351524	 0.571613	 0.142204

	symmetry c1
}
set optking {
	frozen_dihedral = ("
		3 5 8 12
	")
}

ee,wfn = optimize('scf', return_wfn=True)
oeprop( wfn, 'DIPOLE', 'QUADRUPOLE', 'MULLIKEN_CHARGES')
f=open( 'psi4out.xyz', 'w' )
f.write( "25  " )
f.write( str(ee) + "\n" )
f.write( MOL.save_string_xyz() )
f.close()
--------------------------------------------------------------------------

    Molecular point group: c1
  Charge       = 0
  Multiplicity = 1
  Basis Set: CC-PVTZ
  Basis Set:
  @DF-RHF Final Energy:  -387.26039024036339
    Total Energy =                       -387.2603902403632219
    Molecular point group: c1
  Basis Set: CC-PVTZ
  Basis Set:
  Basis Set: CC-PVTZ
  Basis Set:
  @DF-RHF Final Energy:  -387.26038813762341
    Total Energy =                       -387.2603881376235222
  Basis Set: CC-PVTZ
  Basis Set:
  Charge       = 0
  Multiplicity = 1
  Basis Set: CC-PVTZ
  Basis Set:

    Orbital Energies (a.u.)
    -----------------------

    Doubly Occupied:

       1A    -20.551460     2A    -11.321118     3A    -11.233870
       4A    -11.232895     5A    -11.221697     6A    -11.217672
       7A    -11.216242     8A    -11.215020     9A    -11.208856
      10A     -1.406388    11A     -1.105350    12A     -1.070978
      13A     -1.014601    14A     -0.943504    15A     -0.875947
      16A     -0.820881    17A     -0.788834    18A     -0.781732
      19A     -0.668124    20A     -0.663460    21A     -0.635294
      22A     -0.627280    23A     -0.603367    24A     -0.595558
      25A     -0.576930    26A     -0.550677    27A     -0.536371
      28A     -0.528318    29A     -0.508802    30A     -0.497644
      31A     -0.492094    32A     -0.479745    33A     -0.465164
      34A     -0.459343    35A     -0.442687    36A     -0.411991

  @DF-RHF Final Energy:  -387.26038826570732

   => Energetics <=

    Nuclear Repulsion Energy =            439.8373762762759043
    One-Electron Energy =               -1396.2557389431306092
    Two-Electron Energy =                 569.1579744011474986
    DFT Exchange-Correlation Energy =       0.0000000000000000
    Empirical Dispersion Energy =           0.0000000000000000
    PCM Polarization Energy =               0.0000000000000000
    EFP Energy =                            0.0000000000000000
    Total Energy =                       -387.2603882657072063
    Molecular point group: c1
  Basis Set: CC-PVTZ
  Basis Set:

  -Total Gradient:
     Atom            X                  Y                   Z
    ------   -----------------  -----------------  -----------------
       1        0.000390753305    -0.000241605507     0.000178281871
       2       -0.001101432784     0.000744715108     0.000066826325
       3        0.000425584089    -0.000456421034     0.000382690425
       4        0.000265674238    -0.000430078026    -0.000136981060
       5        0.000295299838     0.000594904176    -0.000776171754
       6        0.000031617658     0.000014570436    -0.000164747470
       7       -0.000127859567     0.000046105098     0.000103734573
       8       -0.000598782905    -0.000697871376     0.000458266020
       9        0.000076333623     0.000085823329     0.000058923521
      10       -0.000044061202    -0.000056710486    -0.000029429030
      11       -0.000042091867     0.000032246061    -0.000136636792
      12        0.000438726265     0.000433256369    -0.000019041033
      13       -0.000010017026    -0.000108909446     0.000043648416
      14        0.000013013632     0.000011859382    -0.000011191599
      15        0.000037935771     0.000062926775     0.000007171107
      16       -0.000033206740    -0.000023547060    -0.000007046307
      17       -0.000012626653     0.000000599623    -0.000011761068
      18        0.000014718223    -0.000003567349    -0.000030077339
      19       -0.000019927780    -0.000018331619     0.000011438435
      20        0.000005960703     0.000006288210     0.000007892520
      21        0.000002532583    -0.000014692707    -0.000004994604
      22       -0.000004092736    -0.000000574303     0.000021242758
      23       -0.000000802667    -0.000002478870    -0.000018627936
      24       -0.000004317558     0.000022511602     0.000004164232
      25        0.000001069561    -0.000001018388     0.000002425789

  **** Optimization is complete! (in 3 steps) ****
    Final optimized geometry and variables:
    Molecular point group: c1

    Geometry (in Angstrom), charge = 0, multiplicity = 1:

    H           -3.205029897820    -0.260050468770     1.538817807000
    C           -3.290475740723    -0.278580982511     0.443406033988
    C           -2.666187975114     0.895545940328    -0.261185731064
    O           -3.842758756800    -1.176537765742    -0.091578261426
    C           -1.218509367702     1.144832815703     0.171976883053
    H           -2.741989314708     0.736598662036    -1.329327365260
    H           -3.269713823578     1.765039770864    -0.009078918497
    C           -0.252347730074     0.042914263763    -0.257773085062
    H           -0.892242942869     2.093007906521    -0.241258769495
    H           -1.183608906625     1.258917286726     1.252769144302
    C            1.178442150523     0.286661143106     0.214949834525
    H           -0.263036853294    -0.033291862952    -1.341856857900
    H           -0.595604324174    -0.917852759724     0.116928640904
    C            2.148930569626    -0.801600513583    -0.240153217968
    H            1.508848901160     1.255164021546    -0.147620006365
    H            1.191978318233     0.345824842401     1.301035488786
    C            3.577834690587    -0.647287869382     0.283434360379
    H            2.168207767076    -0.833522003129    -1.327109944215
    H            1.765894722747    -1.765420302957     0.083521738828
    C            4.322501122206     0.576734102298    -0.244240913179
    H            4.138326953581    -1.537325439741     0.014872166404
    H            3.560245710862    -0.617927151742     1.369793606139
    H            4.349290573720     0.578202308665    -1.329294352242
    H            3.860766191722     1.502893176318     0.076374937592
    H            5.346852875763     0.585219581744     0.110163606539

  Mulliken Charges: (a.u.)
   Center  Symbol    Alpha    Beta     Spin     Total
       1     H     0.46418  0.46418  0.00000  0.07164
       2     C     2.90503  2.90503  0.00000  0.18993
       3     C     3.08882  3.08882  0.00000 -0.17765
       4     O     4.16619  4.16619  0.00000 -0.33238
       5     C     3.11611  3.11611  0.00000 -0.23222
       6     H     0.44294  0.44294  0.00000  0.11413
       7     H     0.44067  0.44067  0.00000  0.11866
       8     C     3.08964  3.08964  0.00000 -0.17927
       9     H     0.44277  0.44277  0.00000  0.11446
      10     H     0.45016  0.45016  0.00000  0.09967
      11     C     3.09307  3.09307  0.00000 -0.18614
      12     H     0.45004  0.45004  0.00000  0.09992
      13     H     0.44752  0.44752  0.00000  0.10496
      14     C     3.09565  3.09565  0.00000 -0.19130
      15     H     0.45161  0.45161  0.00000  0.09678
      16     H     0.45426  0.45426  0.00000  0.09148
      17     C     3.09072  3.09072  0.00000 -0.18143
      18     H     0.45298  0.45298  0.00000  0.09404
      19     H     0.44780  0.44780  0.00000  0.10439
      20     C     3.15270  3.15270  0.00000 -0.30540
      21     H     0.44764  0.44764  0.00000  0.10471
      22     H     0.45469  0.45469  0.00000  0.09063
      23     H     0.45455  0.45455  0.00000  0.09090
      24     H     0.45437  0.45437  0.00000  0.09125
      25     H     0.44587  0.44587  0.00000  0.10825

   Total alpha = 36.00000, Total beta = 36.00000, Total charge = -0.00000

*** Psi4 exiting successfully. Buy a developer a beer!
