  ==> Input File <==

--------------------------------------------------------------------------
set {
	reference rhf
	basis 6-31G*
}

set_num_threads( 4 )
memory 2 gb

molecule MOL {
0 1

H	 0.998461	 2.543793	 0.042726
O	 1.284945	 1.782437	 0.528645
C	 0.709265	 0.639550	 -0.033818
C	 -0.793441	 0.596080	 0.058728
H	 1.131468	 -0.205050	 0.498721
H	 1.006178	 0.529729	 -1.076318
C	 -1.530462	 -0.493172	 -0.025500
H	 -1.268471	 1.554324	 0.202247
H	 -1.092586	 -1.461565	 -0.186463
H	 -2.602122	 -0.450675	 0.050101

	symmetry c1
}
set optking {
	frozen_dihedral = ("
		5 3 4 7
	")
}

ee = optimize('scf')
oeprop('DIPOLE', 'QUADRUPOLE', 'MULLIKEN_CHARGES')
f=open( 'psi4out.xyz', 'w' )
f.write( "10  " )
f.write( str(ee) + "\n" )
f.write( MOL.save_string_xyz() )
f.close()
--------------------------------------------------------------------------

    Molecular point group: c1
  Charge       = 0
  Multiplicity = 1
  Basis Set: 6-31G*
  Basis Set:
  @DF-RHF Final Energy:  -191.91292837161345
    Total Energy =                       -191.9129283716134466
    Molecular point group: c1
  Basis Set: 6-31G*
  Basis Set:
  Basis Set: 6-31G*
  Basis Set:
  @DF-RHF Final Energy:  -191.91335087386216
    Total Energy =                       -191.9133508738621003
  Basis Set: 6-31G*
  Basis Set:
  Basis Set: 6-31G*
  Basis Set:
  @DF-RHF Final Energy:  -191.91339916094472
    Total Energy =                       -191.9133991609446923
  Basis Set: 6-31G*
  Basis Set:
  Basis Set: 6-31G*
  Basis Set:
  @DF-RHF Final Energy:  -191.91340343439037
    Total Energy =                       -191.9134034343904887
  Basis Set: 6-31G*
  Basis Set:
  Charge       = 0
  Multiplicity = 1
  Basis Set: 6-31G*
  Basis Set:

    Orbital Energies (a.u.)
    -----------------------

    Doubly Occupied:

       1A    -20.559089     2A    -11.277644     3A    -11.231392
       4A    -11.221216     5A     -1.366637     6A     -1.061181
       7A     -0.919708     8A     -0.777198     9A     -0.695241
      10A     -0.644515    11A     -0.621603    12A     -0.573518
      13A     -0.528782    14A     -0.502888    15A     -0.443874
      16A     -0.364852

  @DF-RHF Final Energy:  -191.91340390293090

   => Energetics <=

    Nuclear Repulsion Energy =            116.9079271465082144
    One-Electron Energy =                -492.0639851600510610
    Two-Electron Energy =                 183.2426541106119373
    DFT Exchange-Correlation Energy =       0.0000000000000000
    Empirical Dispersion Energy =           0.0000000000000000
    PCM Polarization Energy =               0.0000000000000000
    EFP Energy =                            0.0000000000000000
    Total Energy =                       -191.9134039029309236
    Molecular point group: c1
  Basis Set: 6-31G*
  Basis Set:

  -Total Gradient:
     Atom            X                  Y                   Z
    ------   -----------------  -----------------  -----------------
       1       -0.000015317063    -0.000015381414    -0.000018038787
       2        0.000052426959     0.000005026787     0.000067108364
       3       -0.000183307739    -0.000959689768    -0.002406260597
       4        0.000170929704    -0.000097575253     0.002442526516
       5        0.000064655730     0.000867888787     0.001299385570
       6        0.000007283216    -0.000001751906     0.000011257650
       7       -0.000076706498     0.000210856123    -0.001404422343
       8       -0.000005389504    -0.000003262949     0.000014573810
       9       -0.000011341104     0.000001345608     0.000010564069
      10       -0.000003233705    -0.000007456014    -0.000016694253

  **** Optimization is complete! (in 5 steps) ****
    Final optimized geometry and variables:
    Molecular point group: c1

    Geometry (in Angstrom), charge = 0, multiplicity = 1:

    H            1.077476852686     1.854771800902    -0.110121883007
    O            1.278595779803     1.091558000752     0.412977614025
    C            0.726692378574    -0.050255320955    -0.189001616228
    C           -0.779631509961    -0.090062219647    -0.080009266624
    H            1.161847389683    -0.894810324481     0.327825359873
    H            1.028493179248    -0.111317349671    -1.232879855893
    C           -1.512657573127    -1.181355072332    -0.166292519178
    H           -1.261162308060     0.867344975476     0.044239192259
    H           -1.071675530396    -2.157421454809    -0.284252429485
    H           -2.585930714336    -1.145455865346    -0.115981775395

  Mulliken Charges: (a.u.)
   Center  Symbol    Alpha    Beta     Spin     Total
       1     H     0.28197  0.28197  0.00000  0.43605
       2     O     4.36899  4.36899  0.00000 -0.73797
       3     C     3.00712  3.00712  0.00000 -0.01424
       4     C     3.08231  3.08231  0.00000 -0.16462
       5     H     0.40698  0.40698  0.00000  0.18604
       6     H     0.42119  0.42119  0.00000  0.15761
       7     C     3.19893  3.19893  0.00000 -0.39786
       8     H     0.40946  0.40946  0.00000  0.18108
       9     H     0.41363  0.41363  0.00000  0.17275
      10     H     0.40942  0.40942  0.00000  0.18116

   Total alpha = 16.00000, Total beta = 16.00000, Total charge =  0.00000
