  ==> Input File <==

--------------------------------------------------------------------------
set {
	reference rhf
	basis 6-31G*
}

set_num_threads( 1 )
memory 2 gb

molecule MOL {
0 1

H	 1.966172	 1.516061	 0.702788
O	 1.082769	 1.162381	 0.738794
C	 1.050492	 0.053836	 0.000068
C	 -0.318135	 -0.576402	 0.000164
O	 2.008583	 -0.352562	 -0.572557
C	 -1.454360	 0.441875	 -0.000474
H	 -0.374042	 -1.230163	 -0.866135
H	 -0.374274	 -1.229227	 0.867154
C	 -2.826123	 -0.230780	 0.000056
H	 -1.357605	 1.085198	 -0.868380
H	 -1.357504	 1.086451	 0.866496
H	 -2.959731	 -0.858053	 -0.876869
H	 -3.619374	 0.509403	 -0.000080
H	 -2.959371	 -0.857318	 0.877556

	symmetry c1
}
set optking {
	frozen_dihedral = ("
		7 4 6 10,
		1 2 3 5
	")
}

ee = energy('scf')
oeprop('DIPOLE', 'QUADRUPOLE', 'MULLIKEN_CHARGES')
f=open( 'psi4out.xyz', 'w' )
f.write( "14  " )
f.write( str(ee) + "\n" )
f.write( MOL.save_string_xyz() )
f.close()
--------------------------------------------------------------------------

    Molecular point group: c1

    Geometry (in Angstrom), charge = 0, multiplicity = 1:

       Center              X                  Y                   Z               Mass
    ------------   -----------------  -----------------  -----------------  -----------------
           H          2.014480543656     1.411147816794     0.664575062996     1.007825032070
           O          1.131077543656     1.057467816794     0.700581062996    15.994914619560
           C          1.098800543656    -0.051077183206    -0.038144937004    12.000000000000
           C         -0.269826456344    -0.681315183206    -0.038048937004    12.000000000000
           O          2.056891543656    -0.457475183206    -0.610769937004    15.994914619560
           C         -1.406051456344     0.336961816794    -0.038686937004    12.000000000000
           H         -0.325733456344    -1.335076183206    -0.904347937004     1.007825032070
           H         -0.325965456344    -1.334140183206     0.828941062996     1.007825032070
           C         -2.777814456344    -0.335693183206    -0.038156937004    12.000000000000
           H         -1.309296456344     0.980284816794    -0.906592937004     1.007825032070
           H         -1.309195456344     0.981537816794     0.828283062996     1.007825032070
           H         -2.911422456344    -0.962966183206    -0.915081937004     1.007825032070
           H         -3.571065456344     0.404489816794    -0.038292937004     1.007825032070
           H         -2.911062456344    -0.962231183206     0.839343062996     1.007825032070

  Charge       = 0
  Multiplicity = 1
  Basis Set: 6-31G*
  Basis Set:

    Orbital Energies (a.u.)
    -----------------------

    Doubly Occupied:

       1A    -20.614129     2A    -20.550264     3A    -11.381389
       4A    -11.240478     5A    -11.230004     6A    -11.219311
       7A     -1.475396     8A     -1.365476     9A     -1.086634
      10A     -0.978499    11A     -0.846243    12A     -0.817413
      13A     -0.700973    14A     -0.683173    15A     -0.657069
      16A     -0.620989    17A     -0.591057    18A     -0.565877
      19A     -0.549002    20A     -0.522999    21A     -0.499505
      22A     -0.485744    23A     -0.472855    24A     -0.437361

  @DF-RHF Final Energy:  -305.87828607864770

   => Energetics <=

    Nuclear Repulsion Energy =            241.2191278571570479
    One-Electron Energy =                -895.0111305386899403
    Two-Electron Energy =                 347.9137166028854153
    DFT Exchange-Correlation Energy =       0.0000000000000000
    Empirical Dispersion Energy =           0.0000000000000000
    PCM Polarization Energy =               0.0000000000000000
    EFP Energy =                            0.0000000000000000
    Total Energy =                       -305.8782860786475339

  Mulliken Charges: (a.u.)
   Center  Symbol    Alpha    Beta     Spin     Total
       1     H     0.26744  0.26744  0.00000  0.46513
       2     O     4.34766  4.34766  0.00000 -0.69532
       3     C     2.62456  2.62456  0.00000  0.75088
       4     C     3.20827  3.20827  0.00000 -0.41653
       5     O     4.28077  4.28077  0.00000 -0.56153
       6     C     3.15913  3.15913  0.00000 -0.31826
       7     H     0.39702  0.39702  0.00000  0.20595
       8     H     0.39933  0.39933  0.00000  0.20134
       9     C     3.24249  3.24249  0.00000 -0.48497
      10     H     0.41527  0.41527  0.00000  0.16946
      11     H     0.40419  0.40419  0.00000  0.19162
      12     H     0.41933  0.41933  0.00000  0.16134
      13     H     0.41484  0.41484  0.00000  0.17032
      14     H     0.41971  0.41971  0.00000  0.16057

   Total alpha = 24.00000, Total beta = 24.00000, Total charge = -0.00000
