  ==> Input File <==

--------------------------------------------------------------------------
set {
	reference rhf
	basis 6-31G*
}

set_num_threads( 1 )
memory 2 gb

molecule MOL {
0 1

H	 2.443695	 -0.844015	 -0.850366
O	 2.016064	 -0.864478	 0.000222
C	 1.050492	 0.053836	 0.000068
C	 -0.318135	 -0.576402	 0.000164
O	 1.285279	 1.218255	 -0.000078
C	 -1.454360	 0.441875	 -0.000474
H	 -0.374042	 -1.230163	 -0.866135
H	 -0.374274	 -1.229227	 0.867154
C	 -2.826123	 -0.230780	 0.000056
H	 -1.357605	 1.085198	 -0.868380
H	 -1.357504	 1.086451	 0.866496
H	 -2.959731	 -0.858053	 -0.876869
H	 -3.619374	 0.509403	 -0.000080
H	 -2.959371	 -0.857318	 0.877556

	symmetry c1
}
set optking {
	frozen_dihedral = ("
		7 4 6 10,
		2 3 4 7
	")
}

ee = energy('scf')
oeprop('DIPOLE', 'QUADRUPOLE', 'MULLIKEN_CHARGES')
f=open( 'psi4out.xyz', 'w' )
f.write( "14  " )
f.write( str(ee) + "\n" )
f.write( MOL.save_string_xyz() )
f.close()
--------------------------------------------------------------------------

    Molecular point group: c1

    Geometry (in Angstrom), charge = 0, multiplicity = 1:

       Center              X                  Y                   Z               Mass
    ------------   -----------------  -----------------  -----------------  -----------------
           H          2.448392620361    -0.839074354314    -0.840630789997     1.007825032070
           O          2.020761620361    -0.859537354314     0.009957210003    15.994914619560
           C          1.055189620361     0.058776645686     0.009803210003    12.000000000000
           C         -0.313437379639    -0.571461354314     0.009899210003    12.000000000000
           O          1.289976620361     1.223195645686     0.009657210003    15.994914619560
           C         -1.449662379639     0.446815645686     0.009261210003    12.000000000000
           H         -0.369344379639    -1.225222354314    -0.856399789997     1.007825032070
           H         -0.369576379639    -1.224286354314     0.876889210003     1.007825032070
           C         -2.821425379639    -0.225839354314     0.009791210003    12.000000000000
           H         -1.352907379639     1.090138645686    -0.858644789997     1.007825032070
           H         -1.352806379639     1.091391645686     0.876231210003     1.007825032070
           H         -2.955033379639    -0.853112354314    -0.867133789997     1.007825032070
           H         -3.614676379639     0.514343645686     0.009655210003     1.007825032070
           H         -2.954673379639    -0.852377354314     0.887291210003     1.007825032070

  Charge       = 0
  Multiplicity = 1
  Basis Set: 6-31G*
  Basis Set:

    Orbital Energies (a.u.)
    -----------------------

    Doubly Occupied:

       1A    -20.599897     2A    -20.559146     3A    -11.380536
       4A    -11.241249     5A    -11.225327     6A    -11.217451
       7A     -1.470343     8A     -1.368180     9A     -1.082616
      10A     -0.976958    11A     -0.853518    12A     -0.796818
      13A     -0.709535    14A     -0.682312    15A     -0.665155
      16A     -0.631934    17A     -0.578429    18A     -0.560872
      19A     -0.543502    20A     -0.502786    21A     -0.496098
      22A     -0.483009    23A     -0.478799    24A     -0.444465

  @DF-RHF Final Energy:  -305.86126955972145

   => Energetics <=

    Nuclear Repulsion Energy =            240.0005156347794752
    One-Electron Energy =                -892.6257112174799886
    Two-Electron Energy =                 346.7639260229791489
    DFT Exchange-Correlation Energy =       0.0000000000000000
    Empirical Dispersion Energy =           0.0000000000000000
    PCM Polarization Energy =               0.0000000000000000
    EFP Energy =                            0.0000000000000000
    Total Energy =                       -305.8612695597213360

  Mulliken Charges: (a.u.)
   Center  Symbol    Alpha    Beta     Spin     Total
       1     H     0.26473  0.26473  0.00000  0.47054
       2     O     4.35707  4.35707  0.00000 -0.71413
       3     C     2.63554  2.63554  0.00000  0.72892
       4     C     3.20754  3.20754  0.00000 -0.41508
       5     O     4.25631  4.25631  0.00000 -0.51262
       6     C     3.15314  3.15314  0.00000 -0.30627
       7     H     0.40679  0.40679  0.00000  0.18642
       8     H     0.39788  0.39788  0.00000  0.20423
       9     C     3.24266  3.24266  0.00000 -0.48532
      10     H     0.41200  0.41200  0.00000  0.17600
      11     H     0.40928  0.40928  0.00000  0.18144
      12     H     0.42193  0.42193  0.00000  0.15613
      13     H     0.41455  0.41455  0.00000  0.17089
      14     H     0.42057  0.42057  0.00000  0.15886

   Total alpha = 24.00000, Total beta = 24.00000, Total charge = -0.00000
