  ==> Input File <==

--------------------------------------------------------------------------
set {
	reference rhf
	basis 6-31G*
}

set_num_threads( 4 )
memory 2 gb

molecule MOL {
0 1

H	 -3.831552	 0.191734	 -1.481867
C	 -3.160696	 -0.476911	 -0.978352
C	 -2.076860	 -0.007332	 -0.404944
H	 -3.398559	 -1.523770	 -0.957910
O	 -1.180634	 -0.819263	 0.215062
H	 -1.824286	 1.038322	 -0.407933
C	 0.051604	 -1.018856	 -0.387932
C	 1.043764	 0.054862	 -0.001873
H	 -0.017620	 -1.041351	 -1.469781
H	 0.437898	 -1.966374	 -0.042284
F	 2.212596	 -0.199467	 -0.571921
F	 0.652529	 1.252447	 -0.405055
F	 1.230877	 0.110694	 1.300533

	symmetry c1
}
set optking {
	frozen_dihedral = ("
		6 3 5 7
	")
}

ee = optimize('scf')
oeprop('DIPOLE', 'QUADRUPOLE', 'MULLIKEN_CHARGES')
f=open( 'psi4out.xyz', 'w' )
f.write( "13  " )
f.write( str(ee) + "\n" )
f.write( MOL.save_string_xyz() )
f.close()
--------------------------------------------------------------------------

    Molecular point group: c1
  Charge       = 0
  Multiplicity = 1
  Basis Set: 6-31G*
  Basis Set:
  @DF-RHF Final Energy:  -527.53323191148024
    Total Energy =                       -527.5332319114800157
    Molecular point group: c1
  Basis Set: 6-31G*
  Basis Set:
  Basis Set: 6-31G*
  Basis Set:
  @DF-RHF Final Energy:  -527.53359797829773
    Total Energy =                       -527.5335979782978484
  Basis Set: 6-31G*
  Basis Set:
  Basis Set: 6-31G*
  Basis Set:
  @DF-RHF Final Energy:  -527.53390822548749
    Total Energy =                       -527.5339082254877212
  Basis Set: 6-31G*
  Basis Set:
  Basis Set: 6-31G*
  Basis Set:
  @DF-RHF Final Energy:  -527.53392656003916
    Total Energy =                       -527.5339265600392764
  Basis Set: 6-31G*
  Basis Set:
  Basis Set: 6-31G*
  Basis Set:
  @DF-RHF Final Energy:  -527.53393056194750
    Total Energy =                       -527.5339305619474999
  Basis Set: 6-31G*
  Basis Set:
  Charge       = 0
  Multiplicity = 1
  Basis Set: 6-31G*
  Basis Set:

    Orbital Energies (a.u.)
    -----------------------

    Doubly Occupied:

       1A    -26.343264     2A    -26.343129     3A    -26.339066
       4A    -20.599064     5A    -11.501376     6A    -11.314026
       7A    -11.294915     8A    -11.228017     9A     -1.740275
      10A     -1.638600    11A     -1.636710    12A     -1.427218
      13A     -1.080435    14A     -1.017952    15A     -0.924545
      16A     -0.833654    17A     -0.829493    18A     -0.825069
      19A     -0.773130    20A     -0.720599    21A     -0.711658
      22A     -0.700964    23A     -0.674419    24A     -0.657039
      25A     -0.652070    26A     -0.642088    27A     -0.635850
      28A     -0.594643    29A     -0.568643    30A     -0.527252
      31A     -0.467356    32A     -0.374373

  @DF-RHF Final Energy:  -527.53393107855129

   => Energetics <=

    Nuclear Repulsion Energy =            411.9018724057813188
    One-Electron Energy =               -1547.6378223047202027
    Two-Electron Energy =                 608.2020188203877069
    DFT Exchange-Correlation Energy =       0.0000000000000000
    Empirical Dispersion Energy =           0.0000000000000000
    PCM Polarization Energy =               0.0000000000000000
    EFP Energy =                            0.0000000000000000
    Total Energy =                       -527.5339310785512907
    Molecular point group: c1
  Basis Set: 6-31G*
  Basis Set:

  -Total Gradient:
     Atom            X                  Y                   Z
    ------   -----------------  -----------------  -----------------
       1       -0.000005760675    -0.000006771996    -0.000010425824
       2        0.000014766882    -0.000000216297     0.000019693240
       3        0.000788718474    -0.000769832956    -0.002208025195
       4        0.000009057298     0.000005917293    -0.000002059463
       5        0.000461684421     0.001576159272     0.001405575433
       6       -0.000804504704     0.000268396811     0.001404847530
       7       -0.000417430741    -0.001065571475    -0.000616996117
       8        0.000018404924    -0.000004647763    -0.000002557113
       9       -0.000001777115    -0.000005173280     0.000004288648
      10       -0.000004810829    -0.000005295591    -0.000000321292
      11       -0.000054042659     0.000006329320     0.000042241074
      12       -0.000030906796     0.000039884567    -0.000047349094
      13        0.000026601523    -0.000039177903     0.000011088173

  **** Optimization is complete! (in 6 steps) ****
    Final optimized geometry and variables:
    Molecular point group: c1

    Geometry (in Angstrom), charge = 0, multiplicity = 1:

    H           -3.927943621948     0.235939675902    -1.337927725661
    C           -3.215939264744    -0.402347347256    -0.849913240390
    C           -2.097054634333     0.095610208284    -0.377005537867
    H           -3.453937008876    -1.444837584347    -0.746100568994
    O           -1.199481721723    -0.675613767519     0.310142708304
    H           -1.845558185544     1.138539698867    -0.443302175775
    C            0.038235080450    -0.893743096174    -0.288973736621
    C            1.052794414303     0.139395707022     0.143791523266
    H           -0.023695125825    -0.882973233065    -1.370133117319
    H            0.397509199431    -1.860034767908     0.035005832869
    F            2.219304813779    -0.114696841887    -0.430055325545
    F            0.692224344541     1.364862994364    -0.208270838566
    F            1.234718517874     0.138096821266     1.448772557383

  Mulliken Charges: (a.u.)
   Center  Symbol    Alpha    Beta     Spin     Total
       1     H     0.40553  0.40553  0.00000  0.18894
       2     C     3.21450  3.21450  0.00000 -0.42899
       3     C     2.91944  2.91944  0.00000  0.16112
       4     H     0.40192  0.40192  0.00000  0.19617
       5     O     4.30889  4.30889  0.00000 -0.61778
       6     H     0.39947  0.39947  0.00000  0.20105
       7     C     3.05666  3.05666  0.00000 -0.11332
       8     C     2.45807  2.45807  0.00000  1.08387
       9     H     0.40357  0.40357  0.00000  0.19286
      10     H     0.39275  0.39275  0.00000  0.21451
      11     F     4.68252  4.68252  0.00000 -0.36504
      12     F     4.68149  4.68149  0.00000 -0.36299
      13     F     4.67520  4.67520  0.00000 -0.35040

   Total alpha = 32.00000, Total beta = 32.00000, Total charge =  0.00000
