  ==> Input File <==

--------------------------------------------------------------------------
set {
	reference rhf
	basis 6-31G*
}

set_num_threads( 1 )
memory 2 gb

molecule MOL {
0 1

O	 1.761872	 1.193883	 0.499756
C	 1.705091	 0.115954	 0.001797
C	 0.503426	 -0.463312	 -0.704121
O	 2.721346	 -0.737485	 -0.000216
C	 -0.695667	 0.479554	 -0.732805
H	 0.816187	 -0.733276	 -1.709116
H	 0.256688	 -1.399214	 -0.210232
C	 -1.897663	 -0.131876	 -1.454207
H	 -0.408760	 1.408317	 -1.215786
H	 -0.969583	 0.740830	 0.284552
C	 -3.109369	 0.800923	 -1.493112
H	 -1.615577	 -0.395002	 -2.472631
H	 -2.179023	 -1.064074	 -0.966636
C	 -4.310444	 0.188982	 -2.212973
H	 -2.830648	 1.731656	 -1.982185
H	 -3.392902	 1.063972	 -0.476475
H	 -4.068312	 -0.053369	 -3.243920
H	 -5.152815	 0.873633	 -2.223671
H	 -4.634761	 -0.726679	 -1.726460
C	 4.024888	 -0.184556	 -0.001949
H	 4.179030	 0.422472	 -0.882452
H	 4.701782	 -1.024608	 -0.003642
H	 4.181981	 0.421185	 0.878906

	symmetry c1
}
set optking {
	frozen_dihedral = ("
		15 11 8 12,
		9 5 8 12,
		1 2 3 6,
		9 5 3 6
	")
}

ee = energy('scf')
oeprop('DIPOLE', 'QUADRUPOLE', 'MULLIKEN_CHARGES')
f=open( 'psi4out.xyz', 'w' )
f.write( "23  " )
f.write( str(ee) + "\n" )
f.write( MOL.save_string_xyz() )
f.close()
--------------------------------------------------------------------------

    Molecular point group: c1

    Geometry (in Angstrom), charge = 0, multiplicity = 1:

       Center              X                  Y                   Z               Mass
    ------------   -----------------  -----------------  -----------------  -----------------
           O          1.645436921436     1.053653097687     1.170419425527    15.994914619560
           C          1.588655921436    -0.024275902313     0.672460425527    12.000000000000
           C          0.386990921436    -0.603541902313    -0.033457574473    12.000000000000
           O          2.604910921436    -0.877714902313     0.670447425527    15.994914619560
           C         -0.812102078564     0.339324097687    -0.062141574473    12.000000000000
           H          0.699751921436    -0.873505902313    -1.038452574473     1.007825032070
           H          0.140252921436    -1.539443902313     0.460431425527     1.007825032070
           C         -2.014098078564    -0.272105902313    -0.783543574473    12.000000000000
           H         -0.525195078564     1.268087097687    -0.545122574473     1.007825032070
           H         -1.086018078564     0.600600097687     0.955215425527     1.007825032070
           C         -3.225804078564     0.660693097687    -0.822448574473    12.000000000000
           H         -1.732012078564    -0.535231902313    -1.801967574473     1.007825032070
           H         -2.295458078564    -1.204303902313    -0.295972574473     1.007825032070
           C         -4.426879078564     0.048752097687    -1.542309574473    12.000000000000
           H         -2.947083078564     1.591426097687    -1.311521574473     1.007825032070
           H         -3.509337078564     0.923742097687     0.194188425527     1.007825032070
           H         -4.184747078564    -0.193598902313    -2.573256574473     1.007825032070
           H         -5.269250078564     0.733403097687    -1.553007574473     1.007825032070
           H         -4.751196078564    -0.866908902313    -1.055796574473     1.007825032070
           C          3.908452921436    -0.324785902313     0.668714425527    12.000000000000
           H          4.062594921436     0.282242097687    -0.211788574473     1.007825032070
           H          4.585346921436    -1.164837902313     0.667021425527     1.007825032070
           H          4.065545921436     0.280955097687     1.549569425527     1.007825032070

  Charge       = 0
  Multiplicity = 1
  Basis Set: 6-31G*
  Basis Set:

    Orbital Energies (a.u.)
    -----------------------

    Doubly Occupied:

       1A    -20.598945     2A    -20.547194     3A    -11.372689
       4A    -11.283195     5A    -11.235692     6A    -11.219213
       7A    -11.217971     8A    -11.216572     9A    -11.209764
      10A     -1.467903    11A     -1.363204    12A     -1.093190
      13A     -1.043219    14A     -0.986840    15A     -0.933638
      16A     -0.844467    17A     -0.795206    18A     -0.767379
      19A     -0.696786    20A     -0.682498    21A     -0.671771
      22A     -0.651275    23A     -0.609741    24A     -0.601608
      25A     -0.573913    26A     -0.562750    27A     -0.554854
      28A     -0.529144    29A     -0.514077    30A     -0.507809
      31A     -0.484692    32A     -0.470138    33A     -0.466683
      34A     -0.463815    35A     -0.453202    36A     -0.433123

  @DF-RHF Final Energy:  -422.97102098729238

   => Energetics <=

    Nuclear Repulsion Energy =            452.2666511937682117
    One-Electron Energy =               -1472.2270274449165299
    Two-Electron Energy =                 596.9893552638559413
    DFT Exchange-Correlation Energy =       0.0000000000000000
    Empirical Dispersion Energy =           0.0000000000000000
    PCM Polarization Energy =               0.0000000000000000
    EFP Energy =                            0.0000000000000000
    Total Energy =                       -422.9710209872923770

  Mulliken Charges: (a.u.)
   Center  Symbol    Alpha    Beta     Spin     Total
       1     O     4.28100  4.28100  0.00000 -0.56200
       2     C     2.60447  2.60447  0.00000  0.79106
       3     C     3.20946  3.20946  0.00000 -0.41892
       4     O     4.30876  4.30876  0.00000 -0.61752
       5     C     3.15284  3.15284  0.00000 -0.30569
       6     H     0.40257  0.40257  0.00000  0.19486
       7     H     0.39969  0.39969  0.00000  0.20061
       8     C     3.15323  3.15323  0.00000 -0.30645
       9     H     0.41232  0.41232  0.00000  0.17537
      10     H     0.41125  0.41125  0.00000  0.17751
      11     C     3.15153  3.15153  0.00000 -0.30307
      12     H     0.42441  0.42441  0.00000  0.15118
      13     H     0.42378  0.42378  0.00000  0.15244
      14     C     3.23958  3.23958  0.00000 -0.47916
      15     H     0.42150  0.42150  0.00000  0.15700
      16     H     0.42117  0.42117  0.00000  0.15767
      17     H     0.42194  0.42194  0.00000  0.15612
      18     H     0.41847  0.41847  0.00000  0.16307
      19     H     0.42173  0.42173  0.00000  0.15654
      20     C     3.09445  3.09445  0.00000 -0.18891
      21     H     0.41532  0.41532  0.00000  0.16936
      22     H     0.40731  0.40731  0.00000  0.18539
      23     H     0.40323  0.40323  0.00000  0.19355

   Total alpha = 36.00000, Total beta = 36.00000, Total charge =  0.00000
