  ==> Input File <==

--------------------------------------------------------------------------
set {
	reference rhf
	basis cc-pvtz
}

set_num_threads( 4 )
memory 2 gb

molecule MOL {
0 1

H	 -0.033475	 -0.419184	 -0.754480
N	 -0.625934	 -0.663929	 -0.000707
C	 -1.978635	 -0.158664	 0.001017
C	 -0.122482	 -1.456444	 0.971423
H	 -2.519057	 -0.493535	 -0.876362
H	 -1.938890	 0.917202	 -0.004137
H	 -2.514266	 -0.485137	 0.884506
C	 1.317376	 -1.871536	 0.763273
O	 -0.755600	 -1.812696	 1.920804
H	 1.959986	 -0.999810	 0.721515
H	 1.621282	 -2.502608	 1.582088
H	 1.424691	 -2.413166	 -0.169325

	symmetry c1
}
set optking {
	frozen_dihedral = ("
		4 2 3 5
	")
}

ee = optimize('scf')
oeprop('DIPOLE', 'QUADRUPOLE', 'MULLIKEN_CHARGES')
f=open( 'psi4out.xyz', 'w' )
f.write( "12  " )
f.write( str(ee) + "\n" )
f.write( MOL.save_string_xyz() )
f.close()
--------------------------------------------------------------------------

    Molecular point group: c1
  Charge       = 0
  Multiplicity = 1
  Basis Set: CC-PVTZ
  Basis Set:
  @DF-RHF Final Energy:  -247.10045129382422
    Total Energy =                       -247.1004512938242783
    Molecular point group: c1
  Basis Set: CC-PVTZ
  Basis Set:
  Basis Set: CC-PVTZ
  Basis Set:
  @DF-RHF Final Energy:  -247.10086492765001
    Total Energy =                       -247.1008649276500933
  Basis Set: CC-PVTZ
  Basis Set:
  Basis Set: CC-PVTZ
  Basis Set:
  @DF-RHF Final Energy:  -247.10055684155191
    Total Energy =                       -247.1005568415517359
  Basis Set: CC-PVTZ
  Basis Set:
  Basis Set: CC-PVTZ
  Basis Set:
  @DF-RHF Final Energy:  -247.10098552591768
    Total Energy =                       -247.1009855259175083
  Basis Set: CC-PVTZ
  Basis Set:
  Charge       = 0
  Multiplicity = 1
  Basis Set: CC-PVTZ
  Basis Set:

    Orbital Energies (a.u.)
    -----------------------

    Doubly Occupied:

       1A    -20.506612     2A    -15.574913     3A    -11.336915
       4A    -11.252381     5A    -11.228061     6A     -1.388458
       7A     -1.231077     8A     -1.016725     9A     -0.932869
      10A     -0.788248    11A     -0.690980    12A     -0.651716
      13A     -0.635377    14A     -0.586916    15A     -0.582952
      16A     -0.555542    17A     -0.544809    18A     -0.511440
      19A     -0.417225    20A     -0.389323

  @DF-RHF Final Energy:  -247.10098772504713

   => Energetics <=

    Nuclear Repulsion Energy =            181.6408923046251118
    One-Electron Energy =                -695.8386824006399820
    Two-Electron Energy =                 267.0968023709677936
    DFT Exchange-Correlation Energy =       0.0000000000000000
    Empirical Dispersion Energy =           0.0000000000000000
    PCM Polarization Energy =               0.0000000000000000
    EFP Energy =                            0.0000000000000000
    Total Energy =                       -247.1009877250470481
    Molecular point group: c1
  Basis Set: CC-PVTZ
  Basis Set:

  -Total Gradient:
     Atom            X                  Y                   Z
    ------   -----------------  -----------------  -----------------
       1       -0.000010546860     0.000045106069    -0.000017503583
       2        0.000026823748    -0.000082239377     0.000062926845
       3       -0.000005023630     0.000029642135    -0.000001056165
       4       -0.000018796769     0.000040188689    -0.000057249991
       5        0.000003801019    -0.000030962575     0.000002479044
       6        0.000031611211     0.000000591264     0.000003266135
       7        0.000009531160    -0.000009182964    -0.000009583067
       8       -0.000010157695     0.000029332920     0.000003576052
       9       -0.000006920854    -0.000009500195     0.000022170694
      10       -0.000006593745    -0.000006591462    -0.000006322608
      11       -0.000010135347    -0.000001719066     0.000002774077
      12       -0.000003592242    -0.000004665440    -0.000005477433

  **** Optimization is complete! (in 5 steps) ****
    Final optimized geometry and variables:
    Molecular point group: c1

    Geometry (in Angstrom), charge = 0, multiplicity = 1:

    H            0.411777126980     0.758504077622    -1.482725105267
    N           -0.182800427445     0.516584727404    -0.729574990026
    C           -1.531772933118     1.031432157091    -0.727635006101
    C            0.317585895235    -0.273007385360     0.246600535375
    H           -2.076909962985     0.694512859783    -1.601351918524
    H           -1.534343587929     2.114926784271    -0.712890974237
    H           -2.031695302661     0.670308262968     0.154954638138
    C            1.756852784630    -0.692550226435     0.041768925472
    O           -0.315934965610    -0.618650203025     1.199501698019
    H            2.401506238070     0.177508867463    -0.004015692867
    H            2.058686834633    -1.319996266107     0.864216356010
    H            1.863560915573    -1.239302991890    -0.887919655319

  Mulliken Charges: (a.u.)
   Center  Symbol    Alpha    Beta     Spin     Total
       1     H     0.41027  0.41027  0.00000  0.17946
       2     N     3.62192  3.62192  0.00000 -0.24385
       3     C     3.08604  3.08604  0.00000 -0.17207
       4     C     2.83655  2.83655  0.00000  0.32691
       5     H     0.45566  0.45566  0.00000  0.08868
       6     H     0.45574  0.45574  0.00000  0.08852
       7     H     0.43101  0.43101  0.00000  0.13798
       8     C     3.15349  3.15349  0.00000 -0.30698
       9     O     4.21564  4.21564  0.00000 -0.43128
      10     H     0.45001  0.45001  0.00000  0.09998
      11     H     0.43353  0.43353  0.00000  0.13294
      12     H     0.45015  0.45015  0.00000  0.09971

   Total alpha = 20.00000, Total beta = 20.00000, Total charge =  0.00000
