  ==> Input File <==

--------------------------------------------------------------------------
set {
	reference rhf
	basis 6-31G*
}

set_num_threads( 4 )
memory 2 gb

molecule MOL {
0 1

H	 -1.209889	 1.501431	 -0.579380
C	 -0.602418	 0.605242	 -0.713961
N	 0.538815	 0.649616	 0.000000
O	 -0.947792	 -0.292003	 -1.424508
C	 1.521968	 -0.411503	 0.000000
H	 0.707101	 1.457855	 0.553816
H	 2.150599	 -0.357004	 -0.881901
H	 0.999455	 -1.354525	 0.000000
H	 2.150599	 -0.357004	 0.881901

	symmetry c1
}
set optking {
	frozen_dihedral = ("
		6 3 5 7
	")
}

ee = optimize('scf')
oeprop('DIPOLE', 'QUADRUPOLE', 'MULLIKEN_CHARGES')
f=open( 'psi4out.xyz', 'w' )
f.write( "9  " )
f.write( str(ee) + "\n" )
f.write( MOL.save_string_xyz() )
f.close()
--------------------------------------------------------------------------

    Molecular point group: c1
  Charge       = 0
  Multiplicity = 1
  Basis Set: 6-31G*
  Basis Set:
  @DF-RHF Final Energy:  -207.96064041600334
    Total Energy =                       -207.9606404160033151
    Molecular point group: c1
  Basis Set: 6-31G*
  Basis Set:
  Basis Set: 6-31G*
  Basis Set:
  @DF-RHF Final Energy:  -207.96095404560509
    Total Energy =                       -207.9609540456050922
  Basis Set: 6-31G*
  Basis Set:
  Basis Set: 6-31G*
  Basis Set:
  @DF-RHF Final Energy:  -207.96094209102952
    Total Energy =                       -207.9609420910294091
  Basis Set: 6-31G*
  Basis Set:
  Basis Set: 6-31G*
  Basis Set:
  @DF-RHF Final Energy:  -207.96103770283185
    Total Energy =                       -207.9610377028318169
  Basis Set: 6-31G*
  Basis Set:
  Basis Set: 6-31G*
  Basis Set:
  @DF-RHF Final Energy:  -207.96105732739096
    Total Energy =                       -207.9610573273909608
  Basis Set: 6-31G*
  Basis Set:
  Basis Set: 6-31G*
  Basis Set:
  @DF-RHF Final Energy:  -207.96106341184353
    Total Energy =                       -207.9610634118436110
  Basis Set: 6-31G*
  Basis Set:
  Charge       = 0
  Multiplicity = 1
  Basis Set: 6-31G*
  Basis Set:

    Orbital Energies (a.u.)
    -----------------------

    Doubly Occupied:

       1A    -20.526056     2A    -15.590392     3A    -11.342856
       4A    -11.261171     5A     -1.389353     6A     -1.235965
       7A     -0.967813     8A     -0.807928     9A     -0.746579
      10A     -0.641076    11A     -0.626737    12A     -0.592507
      13A     -0.557740    14A     -0.532841    15A     -0.423821
      16A     -0.391219

  @DF-RHF Final Energy:  -207.96106360416331

   => Energetics <=

    Nuclear Repulsion Energy =            122.6848883172859246
    One-Electron Energy =                -526.0237951544264661
    Two-Electron Energy =                 195.3778432329771704
    DFT Exchange-Correlation Energy =       0.0000000000000000
    Empirical Dispersion Energy =           0.0000000000000000
    PCM Polarization Energy =               0.0000000000000000
    EFP Energy =                            0.0000000000000000
    Total Energy =                       -207.9610636041633711
    Molecular point group: c1
  Basis Set: 6-31G*
  Basis Set:

  -Total Gradient:
     Atom            X                  Y                   Z
    ------   -----------------  -----------------  -----------------
       1       -0.000015049896     0.000004829613    -0.000008555646
       2        0.000021095505     0.000058624222     0.000053856432
       3       -0.000032685318     0.000019114544    -0.000099340526
       4        0.000009879523    -0.000027336340    -0.000010958709
       5        0.000071890707    -0.000000576211     0.000042569885
       6       -0.000030365266    -0.000025223339     0.000039767837
       7       -0.000029433622    -0.000031663950    -0.000015026808
       8       -0.000000808408     0.000009246026     0.000001347673
       9        0.000005476780    -0.000007014562    -0.000003660136

  **** Optimization is complete! (in 7 steps) ****
    Final optimized geometry and variables:
    Molecular point group: c1

    Geometry (in Angstrom), charge = 0, multiplicity = 1:

    H           -1.362370512962     1.368466893020    -0.057660173357
    C           -0.738421482120     0.482629037221    -0.186643626670
    N            0.365640235623     0.503677353694     0.582286167620
    O           -1.036001365201    -0.402801285877    -0.932869789291
    C            1.355136944988    -0.551626201738     0.529836992131
    H            0.555705430114     1.321584756226     1.113164916682
    H            1.933061440016    -0.514388060667    -0.386923488692
    H            0.867469163284    -1.514203862453     0.587225651922
    H            2.024769084053    -0.445443170460     1.372681039173

  Mulliken Charges: (a.u.)
   Center  Symbol    Alpha    Beta     Spin     Total
       1     H     0.42692  0.42692  0.00000  0.14615
       2     C     2.74724  2.74724  0.00000  0.50553
       3     N     3.87469  3.87469  0.00000 -0.74938
       4     O     4.28305  4.28305  0.00000 -0.56610
       5     C     3.13733  3.13733  0.00000 -0.27466
       6     H     0.30810  0.30810  0.00000  0.38379
       7     H     0.40923  0.40923  0.00000  0.18155
       8     H     0.39790  0.39790  0.00000  0.20421
       9     H     0.41554  0.41554  0.00000  0.16892

   Total alpha = 16.00000, Total beta = 16.00000, Total charge = -0.00000
