  ==> Input File <==

--------------------------------------------------------------------------
set {
	reference rhf
	basis 6-31G*
}

set_num_threads( 1 )
memory 2 gb

molecule MOL {
0 1

O	 2.692424	 1.622770	 1.032639
C	 2.581111	 0.574564	 1.590880
C	 1.286943	 -0.218994	 1.572620
C	 3.734587	 -0.036097	 2.360128
C	 0.161497	 0.445005	 0.784768
H	 1.507546	 -1.206912	 1.170451
H	 0.985630	 -0.388944	 2.605446
C	 -1.124649	 -0.382990	 0.788712
H	 0.491235	 0.610075	 -0.236092
H	 -0.031473	 1.428868	 1.200610
C	 -2.259874	 0.272531	 0.000494
H	 -0.923166	 -1.369483	 0.373642
H	 -1.448840	 -0.546158	 1.815524
C	 -3.549786	 -0.549746	 -0.000374
H	 -1.937155	 0.435472	 -1.026308
H	 -2.462740	 1.258406	 0.415093
C	 -4.809590	 0.315458	 -0.000369
H	 -3.560515	 -1.202009	 -0.871156
H	 -3.561123	 -1.202955	 0.869711
H	 -4.844746	 0.956611	 -0.876632
H	 -5.706986	 -0.295590	 -0.001609
H	 -4.845960	 0.954827	 0.877144
H	 3.986755	 -1.011411	 1.954180
H	 4.596888	 0.613359	 2.301161
H	 3.460791	 -0.181410	 3.401067

	symmetry c1
}
set optking {
	frozen_dihedral = ("
		9 5 8 12,
		15 11 8 12,
		1 2 3 6,
		9 5 3 6
	")
}

ee = energy('scf')
oeprop('DIPOLE', 'QUADRUPOLE', 'MULLIKEN_CHARGES')
f=open( 'psi4out.xyz', 'w' )
f.write( "25  " )
f.write( str(ee) + "\n" )
f.write( MOL.save_string_xyz() )
f.close()
--------------------------------------------------------------------------

    Molecular point group: c1

    Geometry (in Angstrom), charge = 0, multiplicity = 1:

       Center              X                  Y                   Z               Mass
    ------------   -----------------  -----------------  -----------------  -----------------
           O          2.841485284293     1.389890032113     0.129105267756    15.994914619560
           C          2.730172284293     0.341684032113     0.687346267756    12.000000000000
           C          1.436004284293    -0.451873967887     0.669086267756    12.000000000000
           C          3.883648284293    -0.268976967887     1.456594267756    12.000000000000
           C          0.310558284293     0.212125032113    -0.118765732244    12.000000000000
           H          1.656607284293    -1.439791967887     0.266917267756     1.007825032070
           H          1.134691284293    -0.621823967887     1.701912267756     1.007825032070
           C         -0.975587715707    -0.615869967887    -0.114821732244    12.000000000000
           H          0.640296284293     0.377195032113    -1.139625732244     1.007825032070
           H          0.117588284293     1.195988032113     0.297076267756     1.007825032070
           C         -2.110812715707     0.039651032113    -0.903039732244    12.000000000000
           H         -0.774104715707    -1.602362967887    -0.529891732244     1.007825032070
           H         -1.299778715707    -0.779037967887     0.911990267756     1.007825032070
           C         -3.400724715707    -0.782625967887    -0.903907732244    12.000000000000
           H         -1.788093715707     0.202592032113    -1.929841732244     1.007825032070
           H         -2.313678715707     1.025526032113    -0.488440732244     1.007825032070
           C         -4.660528715707     0.082578032113    -0.903902732244    12.000000000000
           H         -3.411453715707    -1.434888967887    -1.774689732244     1.007825032070
           H         -3.412061715707    -1.435834967887    -0.033822732244     1.007825032070
           H         -4.695684715707     0.723731032113    -1.780165732244     1.007825032070
           H         -5.557924715707    -0.528469967887    -0.905142732244     1.007825032070
           H         -4.696898715707     0.721947032113    -0.026389732244     1.007825032070
           H          4.135816284293    -1.244290967887     1.050646267756     1.007825032070
           H          4.745949284293     0.380479032113     1.397627267756     1.007825032070
           H          3.609852284293    -0.414289967887     2.497533267756     1.007825032070

  Charge       = 0
  Multiplicity = 1
  Basis Set: 6-31G*
  Basis Set:

    Orbital Energies (a.u.)
    -----------------------

    Doubly Occupied:

       1A    -20.550424     2A    -11.326266     3A    -11.231864
       4A    -11.228337     5A    -11.217196     6A    -11.216376
       7A    -11.214343     8A    -11.212516     9A    -11.208511
      10A     -1.395725    11A     -1.093628    12A     -1.056267
      13A     -1.014370    14A     -0.968971    15A     -0.890894
      16A     -0.814802    17A     -0.790474    18A     -0.729854
      19A     -0.660279    20A     -0.652233    21A     -0.629759
      22A     -0.623849    23A     -0.597874    24A     -0.585573
      25A     -0.568488    26A     -0.558796    27A     -0.537397
      28A     -0.527712    29A     -0.513977    30A     -0.490219
      31A     -0.486301    32A     -0.475290    33A     -0.463582
      34A     -0.458344    35A     -0.449740    36A     -0.399314

  @DF-RHF Final Energy:  -387.13301403413726

   => Energetics <=

    Nuclear Repulsion Energy =            438.8542989017441300
    One-Electron Energy =               -1394.2954926678728498
    Two-Electron Energy =                 568.3081797319896395
    DFT Exchange-Correlation Energy =       0.0000000000000000
    Empirical Dispersion Energy =           0.0000000000000000
    PCM Polarization Energy =               0.0000000000000000
    EFP Energy =                            0.0000000000000000
    Total Energy =                       -387.1330140341390234

  Mulliken Charges: (a.u.)
   Center  Symbol    Alpha    Beta     Spin     Total
       1     O     4.26115  4.26115  0.00000 -0.52230
       2     C     2.73569  2.73569  0.00000  0.52862
       3     C     3.21086  3.21086  0.00000 -0.42171
       4     C     3.28663  3.28663  0.00000 -0.57326
       5     C     3.14841  3.14841  0.00000 -0.29682
       6     H     0.41000  0.41000  0.00000  0.18001
       7     H     0.41009  0.41009  0.00000  0.17982
       8     C     3.15554  3.15554  0.00000 -0.31109
       9     H     0.41217  0.41217  0.00000  0.17565
      10     H     0.41211  0.41211  0.00000  0.17578
      11     C     3.15275  3.15275  0.00000 -0.30551
      12     H     0.42456  0.42456  0.00000  0.15088
      13     H     0.42457  0.42457  0.00000  0.15085
      14     C     3.15302  3.15302  0.00000 -0.30604
      15     H     0.42049  0.42049  0.00000  0.15902
      16     H     0.42114  0.42114  0.00000  0.15772
      17     C     3.24009  3.24009  0.00000 -0.48019
      18     H     0.42129  0.42129  0.00000  0.15742
      19     H     0.42254  0.42254  0.00000  0.15492
      20     H     0.42100  0.42100  0.00000  0.15800
      21     H     0.42035  0.42035  0.00000  0.15931
      22     H     0.42163  0.42163  0.00000  0.15674
      23     H     0.40874  0.40874  0.00000  0.18252
      24     H     0.39646  0.39646  0.00000  0.20708
      25     H     0.40871  0.40871  0.00000  0.18259

   Total alpha = 36.00000, Total beta = 36.00000, Total charge =  0.00000
