  ==> Input File <==

--------------------------------------------------------------------------
set {
	reference rhf
	basis 6-31G*
}

set_num_threads( 4 )
memory 2 gb

molecule MOL {
0 1

O	 3.306436	 1.092029	 -0.265793
C	 2.744181	 0.122794	 0.131088
C	 1.282830	 0.042383	 0.500922
O	 3.347903	 -1.046386	 0.304773
C	 0.541080	 1.362910	 0.305647
H	 0.849062	 -0.758844	 -0.088206
H	 1.229080	 -0.287207	 1.535416
C	 -0.917279	 1.326865	 0.775099
H	 0.583457	 1.646563	 -0.741666
H	 1.069572	 2.139699	 0.847604
C	 -1.832622	 0.402341	 -0.032683
H	 -1.312735	 2.338643	 0.723701
H	 -0.953030	 1.042389	 1.825720
C	 -3.296717	 0.484978	 0.403892
H	 -1.757374	 0.657915	 -1.088542
H	 -1.497283	 -0.628444	 0.056773
C	 -4.219878	 -0.438556	 -0.392971
H	 -3.644306	 1.511897	 0.304629
H	 -3.371274	 0.239956	 1.462242
C	 -5.680738	 -0.347184	 0.046616
H	 -4.145845	 -0.195739	 -1.450895
H	 -3.876610	 -1.465999	 -0.291439
H	 -6.309719	 -1.012959	 -0.536251
H	 -6.064567	 0.661723	 -0.075764
H	 -5.793058	 -0.617742	 1.092779
C	 4.728119	 -1.109107	 -0.004993
H	 4.882018	 -1.033965	 -1.071845
H	 5.068212	 -2.067527	 0.355250
H	 5.265056	 -0.311663	 0.488280

	symmetry c1
}
set optking {
	frozen_dihedral = ("
		2 4 26 27
	")
}

ee = optimize('scf')
oeprop('DIPOLE', 'QUADRUPOLE', 'MULLIKEN_CHARGES')
f=open( 'psi4out.xyz', 'w' )
f.write( "29  " )
f.write( str(ee) + "\n" )
f.write( MOL.save_string_xyz() )
f.close()
--------------------------------------------------------------------------

    Molecular point group: c1
  Charge       = 0
  Multiplicity = 1
  Basis Set: 6-31G*
  Basis Set:
  @DF-RHF Final Energy:  -501.04395167917460
    Total Energy =                       -501.0439516791750520
    Molecular point group: c1
  Basis Set: 6-31G*
  Basis Set:
  Basis Set: 6-31G*
  Basis Set:
  @DF-RHF Final Energy:  -501.04396081146319
    Total Energy =                       -501.0439608114633074
  Basis Set: 6-31G*
  Basis Set:
  Basis Set: 6-31G*
  Basis Set:
  @DF-RHF Final Energy:  -501.04388877159738
    Total Energy =                       -501.0438887715980627
  Basis Set: 6-31G*
  Basis Set:
  Basis Set: 6-31G*
  Basis Set:
  @DF-RHF Final Energy:  -501.04396941242658
    Total Energy =                       -501.0439694124266907
  Basis Set: 6-31G*
  Basis Set:
  Basis Set: 6-31G*
  Basis Set:
  @DF-RHF Final Energy:  -501.04397048832300
    Total Energy =                       -501.0439704883234526
  Basis Set: 6-31G*
  Basis Set:
  Charge       = 0
  Multiplicity = 1
  Basis Set: 6-31G*
  Basis Set:

    Orbital Energies (a.u.)
    -----------------------

    Doubly Occupied:

       1A    -20.603320     2A    -20.545129     3A    -11.372076
       4A    -11.280597     5A    -11.234701     6A    -11.219051
       7A    -11.217610     8A    -11.215970     9A    -11.215830
      10A    -11.214434    11A    -11.209050    12A     -1.468878
      13A     -1.362541    14A     -1.098034    15A     -1.066787
      16A     -1.019509    17A     -0.977291    18A     -0.928564
      19A     -0.861554    20A     -0.799239    21A     -0.790465
      22A     -0.763705    23A     -0.700747    24A     -0.682216
      25A     -0.672189    26A     -0.650893    27A     -0.628830
      28A     -0.604671    29A     -0.594776    30A     -0.580901
      31A     -0.567225    32A     -0.549250    33A     -0.532079
      34A     -0.530159    35A     -0.515784    36A     -0.511888
      37A     -0.496285    38A     -0.477779    39A     -0.470196
      40A     -0.462362    41A     -0.458688    42A     -0.455892
      43A     -0.440944    44A     -0.435417

  @DF-RHF Final Energy:  -501.04397018897066

   => Energetics <=

    Nuclear Repulsion Energy =            610.1120650718976322
    One-Electron Energy =               -1891.3450608079908761
    Two-Electron Energy =                 780.1890255471229239
    DFT Exchange-Correlation Energy =       0.0000000000000000
    Empirical Dispersion Energy =           0.0000000000000000
    PCM Polarization Energy =               0.0000000000000000
    EFP Energy =                            0.0000000000000000
    Total Energy =                       -501.0439701889703201
    Molecular point group: c1
  Basis Set: 6-31G*
  Basis Set:

  -Total Gradient:
     Atom            X                  Y                   Z
    ------   -----------------  -----------------  -----------------
       1        0.000009856023    -0.000011774564     0.000009199086
       2        0.000158755397     0.000186302367     0.000696141819
       3        0.000011773668     0.000002744643     0.000019252898
       4       -0.000235719441    -0.000480633275    -0.001006185521
       5       -0.000010316036    -0.000003190366    -0.000027082932
       6        0.000016752661     0.000009009791    -0.000001313244
       7       -0.000003197563    -0.000005604168    -0.000002482279
       8        0.000001208713    -0.000006678969    -0.000000460938
       9        0.000001117142    -0.000008939404    -0.000001616322
      10       -0.000004654209     0.000009915635    -0.000003470207
      11       -0.000006595318     0.000003871124     0.000002324714
      12        0.000000193112     0.000003899424     0.000012537929
      13        0.000005041989    -0.000015961965    -0.000004731137
      14        0.000000915915     0.000003203190    -0.000000946434
      15        0.000008127814    -0.000009426184    -0.000006328254
      16       -0.000020801411     0.000013297319     0.000012041413
      17       -0.000000591721     0.000001357938     0.000000001527
      18       -0.000003391904     0.000001043947     0.000011083157
      19        0.000005008844    -0.000009401235    -0.000002935160
      20       -0.000002252536     0.000010029751    -0.000009543988
      21        0.000002949968    -0.000006127565    -0.000002204106
      22       -0.000001883168     0.000000870767     0.000006832988
      23       -0.000000691471     0.000002809174    -0.000002539257
      24       -0.000002511759     0.000001409305     0.000003135159
      25        0.000002755631    -0.000002324641    -0.000002270832
      26        0.000124209187     0.001186447421     0.000375086464
      27       -0.000043724598    -0.000874155310    -0.000076914525
      28        0.000004378225    -0.000004492743     0.000000622309
      29       -0.000016713172     0.000002498595     0.000002765674

  **** Optimization is complete! (in 6 steps) ****
    Final optimized geometry and variables:
    Molecular point group: c1

    Geometry (in Angstrom), charge = 0, multiplicity = 1:

    O            3.262691775872     0.937799289032    -0.427416618205
    C            2.702615751012    -0.032399898045    -0.029898839449
    C            1.241973903291    -0.114614127844     0.342464736629
    O            3.307059399101    -1.201623030706     0.141627548465
    C            0.497819822296     1.204504192277     0.146827209196
    H            0.808587670638    -0.917152945697    -0.245156274520
    H            1.190318893038    -0.443197915655     1.377377671500
    C           -0.959509374898     1.166976127663     0.619342361322
    H            0.537660427764     1.486750464740    -0.900963102804
    H            1.026239268822     1.982846084212     0.686614227224
    C           -1.876023817769     0.242760254452    -0.187480083090
    H           -1.355720660109     2.178556729517     0.569837681630
    H           -0.992868245759     0.881377775377     1.669739796929
    C           -3.339724613199     0.326357080161     0.250247204264
    H           -1.801481853382     0.498066766424    -1.243450765566
    H           -1.541220506595    -0.788193455839    -0.098073868766
    C           -4.264401230421    -0.595255799691    -0.547071707646
    H           -3.686326797058     1.353746126621     0.152441632398
    H           -3.413781717683     0.080172991553     1.308359730069
    C           -5.725173442211    -0.501422751746    -0.107694987678
    H           -4.189778707464    -0.352198100807    -1.604896084869
    H           -3.922976512406    -1.623341919778    -0.445853004343
    H           -6.355292574479    -1.165623715333    -0.691132836181
    H           -6.107081531063     0.508286233097    -0.229459334648
    H           -5.838190897651    -0.772475317719     0.938263492404
    C            4.690556659488    -1.263175281006    -0.153798176132
    H            4.852408425274    -1.180965747308    -1.219670232213
    H            5.023536156525    -2.228824071158     0.194161171702
    H            5.226478329543    -0.475102128332     0.353307665244

  Mulliken Charges: (a.u.)
   Center  Symbol    Alpha    Beta     Spin     Total
       1     O     4.28592  4.28592  0.00000 -0.57183
       2     C     2.60482  2.60482  0.00000  0.79037
       3     C     3.20973  3.20973  0.00000 -0.41946
       4     O     4.30759  4.30759  0.00000 -0.61518
       5     C     3.15379  3.15379  0.00000 -0.30758
       6     H     0.39874  0.39874  0.00000  0.20252
       7     H     0.40132  0.40132  0.00000  0.19736
       8     C     3.15664  3.15664  0.00000 -0.31328
       9     H     0.41308  0.41308  0.00000  0.17384
      10     H     0.40875  0.40875  0.00000  0.18250
      11     C     3.15505  3.15505  0.00000 -0.31010
      12     H     0.41823  0.41823  0.00000  0.16353
      13     H     0.42388  0.42388  0.00000  0.15225
      14     C     3.15030  3.15030  0.00000 -0.30060
      15     H     0.42260  0.42260  0.00000  0.15479
      16     H     0.42361  0.42361  0.00000  0.15279
      17     C     3.15146  3.15146  0.00000 -0.30291
      18     H     0.42333  0.42333  0.00000  0.15334
      19     H     0.42398  0.42398  0.00000  0.15205
      20     C     3.23935  3.23935  0.00000 -0.47870
      21     H     0.42280  0.42280  0.00000  0.15440
      22     H     0.42343  0.42343  0.00000  0.15315
      23     H     0.41923  0.41923  0.00000  0.16154
      24     H     0.42155  0.42155  0.00000  0.15691
      25     H     0.42183  0.42183  0.00000  0.15633
      26     C     3.09263  3.09263  0.00000 -0.18526
      27     H     0.41103  0.41103  0.00000  0.17795
      28     H     0.40875  0.40875  0.00000  0.18250
      29     H     0.40660  0.40660  0.00000  0.18680

   Total alpha = 44.00000, Total beta = 44.00000, Total charge =  0.00000
