  ==> Input File <==

--------------------------------------------------------------------------
set {
	reference rhf
	basis 6-31G*
}

set_num_threads( 4 )
memory 2 gb

molecule MOL {
0 1

H	 -3.261111	 -0.295142	 1.469456
C	 -3.306842	 -0.277400	 0.373456
C	 -2.660244	 0.921717	 -0.272021
O	 -3.838538	 -1.161155	 -0.216482
C	 -3.538044	 1.546497	 -1.365352
H	 -2.418771	 1.639138	 0.503676
H	 -1.724994	 0.581185	 -0.714741
C	 -4.822601	 2.182206	 -0.827685
H	 -2.954110	 2.298960	 -1.886990
H	 -3.785999	 0.788406	 -2.106684
C	 -5.681709	 2.810774	 -1.926616
H	 -4.563416	 2.939988	 -0.091181
H	 -5.409816	 1.435316	 -0.296768
C	 -6.957624	 3.459655	 -1.383527
H	 -5.087046	 3.548147	 -2.459897
H	 -5.949465	 2.047329	 -2.655891
C	 -7.891367	 4.030826	 -2.456821
H	 -6.690064	 4.249621	 -0.683484
H	 -7.507066	 2.717977	 -0.807560
C	 -7.318513	 5.219429	 -3.230566
H	 -8.816144	 4.341315	 -1.976890
H	 -8.162793	 3.241739	 -3.155098
H	 -7.022933	 6.018431	 -2.555661
H	 -6.448369	 4.942023	 -3.816117
H	 -8.056441	 5.623678	 -3.916889

	symmetry c1
}
set optking {
	frozen_dihedral = ("
		6 3 2 4
	")
}

ee = optimize('scf')
oeprop('DIPOLE', 'QUADRUPOLE', 'MULLIKEN_CHARGES')
f=open( 'psi4out.xyz', 'w' )
f.write( "25  " )
f.write( str(ee) + "\n" )
f.write( MOL.save_string_xyz() )
f.close()
--------------------------------------------------------------------------

    Molecular point group: c1
  Charge       = 0
  Multiplicity = 1
  Basis Set: 6-31G*
  Basis Set:
  @DF-RHF Final Energy:  -387.12081195955307
    Total Energy =                       -387.1208119595530661
    Molecular point group: c1
  Basis Set: 6-31G*
  Basis Set:
  Basis Set: 6-31G*
  Basis Set:
  @DF-RHF Final Energy:  -387.12031309916063
    Total Energy =                       -387.1203130991603985
  Basis Set: 6-31G*
  Basis Set:
  Basis Set: 6-31G*
  Basis Set:
  @DF-RHF Final Energy:  -387.12094378009908
    Total Energy =                       -387.1209437800995374
  Basis Set: 6-31G*
  Basis Set:
  Basis Set: 6-31G*
  Basis Set:
  @DF-RHF Final Energy:  -387.12127605736964
    Total Energy =                       -387.1212760573696414
  Basis Set: 6-31G*
  Basis Set:
  Basis Set: 6-31G*
  Basis Set:
  @DF-RHF Final Energy:  -387.12127315065038
    Total Energy =                       -387.1212731506503815
  Basis Set: 6-31G*
  Basis Set:
  Basis Set: 6-31G*
  Basis Set:
  @DF-RHF Final Energy:  -387.12127898391702
    Total Energy =                       -387.1212789839167954
  Basis Set: 6-31G*
  Basis Set:
  Charge       = 0
  Multiplicity = 1
  Basis Set: 6-31G*
  Basis Set:

    Orbital Energies (a.u.)
    -----------------------

    Doubly Occupied:

       1A    -20.562694     2A    -11.327953     3A    -11.235465
       4A    -11.225596     5A    -11.219162     6A    -11.215446
       7A    -11.215204     8A    -11.214126     9A    -11.208481
      10A     -1.403188    11A     -1.098120    12A     -1.065131
      13A     -1.010223    14A     -0.941419    15A     -0.876550
      16A     -0.821296    17A     -0.778903    18A     -0.766200
      19A     -0.687019    20A     -0.648507    21A     -0.629566
      22A     -0.623943    23A     -0.600749    24A     -0.592291
      25A     -0.571401    26A     -0.546295    27A     -0.532020
      28A     -0.523356    29A     -0.501995    30A     -0.493814
      31A     -0.486165    32A     -0.474592    33A     -0.461174
      34A     -0.455593    35A     -0.437731    36A     -0.410178

  @DF-RHF Final Energy:  -387.12127855075181

   => Energetics <=

    Nuclear Repulsion Energy =            442.0655583639036763
    One-Electron Energy =               -1400.6505802489707548
    Two-Electron Energy =                 571.4637433343150406
    DFT Exchange-Correlation Energy =       0.0000000000000000
    Empirical Dispersion Energy =           0.0000000000000000
    PCM Polarization Energy =               0.0000000000000000
    EFP Energy =                            0.0000000000000000
    Total Energy =                       -387.1212785507520948
    Molecular point group: c1
  Basis Set: 6-31G*
  Basis Set:

  -Total Gradient:
     Atom            X                  Y                   Z
    ------   -----------------  -----------------  -----------------
       1        0.000009902636     0.000034093973    -0.000025933264
       2       -0.002168466504     0.001360600136     0.000336552181
       3       -0.001671180259     0.000607666607    -0.000275790191
       4        0.001847106361    -0.001094107057    -0.000225614985
       5        0.000054510421     0.000005056777     0.000026865789
       6        0.001897134704    -0.000885701219     0.000162304482
       7        0.000034438016    -0.000026264627     0.000003825242
       8        0.000011058827     0.000009042684     0.000008793561
       9       -0.000014503801    -0.000005350332    -0.000014657045
      10        0.000006047319     0.000006464386    -0.000004670338
      11        0.000004324515     0.000035182098    -0.000011376718
      12       -0.000000043178    -0.000017325677    -0.000012063369
      13       -0.000012186235     0.000010375705     0.000016402985
      14       -0.000014535172    -0.000048943965     0.000002926861
      15        0.000003132359     0.000028645600    -0.000025820405
      16        0.000008023474     0.000007885234     0.000013896028
      17       -0.000023649512     0.000019659472     0.000023667688
      18       -0.000015348470    -0.000012975764     0.000003410734
      19        0.000010457490    -0.000018518280     0.000000225401
      20        0.000019968113    -0.000019423200    -0.000004841103
      21        0.000006682270     0.000018969281    -0.000000566143
      22       -0.000022824819     0.000002304453     0.000011618707
      23       -0.000012181853    -0.000004679380    -0.000002888754
      24        0.000035851367    -0.000007060506     0.000005433519
      25        0.000006281932    -0.000005596387    -0.000011700864

  **** Optimization is complete! (in 7 steps) ****
    Final optimized geometry and variables:
    Molecular point group: c1

    Geometry (in Angstrom), charge = 0, multiplicity = 1:

    H            1.941805047684    -2.460810626232     2.733184514739
    C            1.833475380001    -2.380142626555     1.646402041885
    C            2.446908853892    -1.158345641779     0.996525711964
    O            1.297132774856    -3.248951577409     1.037085037558
    C            1.571250069680    -0.535692457427    -0.095154273239
    H            2.713847283726    -0.435027572561     1.761663589984
    H            3.386070571677    -1.496107994794     0.560159498597
    C            0.291339470481     0.109149284429     0.441846878532
    H            2.158252249701     0.212059834229    -0.621813183904
    H            1.320097676740    -1.305478848895    -0.816706557945
    C           -0.562042016840     0.742452549990    -0.658892414851
    H            0.551464319189     0.868893027238     1.177600183528
    H           -0.300642603354    -0.638660371389     0.964983866479
    C           -1.842270742196     1.387283430125    -0.121166665660
    H            0.034630073087     1.482301421636    -1.186652031455
    H           -0.824155627320    -0.019880452539    -1.390450717653
    C           -2.774279006286     1.954456917094    -1.198072211963
    H           -1.580395881320     2.179540120684     0.578736378103
    H           -2.391262863365     0.644151478860     0.453371595487
    C           -2.197926942344     3.136898402970    -1.979070306566
    H           -3.699130114780     2.269514464856    -0.721129745120
    H           -3.046144520421     1.161338783648    -1.891509762542
    H           -1.906507638635     3.941942629368    -1.309593673727
    H           -1.324511011393     2.855086747425    -2.557717805704
    H           -2.932247206086     3.535009674879    -2.672594227952

  Mulliken Charges: (a.u.)
   Center  Symbol    Alpha    Beta     Spin     Total
       1     H     0.42595  0.42595  0.00000  0.14810
       2     C     2.84269  2.84269  0.00000  0.31462
       3     C     3.20695  3.20695  0.00000 -0.41389
       4     O     4.23825  4.23825  0.00000 -0.47649
       5     C     3.15495  3.15495  0.00000 -0.30990
       6     H     0.41518  0.41518  0.00000  0.16963
       7     H     0.39977  0.39977  0.00000  0.20047
       8     C     3.15682  3.15682  0.00000 -0.31363
       9     H     0.41810  0.41810  0.00000  0.16379
      10     H     0.40435  0.40435  0.00000  0.19130
      11     C     3.15440  3.15440  0.00000 -0.30881
      12     H     0.42497  0.42497  0.00000  0.15005
      13     H     0.41739  0.41739  0.00000  0.16523
      14     C     3.15291  3.15291  0.00000 -0.30582
      15     H     0.42184  0.42184  0.00000  0.15633
      16     H     0.42057  0.42057  0.00000  0.15886
      17     C     3.15256  3.15256  0.00000 -0.30513
      18     H     0.42500  0.42500  0.00000  0.15000
      19     H     0.42101  0.42101  0.00000  0.15797
      20     C     3.24129  3.24129  0.00000 -0.48259
      21     H     0.42084  0.42084  0.00000  0.15832
      22     H     0.42236  0.42236  0.00000  0.15528
      23     H     0.42272  0.42272  0.00000  0.15456
      24     H     0.42014  0.42014  0.00000  0.15972
      25     H     0.41899  0.41899  0.00000  0.16202

   Total alpha = 36.00000, Total beta = 36.00000, Total charge =  0.00000
