  ==> Input File <==

--------------------------------------------------------------------------
set {
	reference rhf
	basis 6-31G*
}

set_num_threads( 4 )
memory 2 gb

molecule MOL {
0 1

H	 -3.092134	 0.267536	 0.253564
O	 -2.347518	 -0.290803	 0.079804
C	 -1.184022	 0.487508	 -0.006784
C	 0.062599	 -0.378592	 0.031606
H	 -1.176523	 1.099369	 -0.904519
H	 -1.187323	 1.153111	 0.844927
O	 1.171513	 0.459272	 -0.058250
H	 0.050699	 -1.089204	 -0.797170
H	 0.078739	 -0.954914	 0.954740
C	 2.397842	 -0.198080	 -0.002151
H	 2.508049	 -0.905315	 -0.822092
H	 3.173794	 0.550865	 -0.078850
H	 2.517602	 -0.735921	 0.936026

	symmetry c1
}
set optking {
	frozen_dihedral = ("
		1 2 3 5
	")
}

ee = optimize('scf')
oeprop('DIPOLE', 'QUADRUPOLE', 'MULLIKEN_CHARGES')
f=open( 'psi4out.xyz', 'w' )
f.write( "13  " )
f.write( str(ee) + "\n" )
f.write( MOL.save_string_xyz() )
f.close()
--------------------------------------------------------------------------

    Molecular point group: c1
  Charge       = 0
  Multiplicity = 1
  Basis Set: 6-31G*
  Basis Set:
  @DF-RHF Final Energy:  -267.94929673752256
    Total Energy =                       -267.9492967375224453
    Molecular point group: c1
  Basis Set: 6-31G*
  Basis Set:
  Basis Set: 6-31G*
  Basis Set:
  @DF-RHF Final Energy:  -267.95068448696406
    Total Energy =                       -267.9506844869639508
  Basis Set: 6-31G*
  Basis Set:
  Basis Set: 6-31G*
  Basis Set:
  @DF-RHF Final Energy:  -267.95100057154536
    Total Energy =                       -267.9510005715454213
  Basis Set: 6-31G*
  Basis Set:
  Basis Set: 6-31G*
  Basis Set:
  @DF-RHF Final Energy:  -267.95100832602623
    Total Energy =                       -267.9510083260263400
  Basis Set: 6-31G*
  Basis Set:
  Charge       = 0
  Multiplicity = 1
  Basis Set: 6-31G*
  Basis Set:

    Orbital Energies (a.u.)
    -----------------------

    Doubly Occupied:

       1A    -20.558790     2A    -20.558677     3A    -11.268723
       4A    -11.267080     5A    -11.266332     6A     -1.385170
       7A     -1.363863     8A     -1.018063     9A     -0.910937
      10A     -0.830861    11A     -0.708598    12A     -0.683842
      13A     -0.641587    14A     -0.632432    15A     -0.619840
      16A     -0.551574    17A     -0.538074    18A     -0.495570
      19A     -0.469577    20A     -0.441359    21A     -0.418168

  @DF-RHF Final Energy:  -267.95100944885496

   => Energetics <=

    Nuclear Repulsion Energy =            190.4835448593020146
    One-Electron Energy =                -743.6108794704986167
    Two-Electron Energy =                 285.1763251623417545
    DFT Exchange-Correlation Energy =       0.0000000000000000
    Empirical Dispersion Energy =           0.0000000000000000
    PCM Polarization Energy =               0.0000000000000000
    EFP Energy =                            0.0000000000000000
    Total Energy =                       -267.9510094488548475
    Molecular point group: c1
  Basis Set: 6-31G*
  Basis Set:

  -Total Gradient:
     Atom            X                  Y                   Z
    ------   -----------------  -----------------  -----------------
       1        0.000075433798    -0.000053638241     0.000678003515
       2        0.000008796839    -0.000027509803    -0.000921598959
       3       -0.000414984480     0.000505108473     0.000539313548
       4       -0.000007451302    -0.000006159369    -0.000006105093
       5        0.000324979802    -0.000451616075    -0.000265472397
       6        0.000010136767    -0.000009676778    -0.000009556359
       7        0.000027479296     0.000018030527    -0.000011993777
       8       -0.000003091245    -0.000001654051    -0.000005842962
       9       -0.000025287631     0.000015401127     0.000000182638
      10        0.000007728539     0.000015514075     0.000005978401
      11       -0.000008650756     0.000002189633     0.000001578166
      12        0.000008013618    -0.000003286291    -0.000001566427
      13       -0.000003103241    -0.000002703226    -0.000002920294

  **** Optimization is complete! (in 5 steps) ****
    Final optimized geometry and variables:
    Molecular point group: c1

    Geometry (in Angstrom), charge = 0, multiplicity = 1:

    H           -3.081044407569     0.171667110392     0.173705692026
    O           -2.295725324897    -0.341730860827     0.052315376005
    C           -1.179048892959     0.505563158810    -0.009981539920
    C            0.052522589656    -0.373714966708     0.031288404410
    H           -1.172360492424     1.085591888119    -0.928679824437
    H           -1.154805535446     1.197104138017     0.827534897794
    O            1.170586256812     0.455261523342    -0.053882853064
    H            0.025183003597    -1.078601511038    -0.797394446790
    H            0.061502757808    -0.947925787852     0.955592208487
    C            2.387659485576    -0.220576219101    -0.031826467096
    H            2.474491222131    -0.910193635456    -0.869125826032
    H            3.173517899715     0.518716449297    -0.103463725428
    H            2.514192307370    -0.781703235854     0.891963128853

  Mulliken Charges: (a.u.)
   Center  Symbol    Alpha    Beta     Spin     Total
       1     H     0.27807  0.27807  0.00000  0.44386
       2     O     4.37422  4.37422  0.00000 -0.74844
       3     C     3.00314  3.00314  0.00000 -0.00628
       4     C     2.99192  2.99192  0.00000  0.01617
       5     H     0.42286  0.42286  0.00000  0.15429
       6     H     0.42411  0.42411  0.00000  0.15178
       7     O     4.30960  4.30960  0.00000 -0.61921
       8     H     0.42345  0.42345  0.00000  0.15311
       9     H     0.42442  0.42442  0.00000  0.15116
      10     C     3.07959  3.07959  0.00000 -0.15917
      11     H     0.42834  0.42834  0.00000  0.14331
      12     H     0.41172  0.41172  0.00000  0.17656
      13     H     0.42856  0.42856  0.00000  0.14287

   Total alpha = 21.00000, Total beta = 21.00000, Total charge =  0.00000
