  ==> Input File <==

--------------------------------------------------------------------------
set {
	reference rhf
	basis 6-31G*
}

set_num_threads( 4 )
memory 2 gb

molecule MOL {
0 1

O	 2.862325	 1.357334	 0.000267
C	 2.843464	 0.164689	 -0.000222
C	 1.546494	 -0.624492	 -0.000609
C	 4.124123	 -0.644674	 -0.000428
C	 0.291004	 0.242674	 0.000989
H	 1.557904	 -1.283758	 -0.867573
H	 1.558622	 -1.285963	 0.864672
C	 -0.994322	 -0.586602	 0.000262
H	 0.309117	 0.896430	 -0.865270
H	 0.309661	 0.894078	 0.869017
C	 -2.259874	 0.272531	 0.000494
H	 -1.004862	 -1.240012	 -0.870939
H	 -1.005220	 -1.241071	 0.870675
C	 -2.001480	 1.730894	 0.383146
H	 -2.985368	 -0.156407	 0.689472
H	 -2.719256	 0.236009	 -0.985727
C	 -3.270413	 2.582650	 0.381354
H	 -1.543375	 1.768748	 1.369316
H	 -1.277546	 2.161201	 -0.305777
H	 -4.002004	 2.197488	 1.086036
H	 -3.055189	 3.610480	 0.656935
H	 -3.733675	 2.593686	 -0.601199
H	 4.165367	 -1.288615	 -0.874074
H	 4.976217	 0.020734	 -0.001915
H	 4.166763	 -1.286207	 0.874930

	symmetry c1
}
set optking {
	frozen_dihedral = ("
		15 11 8 12
	")
}

ee = optimize('scf')
oeprop('DIPOLE', 'QUADRUPOLE', 'MULLIKEN_CHARGES')
f=open( 'psi4out.xyz', 'w' )
f.write( "25  " )
f.write( str(ee) + "\n" )
f.write( MOL.save_string_xyz() )
f.close()
--------------------------------------------------------------------------

    Molecular point group: c1
  Charge       = 0
  Multiplicity = 1
  Basis Set: 6-31G*
  Basis Set:
  @DF-RHF Final Energy:  -387.12406480072389
    Total Energy =                       -387.1240648007237724
    Molecular point group: c1
  Basis Set: 6-31G*
  Basis Set:
  Basis Set: 6-31G*
  Basis Set:
  @DF-RHF Final Energy:  -387.12421251905431
    Total Energy =                       -387.1242125190540264
  Basis Set: 6-31G*
  Basis Set:
  Basis Set: 6-31G*
  Basis Set:
  @DF-RHF Final Energy:  -387.12747601770559
    Total Energy =                       -387.1274760177050211
  Basis Set: 6-31G*
  Basis Set:
  Basis Set: 6-31G*
  Basis Set:
  @DF-RHF Final Energy:  -387.12787441000580
    Total Energy =                       -387.1278744100055746
  Basis Set: 6-31G*
  Basis Set:
  @DF-RHF Final Energy:  -387.12785696484633
    Total Energy =                       -387.1278569648465009
  @DF-RHF Final Energy:  -387.12683243466483
    Total Energy =                       -387.1268324346648342
  Basis Set: 6-31G*
  Basis Set:
  @DF-RHF Final Energy:  -387.12791935058146
    Total Energy =                       -387.1279193505818057
  Basis Set: 6-31G*
  Basis Set:
  Basis Set: 6-31G*
  Basis Set:
  @DF-RHF Final Energy:  -387.12791463007551
    Total Energy =                       -387.1279146300759066
  Basis Set: 6-31G*
  Basis Set:
  Basis Set: 6-31G*
  Basis Set:
  @DF-RHF Final Energy:  -387.12792272345189
    Total Energy =                       -387.1279227234514337
  Basis Set: 6-31G*
  Basis Set:
  Charge       = 0
  Multiplicity = 1
  Basis Set: 6-31G*
  Basis Set:

    Orbital Energies (a.u.)
    -----------------------

    Doubly Occupied:

       1A    -20.550387     2A    -11.326236     3A    -11.231631
       4A    -11.228292     5A    -11.217690     6A    -11.216041
       7A    -11.214294     8A    -11.212268     9A    -11.206467
      10A     -1.395682    11A     -1.091374    12A     -1.053518
      13A     -1.012513    14A     -0.967077    15A     -0.888742
      16A     -0.834176    17A     -0.767615    18A     -0.730841
      19A     -0.660221    20A     -0.650795    21A     -0.631141
      22A     -0.623937    23A     -0.595752    24A     -0.580162
      25A     -0.567655    26A     -0.561554    27A     -0.551671
      28A     -0.515224    29A     -0.504212    30A     -0.495751
      31A     -0.489419    32A     -0.483675    33A     -0.459048
      34A     -0.448506    35A     -0.445799    36A     -0.399806

  @DF-RHF Final Energy:  -387.12792291059134

   => Energetics <=

    Nuclear Repulsion Energy =            446.1978575856802536
    One-Electron Energy =               -1409.0332188872696406
    Two-Electron Energy =                 575.7074383909975950
    DFT Exchange-Correlation Energy =       0.0000000000000000
    Empirical Dispersion Energy =           0.0000000000000000
    PCM Polarization Energy =               0.0000000000000000
    EFP Energy =                            0.0000000000000000
    Total Energy =                       -387.1279229105917921
    Molecular point group: c1
  Basis Set: 6-31G*
  Basis Set:

  -Total Gradient:
     Atom            X                  Y                   Z
    ------   -----------------  -----------------  -----------------
       1        0.000001271006    -0.000002403742    -0.000025722462
       2        0.000001447152     0.000002439220     0.000072649486
       3       -0.000001483833     0.000002508138    -0.000041916571
       4       -0.000000055712     0.000001226420    -0.000026521067
       5        0.000006966669     0.000000282054     0.000020922653
       6       -0.000000856836    -0.000003273793     0.000004772835
       7       -0.000000175244     0.000003588601     0.000003251747
       8       -0.002598735842    -0.003849618753     0.004176148371
       9       -0.000004051078     0.000003499524    -0.000002523031
      10        0.000012559572    -0.000012417188    -0.000010622216
      11       -0.001642275768    -0.002805938925    -0.005349107525
      12        0.002460265640     0.003689061816    -0.002727071923
      13       -0.000001299268     0.000001905938    -0.000002572323
      14       -0.000011298871    -0.000000858392     0.000009963899
      15        0.001785441890     0.002959774529     0.003899146119
      16       -0.000006445905     0.000002653263     0.000010365222
      17        0.000001696043     0.000000750357     0.000001458092
      18       -0.000022409472     0.000012823825    -0.000005971138
      19        0.000017430968    -0.000007390495    -0.000006123639
      20        0.000001589422    -0.000005674193    -0.000008750932
      21       -0.000002094145     0.000001007334     0.000006293888
      22        0.000001593862     0.000006919035    -0.000002605642
      23       -0.000001381114     0.000000150307     0.000001605749
      24        0.000000945016    -0.000000745890     0.000001808032
      25        0.000001355847    -0.000000268992     0.000001122377

  **** Optimization is complete! (in 10 steps) ****
    Final optimized geometry and variables:
    Molecular point group: c1

    Geometry (in Angstrom), charge = 0, multiplicity = 1:

    O            2.640487623998     0.771148315457    -0.127839258476
    C            2.561137581519    -0.418852261687    -0.106706786264
    C            1.226162892984    -1.141528589648    -0.078817232423
    C            3.799232516248    -1.292012839789    -0.107418914537
    C            0.016163727160    -0.211080080796    -0.074623903990
    H            1.194075532068    -1.813775472541    -0.935273883768
    H            1.216557470100    -1.789939927140     0.796434834072
    C           -1.299575680216    -0.999834143545    -0.049681116534
    H            0.058838559229     0.422871034730    -0.953924500927
    H            0.088355631709     0.451181969730     0.779681759924
    C           -2.603699163101    -0.161742531032    -0.089241492796
    H           -1.287160474923    -1.651182898329    -0.920349068976
    H           -1.304828798231    -1.642553569328     0.826562616697
    C           -2.489836780742     1.309845791353     0.330479262366
    H           -3.322415346037    -0.617357178013     0.587216828307
    H           -3.035164668320    -0.203330751235    -1.085361139176
    C           -3.843614529997     2.019226365663     0.292633212779
    H           -2.082697732645     1.375301265005     1.336521786237
    H           -1.795500232287     1.837111084184    -0.316224981081
    H           -4.556692371324     1.543786221254     0.960475906485
    H           -3.750314632927     3.058001264432     0.593911050655
    H           -4.267721014940     2.002188946418    -0.707586960293
    H            3.796519192416    -1.952818448004    -0.969354287956
    H            4.683753731699    -0.670829474504    -0.131573954873
    H            3.820877650901    -1.919077444358     0.779135375234

  Mulliken Charges: (a.u.)
   Center  Symbol    Alpha    Beta     Spin     Total
       1     O     4.26133  4.26133  0.00000 -0.52266
       2     C     2.73543  2.73543  0.00000  0.52915
       3     C     3.21046  3.21046  0.00000 -0.42092
       4     C     3.28671  3.28671  0.00000 -0.57342
       5     C     3.15180  3.15180  0.00000 -0.30360
       6     H     0.41033  0.41033  0.00000  0.17934
       7     H     0.41030  0.41030  0.00000  0.17940
       8     C     3.15671  3.15671  0.00000 -0.31342
       9     H     0.41203  0.41203  0.00000  0.17595
      10     H     0.40997  0.40997  0.00000  0.18006
      11     C     3.15306  3.15306  0.00000 -0.30612
      12     H     0.42292  0.42292  0.00000  0.15415
      13     H     0.42271  0.42271  0.00000  0.15459
      14     C     3.15613  3.15613  0.00000 -0.31227
      15     H     0.42188  0.42188  0.00000  0.15624
      16     H     0.42145  0.42145  0.00000  0.15709
      17     C     3.23929  3.23929  0.00000 -0.47858
      18     H     0.42235  0.42235  0.00000  0.15529
      19     H     0.41765  0.41765  0.00000  0.16471
      20     H     0.42279  0.42279  0.00000  0.15443
      21     H     0.41847  0.41847  0.00000  0.16305
      22     H     0.42227  0.42227  0.00000  0.15547
      23     H     0.40876  0.40876  0.00000  0.18248
      24     H     0.39650  0.39650  0.00000  0.20700
      25     H     0.40871  0.40871  0.00000  0.18259

   Total alpha = 36.00000, Total beta = 36.00000, Total charge =  0.00000
