  ==> Input File <==

--------------------------------------------------------------------------
set {
	reference rhf
	basis 6-31G*
}

set_num_threads( 4 )
memory 2 gb

molecule MOL {
0 1

O	 -0.806752	 -1.114546	 1.082146
C	 -0.561929	 -0.074560	 0.531515
C	 -1.597472	 1.034011	 0.503089
N	 0.623947	 0.147590	 -0.102813
H	 -1.868528	 1.298769	 -0.513038
H	 -2.472791	 0.671041	 1.019920
H	 -1.237628	 1.928840	 0.999450
C	 1.665360	 -0.855771	 0.000151
C	 1.056555	 1.442274	 -0.581239
H	 2.465253	 -0.618490	 -0.692587
H	 1.257730	 -1.821716	 -0.242189
H	 2.081488	 -0.891645	 1.004627
H	 1.676033	 1.306469	 -1.459784
H	 0.219822	 2.060704	 -0.864712
H	 1.643964	 1.975365	 0.164132

	symmetry c1
}
set optking {
	frozen_dihedral = ("
		2 4 8 10
	")
}

ee = optimize('scf')
oeprop('DIPOLE', 'QUADRUPOLE', 'MULLIKEN_CHARGES')
f=open( 'psi4out.xyz', 'w' )
f.write( "15  " )
f.write( str(ee) + "\n" )
f.write( MOL.save_string_xyz() )
f.close()
--------------------------------------------------------------------------

    Molecular point group: c1
  Charge       = 0
  Multiplicity = 1
  Basis Set: 6-31G*
  Basis Set:
  @DF-RHF Final Energy:  -286.02888434438944
    Total Energy =                       -286.0288843443894393
    Molecular point group: c1
  Basis Set: 6-31G*
  Basis Set:
  Basis Set: 6-31G*
  Basis Set:
  @DF-RHF Final Energy:  -286.02928625276706
    Total Energy =                       -286.0292862527670650
  Basis Set: 6-31G*
  Basis Set:
  Basis Set: 6-31G*
  Basis Set:
  @DF-RHF Final Energy:  -286.02933532853513
    Total Energy =                       -286.0293353285348985
  Basis Set: 6-31G*
  Basis Set:
  Basis Set: 6-31G*
  Basis Set:
  @DF-RHF Final Energy:  -286.02935969235318
    Total Energy =                       -286.0293596923530686
  Basis Set: 6-31G*
  Basis Set:
  Basis Set: 6-31G*
  Basis Set:
  @DF-RHF Final Energy:  -286.02940238088911
    Total Energy =                       -286.0294023808891097
  Basis Set: 6-31G*
  Basis Set:
  Basis Set: 6-31G*
  Basis Set:
  @DF-RHF Final Energy:  -286.02940736079302
    Total Energy =                       -286.0294073607930159
  Basis Set: 6-31G*
  Basis Set:
  Basis Set: 6-31G*
  Basis Set:
  @DF-RHF Final Energy:  -286.02941112813801
    Total Energy =                       -286.0294111281381788
  Basis Set: 6-31G*
  Basis Set:
  Charge       = 0
  Multiplicity = 1
  Basis Set: 6-31G*
  Basis Set:

    Orbital Energies (a.u.)
    -----------------------

    Doubly Occupied:

       1A    -20.515485     2A    -15.582888     3A    -11.339991
       4A    -11.266693     5A    -11.248282     6A    -11.228459
       7A     -1.385194     8A     -1.242177     9A     -1.013807
      10A     -0.973071    11A     -0.917815    12A     -0.737190
      13A     -0.680027    14A     -0.657973    15A     -0.651261
      16A     -0.588165    17A     -0.576067    18A     -0.569900
      19A     -0.563811    20A     -0.545561    21A     -0.530374
      22A     -0.499904    23A     -0.411097    24A     -0.367346

  @DF-RHF Final Energy:  -286.02941165815918

   => Energetics <=

    Nuclear Repulsion Energy =            252.6099600369612403
    One-Electron Energy =                -889.0936681863828426
    Two-Electron Energy =                 350.4542964912623120
    DFT Exchange-Correlation Energy =       0.0000000000000000
    Empirical Dispersion Energy =           0.0000000000000000
    PCM Polarization Energy =               0.0000000000000000
    EFP Energy =                            0.0000000000000000
    Total Energy =                       -286.0294116581592334
    Molecular point group: c1
  Basis Set: 6-31G*
  Basis Set:

  -Total Gradient:
     Atom            X                  Y                   Z
    ------   -----------------  -----------------  -----------------
       1        0.000015680238    -0.000012887333     0.000003292282
       2        0.000315220076     0.000420599493     0.000651488831
       3       -0.000027407118    -0.000024903992    -0.000077457815
       4       -0.000383880965    -0.000401440078    -0.000738373117
       5       -0.000005649563     0.000016005573     0.000016260065
       6        0.000005133905     0.000005414691     0.000004997734
       7        0.000015720373     0.000002201857     0.000016898374
       8       -0.000411509704    -0.000520581615    -0.000552757782
       9        0.000002503430    -0.000032564519    -0.000006477923
      10        0.000457610256     0.000542523612     0.000659591651
      11        0.000008989009    -0.000000877431     0.000004241394
      12        0.000005934594     0.000002731554     0.000002559194
      13       -0.000007883388    -0.000004146191    -0.000010089245
      14       -0.000001416410     0.000015632360     0.000020513113
      15        0.000010955268    -0.000007707978     0.000005313243

  **** Optimization is complete! (in 8 steps) ****
    Final optimized geometry and variables:
    Molecular point group: c1

    Geometry (in Angstrom), charge = 0, multiplicity = 1:

    O           -0.837099039317    -1.202929762627     0.867681477105
    C           -0.628855467095    -0.169620237360     0.290553830267
    C           -1.680945073225     0.922403235020     0.265114426447
    N            0.538589547592     0.045005424213    -0.379839162372
    H           -1.946731528511     1.197865624552    -0.749372597132
    H           -2.555005827093     0.542128177010     0.771801130168
    H           -1.336661253792     1.814955476470     0.777029422467
    C            1.566674475064    -0.971005345515    -0.233182471604
    C            0.980741145759     1.353114309226    -0.814899066107
    H            2.357933284401    -0.772336854005    -0.944183583636
    H            1.151356027909    -1.948208026068    -0.422886529903
    H            1.992653806939    -0.970833150148     0.766185445698
    H            1.603322748432     1.245064923797    -1.694221335261
    H            0.144106261009     1.978416766354    -1.084037935268
    H            1.561801821151     1.866030053003    -0.050349773692

  Mulliken Charges: (a.u.)
   Center  Symbol    Alpha    Beta     Spin     Total
       1     O     4.30296  4.30296  0.00000 -0.60592
       2     C     2.62633  2.62633  0.00000  0.74735
       3     C     3.29801  3.29801  0.00000 -0.59602
       4     N     3.82170  3.82170  0.00000 -0.64340
       5     H     0.40653  0.40653  0.00000  0.18694
       6     H     0.39069  0.39069  0.00000  0.21862
       7     H     0.40761  0.40761  0.00000  0.18477
       8     C     3.13824  3.13824  0.00000 -0.27648
       9     C     3.14294  3.14294  0.00000 -0.28587
      10     H     0.41981  0.41981  0.00000  0.16039
      11     H     0.39599  0.39599  0.00000  0.20803
      12     H     0.41486  0.41486  0.00000  0.17029
      13     H     0.40968  0.40968  0.00000  0.18063
      14     H     0.40753  0.40753  0.00000  0.18494
      15     H     0.41713  0.41713  0.00000  0.16574

   Total alpha = 24.00000, Total beta = 24.00000, Total charge =  0.00000
