  ==> Input File <==

--------------------------------------------------------------------------
set {
	reference rhf
	basis 6-31G*
}

set_num_threads( 1 )
memory 2 gb

molecule MOL {
0 1

O	 -0.682937	 1.318834	 -0.186099
C	 -0.860635	 0.152188	 -0.042321
C	 -2.173363	 -0.477127	 0.338347
O	 0.083258	 -0.765189	 -0.202595
H	 -2.477673	 -1.180929	 -0.427595
H	 -2.923125	 0.290956	 0.455536
H	 -2.058825	 -1.029004	 1.264191
C	 1.446825	 -0.353785	 -0.137562
C	 1.939662	 -0.285451	 1.295996
H	 1.554446	 0.597987	 -0.635244
H	 1.983952	 -1.106673	 -0.696269
H	 2.998160	 -0.044340	 1.309268
H	 1.409858	 0.479152	 1.850126
H	 1.801321	 -1.239631	 1.792804

	symmetry c1
}
set optking {
	frozen_dihedral = ("
		10 8 4 2
	")
}

ee = energy('scf')
oeprop('DIPOLE', 'QUADRUPOLE', 'MULLIKEN_CHARGES')
f=open( 'psi4out.xyz', 'w' )
f.write( "14  " )
f.write( str(ee) + "\n" )
f.write( MOL.save_string_xyz() )
f.close()
--------------------------------------------------------------------------

    Molecular point group: c1

    Geometry (in Angstrom), charge = 0, multiplicity = 1:

       Center              X                  Y                   Z               Mass
    ------------   -----------------  -----------------  -----------------  -----------------
           O         -0.648231224632     1.386661450134    -0.369940067193    15.994914619560
           C         -0.825929224632     0.220015450134    -0.226162067193    12.000000000000
           C         -2.138657224632    -0.409299549866     0.154505932807    12.000000000000
           O          0.117963775368    -0.697361549866    -0.386436067193    15.994914619560
           H         -2.442967224632    -1.113101549866    -0.611436067193     1.007825032070
           H         -2.888419224632     0.358783450134     0.271694932807     1.007825032070
           H         -2.024119224632    -0.961176549866     1.080349932807     1.007825032070
           C          1.481530775368    -0.285957549866    -0.321403067193    12.000000000000
           C          1.974367775368    -0.217623549866     1.112154932807    12.000000000000
           H          1.589151775368     0.665814450134    -0.819085067193     1.007825032070
           H          2.018657775368    -1.038845549866    -0.880110067193     1.007825032070
           H          3.032865775368     0.023487450134     1.125426932807     1.007825032070
           H          1.444563775368     0.546979450134     1.666284932807     1.007825032070
           H          1.836026775368    -1.171803549866     1.608962932807     1.007825032070

  Charge       = 0
  Multiplicity = 1
  Basis Set: 6-31G*
  Basis Set:

    Orbital Energies (a.u.)
    -----------------------

    Doubly Occupied:

       1A    -20.599837     2A    -20.545119     3A    -11.375890
       4A    -11.285598     5A    -11.233231     6A    -11.222925
       7A     -1.466865     8A     -1.362845     9A     -1.055296
      10A     -1.001039    11A     -0.883751    12A     -0.764753
      13A     -0.698370    14A     -0.682382    15A     -0.660469
      16A     -0.611610    17A     -0.588344    18A     -0.570261
      19A     -0.557848    20A     -0.531997    21A     -0.519053
      22A     -0.493825    23A     -0.450768    24A     -0.438222

  @DF-RHF Final Energy:  -305.87312564095777

   => Energetics <=

    Nuclear Repulsion Energy =            248.6603361588291250
    One-Electron Energy =                -909.8663782598501939
    Two-Electron Energy =                 355.3329164600631884
    DFT Exchange-Correlation Energy =       0.0000000000000000
    Empirical Dispersion Energy =           0.0000000000000000
    PCM Polarization Energy =               0.0000000000000000
    EFP Energy =                            0.0000000000000000
    Total Energy =                       -305.8731256409578236

  Mulliken Charges: (a.u.)
   Center  Symbol    Alpha    Beta     Spin     Total
       1     O     4.28211  4.28211  0.00000 -0.56422
       2     C     2.61950  2.61950  0.00000  0.76099
       3     C     3.28219  3.28219  0.00000 -0.56439
       4     O     4.30795  4.30795  0.00000 -0.61591
       5     H     0.39955  0.39955  0.00000  0.20091
       6     H     0.39741  0.39741  0.00000  0.20518
       7     H     0.40172  0.40172  0.00000  0.19656
       8     C     3.00971  3.00971  0.00000 -0.01943
       9     C     3.25426  3.25426  0.00000 -0.50853
      10     H     0.39860  0.39860  0.00000  0.20280
      11     H     0.40988  0.40988  0.00000  0.18024
      12     H     0.41551  0.41551  0.00000  0.16898
      13     H     0.40835  0.40835  0.00000  0.18331
      14     H     0.41326  0.41326  0.00000  0.17349

   Total alpha = 24.00000, Total beta = 24.00000, Total charge =  0.00000
