  ==> Input File <==

--------------------------------------------------------------------------
set {
	reference rhf
	basis 6-31G*
}

set_num_threads( 1 )
memory 2 gb

molecule MOL {
0 1

H	 2.465338	 -2.224223	 0.000000
O	 2.784187	 -1.332015	 0.000000
C	 1.765313	 -0.449364	 0.000000
C	 1.005777	 -0.350752	 1.161604
C	 1.463685	 0.338623	 -1.093724
H	 1.260224	 -0.973987	 1.998081
C	 -0.050475	 0.534434	 1.223582
H	 2.031956	 0.283333	 -2.001213
C	 0.396303	 1.216798	 -0.997166
H	 -0.631577	 0.604092	 2.124318
C	 -0.373656	 1.337257	 0.137823
N	 0.081493	 2.048071	 -2.157065
H	 -1.189984	 2.028582	 0.170758
O	 0.764256	 1.924624	 -3.128984
O	 -0.838666	 2.801216	 -2.065715

	symmetry c1
}
set optking {
	frozen_dihedral = ("
		11 9 12 14
	")
}

ee = energy('scf')
oeprop('DIPOLE', 'QUADRUPOLE', 'MULLIKEN_CHARGES')
f=open( 'psi4out.xyz', 'w' )
f.write( "15  " )
f.write( str(ee) + "\n" )
f.write( MOL.save_string_xyz() )
f.close()
--------------------------------------------------------------------------

    Molecular point group: c1

    Geometry (in Angstrom), charge = 0, multiplicity = 1:

       Center              X                  Y                   Z               Mass
    ------------   -----------------  -----------------  -----------------  -----------------
           H          1.753721085315    -3.045666449430     0.760996386535     1.007825032070
           O          2.072570085315    -2.153458449430     0.760996386535    15.994914619560
           C          1.053696085315    -1.270807449430     0.760996386535    12.000000000000
           C          0.294160085315    -1.172195449430     1.922600386535    12.000000000000
           C          0.752068085315    -0.482820449430    -0.332727613465    12.000000000000
           H          0.548607085315    -1.795430449430     2.759077386535     1.007825032070
           C         -0.762091914685    -0.287009449430     1.984578386535    12.000000000000
           H          1.320339085315    -0.538110449430    -1.240216613465     1.007825032070
           C         -0.315313914685     0.395354550570    -0.236169613465    12.000000000000
           H         -1.343193914685    -0.217351449430     2.885314386535     1.007825032070
           C         -1.085272914685     0.515813550570     0.898819386535    12.000000000000
           N         -0.630123914685     1.226627550570    -1.396068613465    14.003074004780
           H         -1.901600914685     1.207138550570     0.931754386535     1.007825032070
           O          0.052639085315     1.103180550570    -2.367987613465    15.994914619560
           O         -1.550282914685     1.979772550570    -1.304718613465    15.994914619560

  Charge       = 0
  Multiplicity = 1
  Basis Set: 6-31G*
  Basis Set:

    Orbital Energies (a.u.)
    -----------------------

    Doubly Occupied:

       1A    -20.603356     2A    -20.602733     3A    -20.602520
       4A    -15.857873     5A    -11.322061     6A    -11.308824
       7A    -11.268699     8A    -11.266806     9A    -11.265821
      10A    -11.263473    11A     -1.636600    12A     -1.427378
      13A     -1.419828    14A     -1.200144    15A     -1.093802
      16A     -1.045948    17A     -0.963603    18A     -0.867414
      19A     -0.836468    20A     -0.794019    21A     -0.735784
      22A     -0.733958    23A     -0.722044    24A     -0.711110
      25A     -0.682012    26A     -0.641957    27A     -0.626350
      28A     -0.569078    29A     -0.561088    30A     -0.526691
      31A     -0.509936    32A     -0.489470    33A     -0.484987
      34A     -0.453215    35A     -0.377087    36A     -0.355023

  @DF-RHF Final Energy:  -509.02222446315039

   => Energetics <=

    Nuclear Repulsion Energy =            503.2069154988722062
    One-Electron Energy =               -1692.8041789584549406
    Two-Electron Energy =                 680.5750389964327951
    DFT Exchange-Correlation Energy =       0.0000000000000000
    Empirical Dispersion Energy =           0.0000000000000000
    PCM Polarization Energy =               0.0000000000000000
    EFP Energy =                            0.0000000000000000
    Total Energy =                       -509.0222244631499962

  Mulliken Charges: (a.u.)
   Center  Symbol    Alpha    Beta     Spin     Total
       1     H     0.26672  0.26672  0.00000  0.46655
       2     O     4.38298  4.38298  0.00000 -0.76596
       3     C     2.81273  2.81273  0.00000  0.37454
       4     C     3.10945  3.10945  0.00000 -0.21890
       5     C     3.11112  3.11112  0.00000 -0.22224
       6     H     0.38632  0.38632  0.00000  0.22736
       7     C     3.10492  3.10492  0.00000 -0.20983
       8     H     0.35831  0.35831  0.00000  0.28339
       9     C     2.91741  2.91741  0.00000  0.16519
      10     H     0.38775  0.38775  0.00000  0.22450
      11     C     3.09147  3.09147  0.00000 -0.18293
      12     N     3.24030  3.24030  0.00000  0.51940
      13     H     0.36404  0.36404  0.00000  0.27193
      14     O     4.23314  4.23314  0.00000 -0.46629
      15     O     4.23335  4.23335  0.00000 -0.46670

   Total alpha = 36.00000, Total beta = 36.00000, Total charge = -0.00000
