  ==> Input File <==

--------------------------------------------------------------------------
set {
	reference rhf
	basis 6-31G*
}

set_num_threads( 1 )
memory 2 gb

molecule MOL {
0 1

H	 -1.744099	 1.159711	 -0.012586
N	 -1.852125	 0.165761	 -0.074816
C	 -0.563778	 -0.502042	 0.037919
H	 -2.269923	 -0.024963	 -0.965785
C	 0.575259	 0.508231	 -0.048326
H	 -0.482092	 -1.204004	 -0.786564
H	 -0.460411	 -1.085169	 0.956626
C	 1.954651	 -0.143624	 0.035137
H	 0.475158	 1.060484	 -0.977307
H	 0.469181	 1.234488	 0.755973
H	 2.103292	 -0.853109	 -0.774172
H	 2.742821	 0.599562	 -0.030094
H	 2.083613	 -0.679371	 0.971560

	symmetry c1
}
set optking {
	frozen_dihedral = ("
		6 3 5 9
	")
}

ee = energy('scf')
oeprop('DIPOLE', 'QUADRUPOLE', 'MULLIKEN_CHARGES')
f=open( 'psi4out.xyz', 'w' )
f.write( "13  " )
f.write( str(ee) + "\n" )
f.write( MOL.save_string_xyz() )
f.close()
--------------------------------------------------------------------------

    Molecular point group: c1

    Geometry (in Angstrom), charge = 0, multiplicity = 1:

       Center              X                  Y                   Z               Mass
    ------------   -----------------  -----------------  -----------------  -----------------
           H         -1.754230622642     1.144794036146     0.014837310159     1.007825032070
           N         -1.862256622642     0.150844036146    -0.047392689841    14.003074004780
           C         -0.573909622642    -0.516958963854     0.065342310159    12.000000000000
           H         -2.280054622642    -0.039879963854    -0.938361689841     1.007825032070
           C          0.565127377358     0.493314036146    -0.020902689841    12.000000000000
           H         -0.492223622642    -1.218920963854    -0.759140689841     1.007825032070
           H         -0.470542622642    -1.100085963854     0.984049310159     1.007825032070
           C          1.944519377358    -0.158540963854     0.062560310159    12.000000000000
           H          0.465026377358     1.045567036146    -0.949883689841     1.007825032070
           H          0.459049377358     1.219571036146     0.783396310159     1.007825032070
           H          2.093160377358    -0.868025963854    -0.746748689841     1.007825032070
           H          2.732689377358     0.584645036146    -0.002670689841     1.007825032070
           H          2.073481377358    -0.694287963854     0.998983310159     1.007825032070

  Charge       = 0
  Multiplicity = 1
  Basis Set: 6-31G*
  Basis Set:

    Orbital Energies (a.u.)
    -----------------------

    Doubly Occupied:

       1A    -15.529967     2A    -11.240445     3A    -11.217991
       4A    -11.212436     5A     -1.178095     6A     -1.037240
       7A     -0.899083     8A     -0.809333     9A     -0.666830
      10A     -0.620696    11A     -0.605503    12A     -0.557813
      13A     -0.541277    14A     -0.501677    15A     -0.486147
      16A     -0.472299    17A     -0.374696

  @DF-RHF Final Energy:  -173.27705748732319

   => Energetics <=

    Nuclear Repulsion Energy =            132.1845528954824545
    One-Electron Energy =                -495.0201437860292799
    Two-Electron Energy =                 189.5585334032239757
    DFT Exchange-Correlation Energy =       0.0000000000000000
    Empirical Dispersion Energy =           0.0000000000000000
    PCM Polarization Energy =               0.0000000000000000
    EFP Energy =                            0.0000000000000000
    Total Energy =                       -173.2770574873228497

  Mulliken Charges: (a.u.)
   Center  Symbol    Alpha    Beta     Spin     Total
       1     H     0.33179  0.33179  0.00000  0.33642
       2     N     3.92696  3.92696  0.00000 -0.85391
       3     C     3.04732  3.04732  0.00000 -0.09464
       4     H     0.33225  0.33225  0.00000  0.33550
       5     C     3.16716  3.16716  0.00000 -0.33432
       6     H     0.42687  0.42687  0.00000  0.14626
       7     H     0.42117  0.42117  0.00000  0.15767
       8     C     3.24319  3.24319  0.00000 -0.48637
       9     H     0.42407  0.42407  0.00000  0.15185
      10     H     0.42090  0.42090  0.00000  0.15820
      11     H     0.42111  0.42111  0.00000  0.15777
      12     H     0.41797  0.41797  0.00000  0.16406
      13     H     0.41924  0.41924  0.00000  0.16152

   Total alpha = 17.00000, Total beta = 17.00000, Total charge = -0.00000
