                              Psi4 1.0.54 Driver

  ==> Input File <==

--------------------------------------------------------------------------
set {
	reference rhf
	basis cc-pvtz
}

set_num_threads( 4 )
memory 2 gb

molecule MOL {
0 1

H	 -2.171709	 0.882708	 0.500286
C	 -2.016894	 0.001719	 -0.114152
O	 -0.775228	 0.000056	 -0.739966
H	 -2.760846	 0.003757	 -0.898169
H	 -2.174774	 -0.879864	 0.498643
C	 -0.162533	 -1.225806	 -1.088027
C	 1.151963	 -0.808269	 -1.738141
C	 0.117808	 -2.074477	 0.153668
C	 -1.015388	 -2.003753	 -2.092035
H	 1.748562	 -0.235603	 -1.039409
H	 0.959475	 -0.187710	 -2.604143
H	 1.722213	 -1.674374	 -2.052222
H	 0.665715	 -1.496575	 0.888173
H	 0.713265	 -2.939594	 -0.112588
H	 -0.793030	 -2.436894	 0.613657
H	 -1.265577	 -1.376099	 -2.938880
H	 -0.469223	 -2.865684	 -2.456253
H	 -1.935616	 -2.365735	 -1.650768

	symmetry c1
}
set optking {
	frozen_dihedral = ("
		6 3 2 5
	")
}

ee,wfn = optimize('scf', return_wfn=True)
oeprop( wfn, 'DIPOLE', 'QUADRUPOLE', 'MULLIKEN_CHARGES')
f=open( 'psi4out.xyz', 'w' )
f.write( "18  " )
f.write( str(ee) + "\n" )
f.write( MOL.save_string_xyz() )
f.close()
--------------------------------------------------------------------------

    Molecular point group: c1
  Charge       = 0
  Multiplicity = 1
  Basis Set: CC-PVTZ
  Basis Set:
  @DF-RHF Final Energy:  -271.27377031514590
    Total Energy =                       -271.2737703151459527
    Molecular point group: c1
  Basis Set: CC-PVTZ
  Basis Set:
  Basis Set: CC-PVTZ
  Basis Set:
  @DF-RHF Final Energy:  -271.27499260557676
    Total Energy =                       -271.2749926055764718
  Basis Set: CC-PVTZ
  Basis Set:
  Basis Set: CC-PVTZ
  Basis Set:
  @DF-RHF Final Energy:  -271.27569257897608
    Total Energy =                       -271.2756925789763045
  Basis Set: CC-PVTZ
  Basis Set:
  Basis Set: CC-PVTZ
  Basis Set:
  @DF-RHF Final Energy:  -271.27571730059765
    Total Energy =                       -271.2757173005976483
  Basis Set: CC-PVTZ
  Basis Set:
  Basis Set: CC-PVTZ
  Basis Set:
  @DF-RHF Final Energy:  -271.27571310483944
    Total Energy =                       -271.2757131048392125
  Basis Set: CC-PVTZ
  Basis Set:
  Basis Set: CC-PVTZ
  Basis Set:
  @DF-RHF Final Energy:  -271.27572722193139
    Total Energy =                       -271.2757272219312199
  Basis Set: CC-PVTZ
  Basis Set:
  Charge       = 0
  Multiplicity = 1
  Basis Set: CC-PVTZ
  Basis Set:

    Orbital Energies (a.u.)
    -----------------------

    Doubly Occupied:

       1A    -20.539297     2A    -11.280486     3A    -11.258542
       4A    -11.207809     5A    -11.206359     6A    -11.201899
       7A     -1.372448     8A     -1.074255     9A     -0.946968
      10A     -0.940708    11A     -0.913349    12A     -0.753800
      13A     -0.656723    14A     -0.646077    15A     -0.640289
      16A     -0.591436    17A     -0.573272    18A     -0.553354
      19A     -0.536776    20A     -0.525164    21A     -0.515383
      22A     -0.490888    23A     -0.488216    24A     -0.440444
      25A     -0.405226

  @DF-RHF Final Energy:  -271.27572747835904

   => Energetics <=

    Nuclear Repulsion Energy =            272.6508256965659029
    One-Electron Energy =                -908.3347680587792183
    Two-Electron Energy =                 364.4082148838544981
    DFT Exchange-Correlation Energy =       0.0000000000000000
    Empirical Dispersion Energy =           0.0000000000000000
    PCM Polarization Energy =               0.0000000000000000
    EFP Energy =                            0.0000000000000000
    Total Energy =                       -271.2757274783588173
    Molecular point group: c1
  Basis Set: CC-PVTZ
  Basis Set:

  -Total Gradient:
     Atom            X                  Y                   Z
    ------   -----------------  -----------------  -----------------
       1       -0.000033086034     0.000035787553     0.000040436938
       2        0.001033667371     0.001275705240     0.002747476538
       3       -0.000979825504    -0.000421346518    -0.002602583345
       4       -0.000062524836     0.000010314607    -0.000016025002
       5       -0.000618747809    -0.001015629313    -0.001541122959
       6        0.000680392220     0.000108229944     0.001394485409
       7        0.000094818818    -0.000035004839    -0.000032324977
       8       -0.000057216367     0.000053438445     0.000025132642
       9       -0.000042915821    -0.000038456006     0.000019207696
      10       -0.000010460543    -0.000000472672    -0.000015453492
      11       -0.000005634236    -0.000007901684    -0.000002326848
      12        0.000041158076     0.000004424447    -0.000006354713
      13       -0.000016069450    -0.000038634324    -0.000003965180
      14       -0.000041105936     0.000077526902    -0.000034685036
      15        0.000042283180    -0.000008453147    -0.000013639390
      16        0.000036012367    -0.000001037282     0.000037761304
      17       -0.000033738476     0.000002147155     0.000010444152
      18       -0.000027007020    -0.000000638507    -0.000006463736

  **** Optimization is complete! (in 7 steps) ****
    Final optimized geometry and variables:
    Molecular point group: c1

    Geometry (in Angstrom), charge = 0, multiplicity = 1:

    H           -1.806792142260     1.813957495552     1.287967918902
    C           -1.659764240350     0.931939790466     0.679748659728
    O           -0.374884474818     0.992265678251     0.145139282320
    H           -2.411231816597     0.927643600221    -0.104739231009
    H           -1.822316702535     0.056930449883     1.297293891286
    C            0.330513801372    -0.200745256422    -0.133733131262
    C            1.588963547536     0.269600666692    -0.854885746019
    C            0.714992757891    -0.917498297404     1.162150212342
    C           -0.481277767222    -1.121166775733    -1.046715728109
    H            2.147245294306     0.950308945156    -0.224861186665
    H            1.325162000369     0.792768352115    -1.765199349831
    H            2.226839719572    -0.568699587266    -1.109068001199
    H            1.251420827687    -0.241417558177     1.816350951026
    H            1.355243322002    -1.764617333719     0.946223543018
    H           -0.149176194470    -1.292708215557     1.695558529815
    H           -0.774019326169    -0.595142465256    -1.947439915027
    H            0.109384552824    -1.983097125755    -1.332924539831
    H           -1.377234717634    -1.486164173843    -0.559422207932

  Mulliken Charges: (a.u.)
   Center  Symbol    Alpha    Beta     Spin     Total
       1     H     0.44521  0.44521  0.00000  0.10958
       2     C     3.04461  3.04461  0.00000 -0.08922
       3     O     4.19219  4.19219  0.00000 -0.38438
       4     H     0.46261  0.46261  0.00000  0.07478
       5     H     0.46887  0.46887  0.00000  0.06226
       6     C     2.87812  2.87812  0.00000  0.24376
       7     C     3.14241  3.14241  0.00000 -0.28483
       8     C     3.15956  3.15956  0.00000 -0.31913
       9     C     3.16388  3.16388  0.00000 -0.32777
      10     H     0.44843  0.44843  0.00000  0.10314
      11     H     0.44944  0.44944  0.00000  0.10111
      12     H     0.45923  0.45923  0.00000  0.08154
      13     H     0.44644  0.44644  0.00000  0.10711
      14     H     0.44963  0.44963  0.00000  0.10074
      15     H     0.44848  0.44848  0.00000  0.10304
      16     H     0.44579  0.44579  0.00000  0.10843
      17     H     0.44677  0.44677  0.00000  0.10647
      18     H     0.44832  0.44832  0.00000  0.10336

   Total alpha = 25.00000, Total beta = 25.00000, Total charge =  0.00000

*** Psi4 exiting successfully. Buy a developer a beer!
