  ==> Input File <==

--------------------------------------------------------------------------
set {
	reference rhf
	basis 6-31G*
}

set_num_threads( 4 )
memory 2 gb

molecule MOL {
0 1

O	 0.749854	 1.307668	 -0.000040
C	 0.576249	 0.131685	 -0.000108
C	 -0.766779	 -0.556801	 -0.000461
O	 1.568443	 -0.749345	 -0.000005
C	 -1.945214	 0.412366	 0.000161
H	 -0.796911	 -1.211249	 -0.867467
H	 -0.796854	 -1.212390	 0.865687
C	 -2.492767	 0.648733	 1.406889
H	 -2.728667	 0.023761	 -0.641548
H	 -1.634300	 1.354203	 -0.438987
H	 -2.840472	 -0.276993	 1.856984
H	 -3.329382	 1.339398	 1.385526
H	 -1.734348	 1.069227	 2.061457
C	 2.886820	 -0.232538	 0.000322
H	 3.059106	 0.369571	 -0.880203
H	 3.540187	 -1.091012	 0.000050
H	 3.059019	 0.368956	 0.881266

	symmetry c1
}
set optking {
	frozen_dihedral = ("
		9 5 3 6
	")
}

ee = optimize('scf')
oeprop('DIPOLE', 'QUADRUPOLE', 'MULLIKEN_CHARGES')
f=open( 'psi4out.xyz', 'w' )
f.write( "17  " )
f.write( str(ee) + "\n" )
f.write( MOL.save_string_xyz() )
f.close()
--------------------------------------------------------------------------

    Molecular point group: c1
  Charge       = 0
  Multiplicity = 1
  Basis Set: 6-31G*
  Basis Set:
  @DF-RHF Final Energy:  -344.90368934459082
    Total Energy =                       -344.9036893445907026
    Molecular point group: c1
  Basis Set: 6-31G*
  Basis Set:
  Basis Set: 6-31G*
  Basis Set:
  @DF-RHF Final Energy:  -344.90398799248089
    Total Energy =                       -344.9039879924808929
  Basis Set: 6-31G*
  Basis Set:
  Basis Set: 6-31G*
  Basis Set:
  @DF-RHF Final Energy:  -344.90374558428533
    Total Energy =                       -344.9037455842855024
  Basis Set: 6-31G*
  Basis Set:
  Basis Set: 6-31G*
  Basis Set:
  @DF-RHF Final Energy:  -344.90406098887712
    Total Energy =                       -344.9040609888771201
  Basis Set: 6-31G*
  Basis Set:
  Basis Set: 6-31G*
  Basis Set:
  @DF-RHF Final Energy:  -344.90406672835184
    Total Energy =                       -344.9040667283514381
  Basis Set: 6-31G*
  Basis Set:
  Basis Set: 6-31G*
  Basis Set:
  @DF-RHF Final Energy:  -344.90406947518511
    Total Energy =                       -344.9040694751848832
  Basis Set: 6-31G*
  Basis Set:
  Basis Set: 6-31G*
  Basis Set:
  @DF-RHF Final Energy:  -344.90407103361690
    Total Energy =                       -344.9040710336170150
  Basis Set: 6-31G*
  Basis Set:
  Charge       = 0
  Multiplicity = 1
  Basis Set: 6-31G*
  Basis Set:

    Orbital Energies (a.u.)
    -----------------------

    Doubly Occupied:

       1A    -20.604681     2A    -20.546729     3A    -11.373675
       4A    -11.281569     5A    -11.235682     6A    -11.220781
       7A    -11.210452     8A     -1.470565     9A     -1.363895
      10A     -1.077999    11A     -1.000532    12A     -0.938551
      13A     -0.829234    14A     -0.766757    15A     -0.703414
      16A     -0.681603    17A     -0.672483    18A     -0.620109
      19A     -0.609515    20A     -0.569323    21A     -0.567903
      22A     -0.533028    23A     -0.524467    24A     -0.486683
      25A     -0.482695    26A     -0.479547    27A     -0.457339
      28A     -0.439827

  @DF-RHF Final Energy:  -344.90407131208070

   => Energetics <=

    Nuclear Repulsion Energy =            315.7943618737891143
    One-Electron Energy =               -1095.8987892076493154
    Two-Electron Energy =                 435.2003560217793279
    DFT Exchange-Correlation Energy =       0.0000000000000000
    Empirical Dispersion Energy =           0.0000000000000000
    PCM Polarization Energy =               0.0000000000000000
    EFP Energy =                            0.0000000000000000
    Total Energy =                       -344.9040713120809301
    Molecular point group: c1
  Basis Set: 6-31G*
  Basis Set:

  -Total Gradient:
     Atom            X                  Y                   Z
    ------   -----------------  -----------------  -----------------
       1        0.000018605811     0.000002226533     0.000002067996
       2       -0.000015216151    -0.000005030359     0.000000076567
       3        0.002955386411     0.003803529893    -0.003375132791
       4       -0.000011421161     0.000013377334     0.000002859082
       5       -0.002357604994    -0.003057511484     0.004353928582
       6       -0.002068389904    -0.002658467060     0.002107701241
       7       -0.000002031083    -0.000001637377    -0.000007648184
       8        0.000011724312     0.000015974436    -0.000007720612
       9        0.001461981705     0.001900742790    -0.003079575411
      10       -0.000003353066    -0.000004520476     0.000002181382
      11       -0.000002739765    -0.000007787177     0.000001097890
      12        0.000002002653     0.000000163374    -0.000001948664
      13        0.000001773393     0.000002807169     0.000003180743
      14        0.000000917188    -0.000008519132    -0.000001809012
      15       -0.000000065504     0.000000518204     0.000001378970
      16        0.000009169376     0.000003607637     0.000000443185
      17       -0.000000739221     0.000000525693    -0.000001080960

  **** Optimization is complete! (in 8 steps) ****
    Final optimized geometry and variables:
    Molecular point group: c1

    Geometry (in Angstrom), charge = 0, multiplicity = 1:

    O            0.635477521365     1.162799204342    -0.119840644005
    C            0.461601144899    -0.010765801193    -0.197645901348
    C           -0.878774679384    -0.704553104395    -0.231197966882
    O            1.454302714876    -0.888735162819    -0.254680131154
    C           -2.081728515990     0.246406693589    -0.214571371043
    H           -0.898778297490    -1.369278618801    -1.088627625013
    H           -0.900996419246    -1.371289840900     0.627805272246
    C           -2.608260597790     0.532671368593     1.189741078189
    H           -2.866581301245    -0.164715420297    -0.842062335853
    H           -1.791309783965     1.180530725778    -0.680834733990
    H           -2.950160262984    -0.376356058196     1.677177301321
    H           -3.442355352004     1.226184808643     1.158355489785
    H           -1.833454197937     0.975148362907     1.808028412337
    C            2.772555399371    -0.372544715638    -0.217741608228
    H            2.945587018906     0.287743258946    -1.055274640502
    H            3.426289067900    -1.228820705677    -0.275229730758
    H            2.943199219085     0.167915016794     0.702182932256

  Mulliken Charges: (a.u.)
   Center  Symbol    Alpha    Beta     Spin     Total
       1     O     4.28582  4.28582  0.00000 -0.57164
       2     C     2.60915  2.60915  0.00000  0.78169
       3     C     3.20982  3.20982  0.00000 -0.41963
       4     O     4.30563  4.30563  0.00000 -0.61127
       5     C     3.15831  3.15831  0.00000 -0.31662
       6     H     0.39725  0.39725  0.00000  0.20550
       7     H     0.39966  0.39966  0.00000  0.20068
       8     C     3.24245  3.24245  0.00000 -0.48491
       9     H     0.41850  0.41850  0.00000  0.16300
      10     H     0.40082  0.40082  0.00000  0.19837
      11     H     0.42346  0.42346  0.00000  0.15307
      12     H     0.41721  0.41721  0.00000  0.16558
      13     H     0.41346  0.41346  0.00000  0.17307
      14     C     3.09230  3.09230  0.00000 -0.18460
      15     H     0.40881  0.40881  0.00000  0.18237
      16     H     0.40831  0.40831  0.00000  0.18338
      17     H     0.40903  0.40903  0.00000  0.18195

   Total alpha = 28.00000, Total beta = 28.00000, Total charge = -0.00000
