                              Psi4 1.0.54 Driver

  ==> Input File <==

--------------------------------------------------------------------------
set {
	reference rhf
	basis cc-pvtz
}

set_num_threads( 4 )
memory 2 gb

molecule MOL {
0 1

H	 3.723722	 -0.929979	 -0.054159
O	 2.825363	 -1.152436	 0.138609
C	 2.077585	 -0.065450	 -0.030864
C	 0.626018	 -0.337582	 0.258241
O	 2.540248	 0.968759	 -0.368795
C	 -0.267326	 0.883135	 0.076490
H	 0.329015	 -1.159597	 -0.382023
H	 0.570253	 -0.717039	 1.273789
C	 -1.726822	 0.642622	 0.463839
H	 -0.210803	 1.217591	 -0.953497
H	 0.129920	 1.693110	 0.675679
C	 -2.480891	 -0.340606	 -0.429852
H	 -2.243098	 1.597649	 0.438609
H	 -1.776542	 0.301208	 1.495542
C	 -3.955933	 -0.460128	 -0.060472
H	 -2.393755	 -0.020485	 -1.464726
H	 -2.024244	 -1.323637	 -0.374360
H	 -4.467673	 -1.160944	 -0.709827
H	 -4.458917	 0.497287	 -0.144505
H	 -4.076458	 -0.806900	 0.960497

	symmetry c1
}
set optking {
	frozen_dihedral = ("
		7 4 6 10
	")
}

ee,wfn = optimize('scf', return_wfn=True)
oeprop( wfn, 'DIPOLE', 'QUADRUPOLE', 'MULLIKEN_CHARGES')
f=open( 'psi4out.xyz', 'w' )
f.write( "20  " )
f.write( str(ee) + "\n" )
f.write( MOL.save_string_xyz() )
f.close()
--------------------------------------------------------------------------

    Molecular point group: c1
  Charge       = 0
  Multiplicity = 1
  Basis Set: CC-PVTZ
  Basis Set:
  @DF-RHF Final Energy:  -384.09502533663800
    Total Energy =                       -384.0950253366378320
    Molecular point group: c1
  Basis Set: CC-PVTZ
  Basis Set:
  Basis Set: CC-PVTZ
  Basis Set:
  @DF-RHF Final Energy:  -384.09502373594484
    Total Energy =                       -384.0950237359448920
  Basis Set: CC-PVTZ
  Basis Set:
  Charge       = 0
  Multiplicity = 1
  Basis Set: CC-PVTZ
  Basis Set:

    Orbital Energies (a.u.)
    -----------------------

    Doubly Occupied:

       1A    -20.603863     2A    -20.540486     3A    -11.373423
       4A    -11.238662     5A    -11.221016     6A    -11.218792
       7A    -11.218180     8A    -11.210568     9A     -1.477406
      10A     -1.368946    11A     -1.097548    12A     -1.042230
      13A     -0.962534    14A     -0.870356    15A     -0.817792
      16A     -0.778032    17A     -0.703671    18A     -0.692965
      19A     -0.666678    20A     -0.637266    21A     -0.605102
      22A     -0.596422    23A     -0.577015    24A     -0.556767
      25A     -0.541305    26A     -0.513680    27A     -0.496061
      28A     -0.484532    29A     -0.471587    30A     -0.468313
      31A     -0.458236    32A     -0.446457

  @DF-RHF Final Energy:  -384.09502373642982

   => Energetics <=

    Nuclear Repulsion Energy =            376.5786431385935771
    One-Electron Energy =               -1269.4355526990198086
    Two-Electron Energy =                 508.7618858239965220
    DFT Exchange-Correlation Energy =       0.0000000000000000
    Empirical Dispersion Energy =           0.0000000000000000
    PCM Polarization Energy =               0.0000000000000000
    EFP Energy =                            0.0000000000000000
    Total Energy =                       -384.0950237364296527
    Molecular point group: c1
  Basis Set: CC-PVTZ
  Basis Set:

  -Total Gradient:
     Atom            X                  Y                   Z
    ------   -----------------  -----------------  -----------------
       1        0.000003502878     0.000007264971     0.000005794649
       2        0.000025350040    -0.000003359110     0.000276643019
       3       -0.000124828145    -0.000249144628    -0.000901353503
       4        0.000000129243     0.000035265162     0.000307377079
       5        0.000043940107     0.000175932054     0.000305127665
       6        0.000076911228     0.000046606799     0.000069041729
       7        0.000078880832     0.000023050730    -0.000050119564
       8       -0.000065067391    -0.000020232117     0.000037203455
       9        0.000023908100    -0.000008114309     0.000008913616
      10       -0.000047707985    -0.000038266151    -0.000016447310
      11        0.000001960626     0.000013660902     0.000005586509
      12       -0.000013109390     0.000047192049    -0.000055760451
      13        0.000015199664     0.000003349968    -0.000012726390
      14       -0.000002433460     0.000017999412     0.000018263746
      15       -0.000007852232    -0.000039206632     0.000024001546
      16       -0.000008107692     0.000007522740    -0.000024286624
      17        0.000022064082    -0.000010462509    -0.000007939981
      18       -0.000005811867    -0.000018594938     0.000010928777
      19       -0.000003227573     0.000003045370    -0.000016454491
      20       -0.000013701065     0.000006490243     0.000016206524

  **** Optimization is complete! (in 3 steps) ****
    Final optimized geometry and variables:
    Molecular point group: c1

    Geometry (in Angstrom), charge = 0, multiplicity = 1:

    H            3.721933577994    -0.934366823848    -0.052431317075
    O            2.822839133120    -1.155580601054     0.138419078007
    C            2.076448798521    -0.068148475251    -0.035004423894
    C            0.624400831988    -0.338156229219     0.254037907982
    O            2.540797363758     0.965843827359    -0.371547363989
    C           -0.267010406807     0.883989943839     0.072182354083
    H            0.326399201105    -1.159433538053    -0.386788257884
    H            0.567632287125    -0.717917822725     1.269447649688
    C           -1.727290916823     0.645143207831     0.457790065928
    H           -0.209262963893     1.218613356565    -0.957710580542
    H            0.130652944591     1.693221798993     0.672107155441
    C           -2.481698236243    -0.336890375379    -0.437136066672
    H           -2.242282128097     1.600871532224     0.432403189268
    H           -1.778539957462     0.303508959532     1.489380547252
    C           -3.954556305833    -0.464538506929    -0.061256286156
    H           -2.400687310959    -0.011787520528    -1.471010967211
    H           -2.020637649533    -1.318245231092    -0.388296214946
    H           -4.465080100683    -1.168964668978    -0.707677067077
    H           -4.463471431060     0.489865585798    -0.144103432687
    H           -4.068829419293    -0.810954898943     0.960581750537

  Mulliken Charges: (a.u.)
   Center  Symbol    Alpha    Beta     Spin     Total
       1     H     0.38237  0.38237  0.00000  0.23527
       2     O     4.16027  4.16027  0.00000 -0.32053
       3     C     2.80347  2.80347  0.00000  0.39307
       4     C     3.11200  3.11200  0.00000 -0.22401
       5     O     4.19125  4.19125  0.00000 -0.38250
       6     C     3.09276  3.09276  0.00000 -0.18552
       7     H     0.43718  0.43718  0.00000  0.12564
       8     H     0.43772  0.43772  0.00000  0.12456
       9     C     3.09929  3.09929  0.00000 -0.19858
      10     H     0.44570  0.44570  0.00000  0.10860
      11     H     0.43922  0.43922  0.00000  0.12156
      12     C     3.08681  3.08681  0.00000 -0.17363
      13     H     0.44548  0.44548  0.00000  0.10904
      14     H     0.45399  0.45399  0.00000  0.09201
      15     C     3.14958  3.14958  0.00000 -0.29916
      16     H     0.45251  0.45251  0.00000  0.09498
      17     H     0.45427  0.45427  0.00000  0.09146
      18     H     0.44772  0.44772  0.00000  0.10456
      19     H     0.45357  0.45357  0.00000  0.09285
      20     H     0.45484  0.45484  0.00000  0.09032

   Total alpha = 32.00000, Total beta = 32.00000, Total charge = -0.00000

*** Psi4 exiting successfully. Buy a developer a beer!
