                              Psi4 1.0.54 Driver

  ==> Input File <==

--------------------------------------------------------------------------
set {
	reference rhf
	basis cc-pvtz
}

set_num_threads( 4 )
memory 2 gb

molecule MOL {
0 1

H	 1.128311	 0.207724	 1.465118
C	 1.134565	 0.093781	 0.372499
C	 0.062554	 0.862911	 -0.350953
O	 1.948932	 -0.587720	 -0.146651
C	 0.210026	 2.378516	 -0.184198
H	 -0.902906	 0.517201	 -0.004736
H	 0.152408	 0.608525	 -1.404655
C	 -0.033423	 2.858639	 1.243690
H	 -0.488729	 2.866397	 -0.853741
H	 1.201630	 2.681521	 -0.508784
H	 -1.032737	 2.599700	 1.575170
H	 0.072213	 3.934702	 1.311288
H	 0.667430	 2.414033	 1.941664

	symmetry c1
}
set optking {
	frozen_dihedral = ("
		6 3 2 4
	")
}

ee,wfn = optimize('scf', return_wfn=True)
oeprop( wfn, 'DIPOLE', 'QUADRUPOLE', 'MULLIKEN_CHARGES')
f=open( 'psi4out.xyz', 'w' )
f.write( "13  " )
f.write( str(ee) + "\n" )
f.write( MOL.save_string_xyz() )
f.close()
--------------------------------------------------------------------------

    Molecular point group: c1
  Charge       = 0
  Multiplicity = 1
  Basis Set: CC-PVTZ
  Basis Set:
  @DF-RHF Final Energy:  -231.06844075858561
    Total Energy =                       -231.0684407585853251
    Molecular point group: c1
  Basis Set: CC-PVTZ
  Basis Set:
  Basis Set: CC-PVTZ
  Basis Set:
  @DF-RHF Final Energy:  -231.06860716476925
    Total Energy =                       -231.0686071647693609
  Basis Set: CC-PVTZ
  Basis Set:
  Basis Set: CC-PVTZ
  Basis Set:
  @DF-RHF Final Energy:  -231.06778456242907
    Total Energy =                       -231.0677845624291535
  Basis Set: CC-PVTZ
  Basis Set:
  Basis Set: CC-PVTZ
  Basis Set:
  @DF-RHF Final Energy:  -231.06900015475492
    Total Energy =                       -231.0690001547546046
  Basis Set: CC-PVTZ
  Basis Set:
  Basis Set: CC-PVTZ
  Basis Set:
  @DF-RHF Final Energy:  -231.06899878375637
    Total Energy =                       -231.0689987837563990
  Basis Set: CC-PVTZ
  Basis Set:
  Basis Set: CC-PVTZ
  Basis Set:
  @DF-RHF Final Energy:  -231.06902565660891
    Total Energy =                       -231.0690256566088578
  Basis Set: CC-PVTZ
  Basis Set:
  Basis Set: CC-PVTZ
  Basis Set:
  @DF-RHF Final Energy:  -231.06902820381001
    Total Energy =                       -231.0690282038101202
  Basis Set: CC-PVTZ
  Basis Set:
  Charge       = 0
  Multiplicity = 1
  Basis Set: CC-PVTZ
  Basis Set:

    Orbital Energies (a.u.)
    -----------------------

    Doubly Occupied:

       1A    -20.551986     2A    -11.320743     3A    -11.237512
       4A    -11.234485     5A    -11.223721     6A     -1.406357
       7A     -1.086892     8A     -0.974934     9A     -0.854688
      10A     -0.783348    11A     -0.680865    12A     -0.650377
      13A     -0.605914    14A     -0.602624    15A     -0.576495
      16A     -0.533538    17A     -0.507702    18A     -0.496331
      19A     -0.484680    20A     -0.411121

  @DF-RHF Final Energy:  -231.06902830436601

   => Energetics <=

    Nuclear Repulsion Energy =            172.9132083434908793
    One-Electron Energy =                -655.5158471364146635
    Two-Electron Energy =                 251.5336104885576560
    DFT Exchange-Correlation Energy =       0.0000000000000000
    Empirical Dispersion Energy =           0.0000000000000000
    PCM Polarization Energy =               0.0000000000000000
    EFP Energy =                            0.0000000000000000
    Total Energy =                       -231.0690283043661566
    Molecular point group: c1
  Basis Set: CC-PVTZ
  Basis Set:

  -Total Gradient:
     Atom            X                  Y                   Z
    ------   -----------------  -----------------  -----------------
       1       -0.000000491809     0.000001426913     0.000031579188
       2        0.000165687657     0.000181096926    -0.000072887810
       3       -0.000047108069     0.000079218951     0.000145235231
       4       -0.000107024256    -0.000146811070     0.000011285138
       5       -0.000004709492     0.000004411702    -0.000003244458
       6       -0.000001880713    -0.000110854836    -0.000122281558
       7       -0.000002241685     0.000003263263     0.000002992870
       8       -0.000000007100    -0.000000455199     0.000005019232
       9        0.000005311398    -0.000002503220     0.000002025390
      10       -0.000007769106    -0.000009141254     0.000001811415
      11        0.000000476454     0.000001113208    -0.000000673559
      12        0.000000914507    -0.000001703523    -0.000001656652
      13       -0.000001157784     0.000000938141     0.000000795573

  **** Optimization is complete! (in 8 steps) ****
    Final optimized geometry and variables:
    Molecular point group: c1

    Geometry (in Angstrom), charge = 0, multiplicity = 1:

    H            0.492143082319    -0.937319057470     1.264067791729
    C            0.468747197961    -1.043356273457     0.173794239724
    C           -0.587259879568    -0.249077287585    -0.547026111432
    O            1.245967554953    -1.755927406875    -0.362895010492
    C           -0.445783564506     1.269087799804    -0.364220079817
    H           -1.556629095164    -0.569023629008    -0.170951454165
    H           -0.531407022747    -0.509600479600    -1.595309002258
    C           -0.714386944326     1.773113040468     1.052044672866
    H           -1.141061620040     1.747177447581    -1.044575359002
    H            0.546397192223     1.574614353503    -0.680970662634
    H           -1.703591725691     1.481629381059     1.388851392957
    H           -0.659980945787     2.854488846507     1.085512346099
    H            0.004782550682     1.391696099534     1.766980472073

  Mulliken Charges: (a.u.)
   Center  Symbol    Alpha    Beta     Spin     Total
       1     H     0.46271  0.46271  0.00000  0.07458
       2     C     2.90400  2.90400  0.00000  0.19201
       3     C     3.08832  3.08832  0.00000 -0.17663
       4     O     4.16543  4.16543  0.00000 -0.33086
       5     C     3.09803  3.09803  0.00000 -0.19605
       6     H     0.45126  0.45126  0.00000  0.09748
       7     H     0.43788  0.43788  0.00000  0.12424
       8     C     3.15136  3.15136  0.00000 -0.30272
       9     H     0.44481  0.44481  0.00000  0.11039
      10     H     0.44608  0.44608  0.00000  0.10785
      11     H     0.45329  0.45329  0.00000  0.09342
      12     H     0.44360  0.44360  0.00000  0.11280
      13     H     0.45325  0.45325  0.00000  0.09350

   Total alpha = 20.00000, Total beta = 20.00000, Total charge =  0.00000

*** Psi4 exiting successfully. Buy a developer a beer!
