                              Psi4 1.0.54 Driver

  ==> Input File <==

--------------------------------------------------------------------------
set {
	reference rhf
	basis cc-pvtz
}

set_num_threads( 4 )
memory 2 gb

molecule MOL {
0 1

H	 -0.290013	 -1.105768	 -0.819863
N	 -0.625934	 -0.663929	 -0.000707
C	 -1.978635	 -0.158664	 0.001017
C	 0.209207	 -0.568735	 1.057621
H	 -2.519057	 -0.493535	 -0.876362
H	 -1.938890	 0.917202	 -0.004137
H	 -2.514266	 -0.485137	 0.884506
C	 1.579364	 -1.170386	 0.835116
O	 -0.100082	 -0.058325	 2.093429
H	 2.079823	 -0.676554	 0.010332
H	 2.163600	 -1.051221	 1.732631
H	 1.496293	 -2.224082	 0.595446

	symmetry c1
}
set optking {
	frozen_dihedral = ("
		4 2 3 5
	")
}

ee,wfn = optimize('scf', return_wfn=True)
oeprop( wfn, 'DIPOLE', 'QUADRUPOLE', 'MULLIKEN_CHARGES')
f=open( 'psi4out.xyz', 'w' )
f.write( "12  " )
f.write( str(ee) + "\n" )
f.write( MOL.save_string_xyz() )
f.close()
--------------------------------------------------------------------------

    Molecular point group: c1
  Charge       = 0
  Multiplicity = 1
  Basis Set: CC-PVTZ
  Basis Set:
  @DF-RHF Final Energy:  -247.10045471245189
    Total Energy =                       -247.1004547124521196
    Molecular point group: c1
  Basis Set: CC-PVTZ
  Basis Set:
  Basis Set: CC-PVTZ
  Basis Set:
  @DF-RHF Final Energy:  -247.10109693982000
    Total Energy =                       -247.1010969398199677
  Basis Set: CC-PVTZ
  Basis Set:
  Basis Set: CC-PVTZ
  Basis Set:
  @DF-RHF Final Energy:  -247.10109062329869
    Total Energy =                       -247.1010906232985462
  Basis Set: CC-PVTZ
  Basis Set:
  Basis Set: CC-PVTZ
  Basis Set:
  @DF-RHF Final Energy:  -247.10125811256148
    Total Energy =                       -247.1012581125615384
  Basis Set: CC-PVTZ
  Basis Set:
  @DF-RHF Final Energy:  -247.10126213623636
    Total Energy =                       -247.1012621362363575
  @DF-RHF Final Energy:  -247.10127451258035
    Total Energy =                       -247.1012745125804031
  @DF-RHF Final Energy:  -247.10128328632513
    Total Energy =                       -247.1012832863250424
  @DF-RHF Final Energy:  -247.10128783829407
    Total Energy =                       -247.1012878382942404
  @DF-RHF Final Energy:  -247.10128930087171
    Total Energy =                       -247.1012893008717128
  @DF-RHF Final Energy:  -247.10129392468022
    Total Energy =                       -247.1012939246802489
  @DF-RHF Final Energy:  -247.10129569422475
    Total Energy =                       -247.1012956942247456
  @DF-RHF Final Energy:  -247.10129551780113
    Total Energy =                       -247.1012955178011907
  @DF-RHF Final Energy:  -247.10129912820096
    Total Energy =                       -247.1012991282009352
  @DF-RHF Final Energy:  -247.10130092503405
    Total Energy =                       -247.1013009250340247
  @DF-RHF Final Energy:  -247.10130265965279
    Total Energy =                       -247.1013026596527311
  @DF-RHF Final Energy:  -247.10130799699323
    Total Energy =                       -247.1013079969930573
  @DF-RHF Final Energy:  -247.10132298295176
    Total Energy =                       -247.1013229829518423
  @DF-RHF Final Energy:  -247.10132813924969
    Total Energy =                       -247.1013281392497447
  @DF-RHF Final Energy:  -247.10133636814089
    Total Energy =                       -247.1013363681408919
  @DF-RHF Final Energy:  -247.10135276703036
    Total Energy =                       -247.1013527670303915
  @DF-RHF Final Energy:  -247.10136871962973
    Total Energy =                       -247.1013687196297610
  @DF-RHF Final Energy:  -247.10137589889391
    Total Energy =                       -247.1013758988938207
  @DF-RHF Final Energy:  -247.10138230329892
    Total Energy =                       -247.1013823032989762
  @DF-RHF Final Energy:  -247.10138684160447
    Total Energy =                       -247.1013868416044943
  @DF-RHF Final Energy:  -247.10139115532607
    Total Energy =                       -247.1013911553260414
  @DF-RHF Final Energy:  -247.10139540847376
    Total Energy =                       -247.1013954084737065
  @DF-RHF Final Energy:  -247.10140740340495
    Total Energy =                       -247.1014074034050054
  @DF-RHF Final Energy:  -247.10141064310812
    Total Energy =                       -247.1014106431080677
  @DF-RHF Final Energy:  -247.10141353322720
    Total Energy =                       -247.1014135332271735
  @DF-RHF Final Energy:  -247.10142173364602
    Total Energy =                       -247.1014217336459069
  @DF-RHF Final Energy:  -247.10143557305895
    Total Energy =                       -247.1014355730590069
  @DF-RHF Final Energy:  -247.10144984142599
    Total Energy =                       -247.1014498414259606
  @DF-RHF Final Energy:  -247.10145618758412
    Total Energy =                       -247.1014561875841196
  Basis Set: CC-PVTZ
  Basis Set:
  @DF-RHF Final Energy:  -247.10145826719727
    Total Energy =                       -247.1014582671971880
  Basis Set: CC-PVTZ
  Basis Set:
  Basis Set: CC-PVTZ
  Basis Set:
  @DF-RHF Final Energy:  -247.10146798285291
    Total Energy =                       -247.1014679828529665
  Basis Set: CC-PVTZ
  Basis Set:
  Basis Set: CC-PVTZ
  Basis Set:
  @DF-RHF Final Energy:  -247.10146993783246
    Total Energy =                       -247.1014699378324622
  Basis Set: CC-PVTZ
  Basis Set:
  Charge       = 0
  Multiplicity = 1
  Basis Set: CC-PVTZ
  Basis Set:

    Orbital Energies (a.u.)
    -----------------------

    Doubly Occupied:

       1A    -20.504324     2A    -15.576821     3A    -11.335258
       4A    -11.254262     5A    -11.228457     6A     -1.387599
       7A     -1.231606     8A     -1.015953     9A     -0.934329
      10A     -0.790541    11A     -0.690745    12A     -0.651859
      13A     -0.636018    14A     -0.585248    15A     -0.582830
      16A     -0.556485    17A     -0.548376    18A     -0.504950
      19A     -0.416685    20A     -0.391187

  @DF-RHF Final Energy:  -247.10147018204552

   => Energetics <=

    Nuclear Repulsion Energy =            181.9006790956384236
    One-Electron Energy =                -696.3572351883249212
    Two-Electron Energy =                 267.3550859106410940
    DFT Exchange-Correlation Energy =       0.0000000000000000
    Empirical Dispersion Energy =           0.0000000000000000
    PCM Polarization Energy =               0.0000000000000000
    EFP Energy =                            0.0000000000000000
    Total Energy =                       -247.1014701820453752
    Molecular point group: c1
  Basis Set: CC-PVTZ
  Basis Set:

  -Total Gradient:
     Atom            X                  Y                   Z
    ------   -----------------  -----------------  -----------------
       1       -0.000025842965     0.000064442388     0.000093748317
       2        0.000029159312     0.000007935551    -0.000113131421
       3        0.000021544927     0.000029410337    -0.000025080539
       4       -0.000030154053    -0.000063221930     0.000000906151
       5       -0.000014836728    -0.000035861964     0.000037510875
       6        0.000003882610    -0.000012261551     0.000002023123
       7        0.000008848345     0.000000900442    -0.000004788881
       8        0.000009443680    -0.000004724787     0.000015255898
       9        0.000002914642     0.000001145914    -0.000002382947
      10       -0.000010692230    -0.000013930177     0.000009194477
      11       -0.000001396827     0.000016630915    -0.000022038472
      12        0.000007129287     0.000009534864     0.000008783418

  **** Optimization is complete! (in 37 steps) ****
    Final optimized geometry and variables:
    Molecular point group: c1

    Geometry (in Angstrom), charge = 0, multiplicity = 1:

    H           -0.239073104537    -0.857797126895    -1.488945353809
    N           -0.503877728114    -0.306598021017    -0.712911843424
    C           -1.810457649633     0.310328023789    -0.708287275791
    C            0.415035894165    -0.030426351384     0.233840489852
    H           -2.430971720086    -0.184054862838    -1.442383128655
    H           -1.757299527072     1.365719682991    -0.945999603983
    H           -2.267466154177     0.207030206566     0.264322606651
    C            1.766804818191    -0.684302827997     0.059054684518
    O            0.185508760977     0.694589092235     1.157378869556
    H            2.479407774134     0.077036569848    -0.232704520036
    H            2.080476051689    -1.084910749750     1.011835345245
    H            1.769827165920    -1.471541089853    -0.683118443260

  Mulliken Charges: (a.u.)
   Center  Symbol    Alpha    Beta     Spin     Total
       1     H     0.41095  0.41095  0.00000  0.17810
       2     N     3.61302  3.61302  0.00000 -0.22605
       3     C     3.07613  3.07613  0.00000 -0.15227
       4     C     2.84292  2.84292  0.00000  0.31415
       5     H     0.45586  0.45586  0.00000  0.08827
       6     H     0.45442  0.45442  0.00000  0.09117
       7     H     0.44287  0.44287  0.00000  0.11425
       8     C     3.14338  3.14338  0.00000 -0.28676
       9     O     4.22044  4.22044  0.00000 -0.44088
      10     H     0.44321  0.44321  0.00000  0.11359
      11     H     0.43833  0.43833  0.00000  0.12334
      12     H     0.45846  0.45846  0.00000  0.08308

   Total alpha = 20.00000, Total beta = 20.00000, Total charge = -0.00000

*** Psi4 exiting successfully. Buy a developer a beer!
