  ==> Input File <==

--------------------------------------------------------------------------
set {
	reference rhf
	basis 6-31G*
}

set_num_threads( 1 )
memory 2 gb

molecule MOL {
0 1

H	 -0.982009	 0.169473	 -2.326636
C	 -0.900101	 -0.651996	 -1.617678
O	 -1.392607	 -0.295399	 -0.366433
H	 -1.491023	 -1.483675	 -1.975816
H	 0.143538	 -0.959329	 -1.564835
C	 -0.719715	 0.768384	 0.229244
C	 0.719720	 0.768376	 -0.229267
H	 -1.185038	 1.714362	 -0.050570
H	 -0.750528	 0.687237	 1.313896
O	 1.392611	 -0.295398	 0.366430
H	 0.750534	 0.687200	 -1.313918
H	 1.185043	 1.714359	 0.050526
C	 2.706965	 -0.449871	 -0.062409
H	 2.756559	 -0.644779	 -1.131878
H	 3.305899	 0.433456	 0.155466
H	 3.125548	 -1.294566	 0.467107

	symmetry c1
}
set optking {
	frozen_dihedral = ("
		3 6 7 11,
		7 10 13 14
	")
}

ee = energy('scf')
oeprop('DIPOLE', 'QUADRUPOLE', 'MULLIKEN_CHARGES')
f=open( 'psi4out.xyz', 'w' )
f.write( "16  " )
f.write( str(ee) + "\n" )
f.write( MOL.save_string_xyz() )
f.close()
--------------------------------------------------------------------------

    Molecular point group: c1

    Geometry (in Angstrom), charge = 0, multiplicity = 1:

       Center              X                  Y                   Z               Mass
    ------------   -----------------  -----------------  -----------------  -----------------
           H         -1.299487548247     0.204993717278    -2.031437926853     1.007825032070
           C         -1.217579548247    -0.616475282722    -1.322479926853    12.000000000000
           O         -1.710085548247    -0.259878282722    -0.071234926853    15.994914619560
           H         -1.808501548247    -1.448154282722    -1.680617926853     1.007825032070
           H         -0.173940548247    -0.923808282722    -1.269636926853     1.007825032070
           C         -1.037193548247     0.803904717278     0.524442073147    12.000000000000
           C          0.402241451753     0.803896717278     0.065931073147    12.000000000000
           H         -1.502516548247     1.749882717278     0.244628073147     1.007825032070
           H         -1.068006548247     0.722757717278     1.609094073147     1.007825032070
           O          1.075132451753    -0.259877282722     0.661628073147    15.994914619560
           H          0.433055451753     0.722720717278    -1.018719926853     1.007825032070
           H          0.867564451753     1.749879717278     0.345724073147     1.007825032070
           C          2.389486451753    -0.414350282722     0.232789073147    12.000000000000
           H          2.439080451753    -0.609258282722    -0.836679926853     1.007825032070
           H          2.988420451753     0.468976717278     0.450664073147     1.007825032070
           H          2.808069451753    -1.259045282722     0.762305073147     1.007825032070

  Charge       = 0
  Multiplicity = 1
  Basis Set: 6-31G*
  Basis Set:

    Orbital Energies (a.u.)
    -----------------------

    Doubly Occupied:

       1A    -20.563425     2A    -20.551293     3A    -11.271402
       4A    -11.270334     5A    -11.268738     6A    -11.260881
       7A     -1.397018     8A     -1.372428     9A     -1.026939
      10A     -0.954465    11A     -0.906615    12A     -0.807916
      13A     -0.709413    14A     -0.686396    15A     -0.658269
      16A     -0.636967    17A     -0.627620    18A     -0.595265
      19A     -0.552573    20A     -0.533676    21A     -0.528500
      22A     -0.495506    23A     -0.445650    24A     -0.424198
      25A     -0.410750

  @DF-RHF Final Energy:  -306.95784357585842

   => Energetics <=

    Nuclear Repulsion Energy =            269.4974357044715134
    One-Electron Energy =                -952.9979262989066910
    Two-Electron Energy =                 376.5426470185762469
    DFT Exchange-Correlation Energy =       0.0000000000000000
    Empirical Dispersion Energy =           0.0000000000000000
    PCM Polarization Energy =               0.0000000000000000
    EFP Energy =                            0.0000000000000000
    Total Energy =                       -306.9578435758589308

  Mulliken Charges: (a.u.)
   Center  Symbol    Alpha    Beta     Spin     Total
       1     H     0.43139  0.43139  0.00000  0.13723
       2     C     3.09520  3.09520  0.00000 -0.19040
       3     O     4.30108  4.30108  0.00000 -0.60215
       4     H     0.40992  0.40992  0.00000  0.18015
       5     H     0.41577  0.41577  0.00000  0.16846
       6     C     2.98383  2.98383  0.00000  0.03235
       7     C     3.02978  3.02978  0.00000 -0.05955
       8     H     0.42927  0.42927  0.00000  0.14146
       9     H     0.40815  0.40815  0.00000  0.18370
      10     O     4.29928  4.29928  0.00000 -0.59856
      11     H     0.42187  0.42187  0.00000  0.15625
      12     H     0.42504  0.42504  0.00000  0.14991
      13     C     3.08068  3.08068  0.00000 -0.16136
      14     H     0.43111  0.43111  0.00000  0.13779
      15     H     0.42844  0.42844  0.00000  0.14312
      16     H     0.40919  0.40919  0.00000  0.18162

   Total alpha = 25.00000, Total beta = 25.00000, Total charge = -0.00000
