  ==> Input File <==

--------------------------------------------------------------------------
set {
	reference rhf
	basis 6-31G*
}

set_num_threads( 4 )
memory 2 gb

molecule MOL {
0 1

H	 -2.635181	 0.388277	 -1.433872
O	 -3.452007	 0.283848	 -0.965577
C	 -3.181085	 -0.079926	 0.364119
C	 -1.765924	 0.277073	 0.805136
H	 -3.327791	 -1.152017	 0.410903
H	 -3.905698	 0.375695	 1.036898
C	 -0.677594	 -0.417312	 -0.014550
H	 -1.637766	 1.358238	 0.744969
H	 -1.659588	 0.017670	 1.857098
C	 0.738335	 -0.034840	 0.421385
H	 -0.814977	 -0.178223	 -1.064632
H	 -0.802730	 -1.495410	 0.071702
C	 1.822265	 -0.738362	 -0.399735
H	 0.853533	 1.043532	 0.342250
H	 0.871597	 -0.279636	 1.474438
C	 3.258060	 -0.455774	 0.057203
H	 1.718003	 -0.459167	 -1.447053
H	 1.651028	 -1.811884	 -0.354513
C	 3.709143	 0.994797	 -0.123830
H	 3.930637	 -1.101717	 -0.501982
H	 3.365259	 -0.739518	 1.102287
H	 3.601178	 1.310569	 -1.158127
H	 4.753787	 1.110486	 0.148516
H	 3.135362	 1.678896	 0.492569

	symmetry c1
}
set optking {
	frozen_dihedral = ("
		1 2 3 5
	")
}

ee = optimize('scf')
oeprop('DIPOLE', 'QUADRUPOLE', 'MULLIKEN_CHARGES')
f=open( 'psi4out.xyz', 'w' )
f.write( "24  " )
f.write( str(ee) + "\n" )
f.write( MOL.save_string_xyz() )
f.close()
--------------------------------------------------------------------------

    Molecular point group: c1
  Charge       = 0
  Multiplicity = 1
  Basis Set: 6-31G*
  Basis Set:
  @DF-RHF Final Energy:  -349.24289699696720
    Total Energy =                       -349.2428969969670334
    Molecular point group: c1
  Basis Set: 6-31G*
  Basis Set:
  Basis Set: 6-31G*
  Basis Set:
  @DF-RHF Final Energy:  -349.24416691706335
    Total Energy =                       -349.2441669170629552
  Basis Set: 6-31G*
  Basis Set:
  Basis Set: 6-31G*
  Basis Set:
  @DF-RHF Final Energy:  -349.24471597902300
    Total Energy =                       -349.2447159790228852
  Basis Set: 6-31G*
  Basis Set:
  Basis Set: 6-31G*
  Basis Set:
  @DF-RHF Final Energy:  -349.24471017288090
    Total Energy =                       -349.2447101728804455
  Basis Set: 6-31G*
  Basis Set:
  Basis Set: 6-31G*
  Basis Set:
  @DF-RHF Final Energy:  -349.24473658538233
    Total Energy =                       -349.2447365853824408
  Basis Set: 6-31G*
  Basis Set:
  Basis Set: 6-31G*
  Basis Set:
  @DF-RHF Final Energy:  -349.24473387995192
    Total Energy =                       -349.2447338799519798
  Basis Set: 6-31G*
  Basis Set:
  Basis Set: 6-31G*
  Basis Set:
  @DF-RHF Final Energy:  -349.24473670026345
    Total Energy =                       -349.2447367002635019
  Basis Set: 6-31G*
  Basis Set:
  Charge       = 0
  Multiplicity = 1
  Basis Set: 6-31G*
  Basis Set:

    Orbital Energies (a.u.)
    -----------------------

    Doubly Occupied:

       1A    -20.548552     2A    -11.265983     3A    -11.226095
       4A    -11.223128     5A    -11.220545     6A    -11.218980
       7A    -11.218230     8A    -11.211249     9A     -1.356118
      10A     -1.096433    11A     -1.053690    12A     -0.990170
      13A     -0.921361    14A     -0.856968    15A     -0.804544
      16A     -0.783193    17A     -0.673306    18A     -0.659245
      19A     -0.630393    20A     -0.621508    21A     -0.606374
      22A     -0.591304    23A     -0.562137    24A     -0.539035
      25A     -0.528599    26A     -0.514928    27A     -0.495834
      28A     -0.483633    29A     -0.479960    30A     -0.465677
      31A     -0.459503    32A     -0.437885    33A     -0.428914

  @DF-RHF Final Energy:  -349.24473706400568

   => Energetics <=

    Nuclear Repulsion Energy =            384.2652574007292969
    One-Electron Energy =               -1234.6730405780620003
    Two-Electron Energy =                 501.1630461133268000
    DFT Exchange-Correlation Energy =       0.0000000000000000
    Empirical Dispersion Energy =           0.0000000000000000
    PCM Polarization Energy =               0.0000000000000000
    EFP Energy =                            0.0000000000000000
    Total Energy =                       -349.2447370640059034
    Molecular point group: c1
  Basis Set: 6-31G*
  Basis Set:

  -Total Gradient:
     Atom            X                  Y                   Z
    ------   -----------------  -----------------  -----------------
       1        0.000118913351     0.001861917263     0.000564651720
       2       -0.000560306031    -0.002248497271    -0.000538813838
       3        0.002020306514     0.000160613656    -0.000546372179
       4        0.000015119709    -0.000028532507     0.000012706410
       5       -0.001580108863     0.000251487017     0.000536079624
       6       -0.000002226251    -0.000012423983    -0.000018955089
       7       -0.000009296127     0.000008509268    -0.000030521963
       8        0.000001944341    -0.000013422791    -0.000008175950
       9       -0.000004450368     0.000000403667     0.000008619526
      10        0.000013624112    -0.000002426034     0.000018274845
      11       -0.000017569611    -0.000002818491    -0.000021627398
      12       -0.000012900907     0.000007067218     0.000008817279
      13       -0.000008948054     0.000008950881     0.000005246623
      14        0.000005589309    -0.000005361896    -0.000003980085
      15        0.000023198683     0.000006985843     0.000007844270
      16       -0.000001428904     0.000000800610     0.000009875012
      17        0.000000979636     0.000004159427    -0.000000658311
      18       -0.000008239315     0.000001733708    -0.000000846228
      19        0.000002237091     0.000001188186    -0.000000266907
      20       -0.000002460401     0.000000226569     0.000000142095
      21        0.000002018461     0.000000355101    -0.000000052433
      22        0.000001055537     0.000000219080    -0.000000540188
      23       -0.000000467497     0.000000336816     0.000000053286
      24        0.000003415586    -0.000001471340    -0.000001500120

  **** Optimization is complete! (in 8 steps) ****
    Final optimized geometry and variables:
    Molecular point group: c1

    Geometry (in Angstrom), charge = 0, multiplicity = 1:

    H           -2.796574462356     0.434154290922    -1.454759428482
    O           -3.559285280960     0.314936831056    -0.909422601821
    C           -3.180744670140    -0.097991300092     0.380116987658
    C           -1.759004388291     0.294539193187     0.765963329009
    H           -3.311723662534    -1.174602249615     0.471314985647
    H           -3.880443658104     0.364017985822     1.066872016043
    C           -0.665471344072    -0.412148337865    -0.041689314764
    H           -1.655338204728     1.373266811968     0.667223008700
    H           -1.622478988944     0.064915345043     1.820305464281
    C            0.747327271213    -0.028914858138     0.404681631909
    H           -0.767370872490    -0.183646203020    -1.102141370394
    H           -0.795347977092    -1.488810121358     0.047805719694
    C            1.839039924041    -0.733493137901    -0.404912757883
    H            0.861717632986     1.049125465413     0.326765823705
    H            0.867440318712    -0.274160187308     1.458729957608
    C            3.269311929112    -0.453298059024     0.070374552152
    H            1.748894515194    -0.452108446349    -1.453076848936
    H            1.665517671423    -1.806815236301    -0.363400342786
    C            3.724138301181     0.997003141883    -0.102823414494
    H            3.947318808559    -1.099450721783    -0.481608534853
    H            3.362860847371    -0.739155043810     1.116082615487
    H            3.629873165302     1.314576986068    -1.137873445403
    H            4.765330674996     1.110523883553     0.182772161343
    H            3.143918670130     1.681067067731     0.507505423762

  Mulliken Charges: (a.u.)
   Center  Symbol    Alpha    Beta     Spin     Total
       1     H     0.27804  0.27804  0.00000  0.44391
       2     O     4.37848  4.37848  0.00000 -0.75696
       3     C     2.97857  2.97857  0.00000  0.04285
       4     C     3.18259  3.18259  0.00000 -0.36519
       5     H     0.43000  0.43000  0.00000  0.14001
       6     H     0.41907  0.41907  0.00000  0.16185
       7     C     3.15761  3.15761  0.00000 -0.31521
       8     H     0.41652  0.41652  0.00000  0.16697
       9     H     0.41819  0.41819  0.00000  0.16362
      10     C     3.15283  3.15283  0.00000 -0.30566
      11     H     0.43052  0.43052  0.00000  0.13895
      12     H     0.41857  0.41857  0.00000  0.16285
      13     C     3.15298  3.15298  0.00000 -0.30596
      14     H     0.42011  0.42011  0.00000  0.15978
      15     H     0.42247  0.42247  0.00000  0.15506
      16     C     3.15272  3.15272  0.00000 -0.30544
      17     H     0.42409  0.42409  0.00000  0.15181
      18     H     0.42147  0.42147  0.00000  0.15707
      19     C     3.24150  3.24150  0.00000 -0.48300
      20     H     0.42016  0.42016  0.00000  0.15967
      21     H     0.42289  0.42289  0.00000  0.15422
      22     H     0.42209  0.42209  0.00000  0.15583
      23     H     0.41846  0.41846  0.00000  0.16307
      24     H     0.42006  0.42006  0.00000  0.15987

   Total alpha = 33.00000, Total beta = 33.00000, Total charge = -0.00000
