                              Psi4 1.0.54 Driver

  ==> Input File <==

--------------------------------------------------------------------------
set {
	reference rhf
	basis cc-pvtz
}

set_num_threads( 4 )
memory 2 gb

molecule MOL {
0 1

H	 -2.362939	 -1.309000	 -0.383250
C	 -1.359344	 -1.272457	 0.020748
C	 -0.684082	 0.000127	 -0.464918
H	 -0.825835	 -2.151141	 -0.318537
H	 -1.416276	 -1.292399	 1.099455
C	 -1.359089	 1.272668	 0.021259
N	 0.742439	 -0.000109	 0.007333
H	 -0.596914	 0.000345	 -1.538146
H	 -2.362696	 1.309620	 -0.382686
H	 -0.825392	 2.151374	 -0.317674
H	 -1.415983	 1.292181	 1.099973
O	 1.005736	 -0.676755	 0.943532
O	 1.514885	 0.676242	 -0.586103

	symmetry c1
}
set optking {
	frozen_dihedral = ("
		12 7 3 8
	")
}

ee,wfn = optimize('scf', return_wfn=True)
oeprop( wfn, 'DIPOLE', 'QUADRUPOLE', 'MULLIKEN_CHARGES')
f=open( 'psi4out.xyz', 'w' )
f.write( "13  " )
f.write( str(ee) + "\n" )
f.write( MOL.save_string_xyz() )
f.close()
--------------------------------------------------------------------------

    Molecular point group: c1
  Charge       = 0
  Multiplicity = 1
  Basis Set: CC-PVTZ
  Basis Set:
  @DF-RHF Final Energy:  -321.86316616799360
    Total Energy =                       -321.8631661679937110
    Molecular point group: c1
  Basis Set: CC-PVTZ
  Basis Set:
  Basis Set: CC-PVTZ
  Basis Set:
  @DF-RHF Final Energy:  -321.86236971899967
    Total Energy =                       -321.8623697189996165
  Basis Set: CC-PVTZ
  Basis Set:
  Basis Set: CC-PVTZ
  Basis Set:
  @DF-RHF Final Energy:  -321.86354948854535
    Total Energy =                       -321.8635494885456865
  Basis Set: CC-PVTZ
  Basis Set:
  Basis Set: CC-PVTZ
  Basis Set:
  @DF-RHF Final Energy:  -321.86373906046748
    Total Energy =                       -321.8637390604676511
  Basis Set: CC-PVTZ
  Basis Set:
  Basis Set: CC-PVTZ
  Basis Set:
  @DF-RHF Final Energy:  -321.86373781944746
    Total Energy =                       -321.8637378194472376
  Basis Set: CC-PVTZ
  Basis Set:
  Basis Set: CC-PVTZ
  Basis Set:
  @DF-RHF Final Energy:  -321.86367317472047
    Total Energy =                       -321.8636731747203612
  Basis Set: CC-PVTZ
  Basis Set:
  Basis Set: CC-PVTZ
  Basis Set:
  @DF-RHF Final Energy:  -321.86387093493676
    Total Energy =                       -321.8638709349366991
  Basis Set: CC-PVTZ
  Basis Set:
  Charge       = 0
  Multiplicity = 1
  Basis Set: CC-PVTZ
  Basis Set:

    Orbital Energies (a.u.)
    -----------------------

    Doubly Occupied:

       1A    -20.590854     2A    -20.586521     3A    -15.833070
       4A    -11.305180     5A    -11.244742     6A    -11.238317
       7A     -1.634124     8A     -1.418281     9A     -1.141792
      10A     -0.971911    11A     -0.957486    12A     -0.815928
      13A     -0.757824    14A     -0.731022    15A     -0.725629
      16A     -0.646686    17A     -0.593561    18A     -0.587734
      19A     -0.571226    20A     -0.528415    21A     -0.521767
      22A     -0.484864    23A     -0.471431    24A     -0.451523

  @DF-RHF Final Energy:  -321.86387129058579

   => Energetics <=

    Nuclear Repulsion Energy =            257.3837385916854714
    One-Electron Energy =                -948.8754432385721884
    Two-Electron Energy =                 369.6278333563009255
    DFT Exchange-Correlation Energy =       0.0000000000000000
    Empirical Dispersion Energy =           0.0000000000000000
    PCM Polarization Energy =               0.0000000000000000
    EFP Energy =                            0.0000000000000000
    Total Energy =                       -321.8638712905858483
    Molecular point group: c1
  Basis Set: CC-PVTZ
  Basis Set:

  -Total Gradient:
     Atom            X                  Y                   Z
    ------   -----------------  -----------------  -----------------
       1        0.000010420570     0.000002173077    -0.000002642244
       2        0.000016884334     0.000001057866     0.000025782943
       3       -0.000049199940     0.000879348082    -0.000273990420
       4       -0.000001190390    -0.000002522238     0.000003610686
       5       -0.000003885959    -0.000004285070     0.000006180536
       6        0.000046237753    -0.000017357246     0.000017989852
       7       -0.000308555827     0.000845074252     0.000905395930
       8        0.000060535477    -0.000982618429    -0.000018558170
       9        0.000006889892    -0.000013488482    -0.000011907818
      10        0.000005503552     0.000009196976     0.000004162306
      11       -0.000003276926     0.000003946578    -0.000000906143
      12        0.000216857569    -0.000719976731    -0.000671482609
      13        0.000002779896    -0.000000548638     0.000016365150

  **** Optimization is complete! (in 7 steps) ****
    Final optimized geometry and variables:
    Molecular point group: c1

    Geometry (in Angstrom), charge = 0, multiplicity = 1:

    H           -2.352431240278    -1.375954994404    -0.333101719790
    C           -1.346576641276    -1.328497667492     0.065906638394
    C           -0.701770247832    -0.048790154736    -0.427603117690
    H           -0.803764530213    -2.200076480936    -0.272109801165
    H           -1.398755553155    -1.355370828886     1.144267993462
    C           -1.381397958347     1.215392848386     0.083080033982
    N            0.746209271557     0.022932206794    -0.019871045186
    H           -0.655392404701    -0.035318625496    -1.505201545539
    H           -2.412392189272     1.216634218687    -0.245291178057
    H           -0.894736784277     2.099699181416    -0.301253714446
    H           -1.368413595552     1.245492043657     1.165566886518
    O            1.111872446055    -0.636072151017     0.893064696158
    O            1.430870616907     0.762967614461    -0.644767504033

  Mulliken Charges: (a.u.)
   Center  Symbol    Alpha    Beta     Spin     Total
       1     H     0.45019  0.45019  0.00000  0.09962
       2     C     3.14325  3.14325  0.00000 -0.28649
       3     C     3.00744  3.00744  0.00000 -0.01488
       4     H     0.43957  0.43957  0.00000  0.12085
       5     H     0.44035  0.44035  0.00000  0.11930
       6     C     3.14336  3.14336  0.00000 -0.28673
       7     N     3.27433  3.27433  0.00000  0.45134
       8     H     0.42714  0.42714  0.00000  0.14572
       9     H     0.44866  0.44866  0.00000  0.10267
      10     H     0.43411  0.43411  0.00000  0.13179
      11     H     0.44441  0.44441  0.00000  0.11118
      12     O     4.17155  4.17155  0.00000 -0.34309
      13     O     4.17563  4.17563  0.00000 -0.35127

   Total alpha = 24.00000, Total beta = 24.00000, Total charge =  0.00000

*** Psi4 exiting successfully. Buy a developer a beer!
