  ==> Input File <==

--------------------------------------------------------------------------
set {
	reference rhf
	basis 6-31G*
}

set_num_threads( 4 )
memory 2 gb

molecule MOL {
0 1

H	 1.490969	 1.211079	 -0.443857
C	 0.850167	 0.441173	 0.000644
C	 -0.623425	 0.760064	 0.000248
O	 1.327885	 -0.556242	 0.435033
C	 -1.518387	 -0.473136	 -0.000101
H	 -0.818289	 1.390622	 -0.866171
H	 -0.818694	 1.390413	 0.866696
H	 -1.333417	 -1.085530	 -0.874338
H	 -2.563510	 -0.183466	 -0.000351
H	 -1.333864	 -1.085676	 0.874123

	symmetry c1
}
set optking {
	frozen_dihedral = ("
		4 2 3 6
	")
}

ee = optimize('scf')
oeprop('DIPOLE', 'QUADRUPOLE', 'MULLIKEN_CHARGES')
f=open( 'psi4out.xyz', 'w' )
f.write( "10  " )
f.write( str(ee) + "\n" )
f.write( MOL.save_string_xyz() )
f.close()
--------------------------------------------------------------------------

    Molecular point group: c1
  Charge       = 0
  Multiplicity = 1
  Basis Set: 6-31G*
  Basis Set:
  @DF-RHF Final Energy:  -191.95063834203279
    Total Energy =                       -191.9506383420326756
    Molecular point group: c1
  Basis Set: 6-31G*
  Basis Set:
  Basis Set: 6-31G*
  Basis Set:
  @DF-RHF Final Energy:  -191.94896465529388
    Total Energy =                       -191.9489646552938211
  Basis Set: 6-31G*
  Basis Set:
  Basis Set: 6-31G*
  Basis Set:
  @DF-RHF Final Energy:  -191.95087589178968
    Total Energy =                       -191.9508758917895648
  Basis Set: 6-31G*
  Basis Set:
  Basis Set: 6-31G*
  Basis Set:
  @DF-RHF Final Energy:  -191.95093525792035
    Total Energy =                       -191.9509352579203778
  Basis Set: 6-31G*
  Basis Set:
  Charge       = 0
  Multiplicity = 1
  Basis Set: 6-31G*
  Basis Set:

    Orbital Energies (a.u.)
    -----------------------

    Doubly Occupied:

       1A    -20.564412     2A    -11.329185     3A    -11.240314
       4A    -11.220716     5A     -1.404820     6A     -1.059903
       7A     -0.909612     8A     -0.775505     9A     -0.683337
      10A     -0.636189    11A     -0.624719    12A     -0.547235
      13A     -0.533340    14A     -0.517508    15A     -0.491238
      16A     -0.413930

  @DF-RHF Final Energy:  -191.95093547432992

   => Energetics <=

    Nuclear Repulsion Energy =            119.0260115616666212
    One-Electron Energy =                -496.0499681267498318
    Two-Electron Energy =                 185.0730210907532296
    DFT Exchange-Correlation Energy =       0.0000000000000000
    Empirical Dispersion Energy =           0.0000000000000000
    PCM Polarization Energy =               0.0000000000000000
    EFP Energy =                            0.0000000000000000
    Total Energy =                       -191.9509354743299809
    Molecular point group: c1
  Basis Set: 6-31G*
  Basis Set:

  -Total Gradient:
     Atom            X                  Y                   Z
    ------   -----------------  -----------------  -----------------
       1       -0.000000874603    -0.000012783165     0.000008026672
       2       -0.000189051891    -0.001026839823    -0.002741755870
       3       -0.000375000168    -0.001775149106    -0.000618698945
       4        0.000208615705     0.000993466058     0.002088675628
       5        0.000005693605     0.000010125696     0.000014587738
       6        0.000367100314     0.001802663928     0.001228742203
       7       -0.000022150177    -0.000004848086     0.000006119827
       8        0.000011338565     0.000026879862     0.000012924461
       9       -0.000000572767     0.000003031710    -0.000003821294
      10       -0.000005098584    -0.000016547072     0.000005199579

  **** Optimization is complete! (in 5 steps) ****
    Final optimized geometry and variables:
    Molecular point group: c1

    Geometry (in Angstrom), charge = 0, multiplicity = 1:

    H            1.508539318462     1.206866747535    -0.489098692159
    C            0.849756768160     0.417546869643    -0.110585524962
    C           -0.625941197927     0.735580028808    -0.134435757433
    O            1.312254239413    -0.586614736742     0.325288538838
    C           -1.521474506083    -0.498336168085    -0.102466593021
    H           -0.833559630088     1.373462352432    -0.989536526047
    H           -0.810629966556     1.361042033498     0.739670520501
    H           -1.363853338909    -1.115693942488    -0.979958500050
    H           -2.566246891933    -0.208911912254    -0.075802484129
    H           -1.309673910873    -1.103244760931     0.769639116679

  Mulliken Charges: (a.u.)
   Center  Symbol    Alpha    Beta     Spin     Total
       1     H     0.42718  0.42718  0.00000  0.14564
       2     C     2.83848  2.83848  0.00000  0.32304
       3     C     3.20900  3.20900  0.00000 -0.41801
       4     O     4.23668  4.23668  0.00000 -0.47337
       5     C     3.23865  3.23865  0.00000 -0.47730
       6     H     0.41158  0.41158  0.00000  0.17683
       7     H     0.40326  0.40326  0.00000  0.19347
       8     H     0.41399  0.41399  0.00000  0.17201
       9     H     0.41696  0.41696  0.00000  0.16607
      10     H     0.40420  0.40420  0.00000  0.19161

   Total alpha = 16.00000, Total beta = 16.00000, Total charge =  0.00000
