  ==> Input File <==

--------------------------------------------------------------------------
set {
	reference rhf
	basis 6-31G*
}

set_num_threads( 1 )
memory 2 gb

molecule MOL {
0 1

O	 -1.717695	 2.163257	 0.135016
C	 -1.785172	 1.066274	 -0.330290
C	 -0.571238	 0.416347	 -0.970809
C	 -3.063115	 0.259095	 -0.278351
C	 0.379448	 -0.143569	 0.099626
H	 -0.057607	 1.176890	 -1.548789
H	 -0.875059	 -0.376164	 -1.648782
C	 1.631333	 -0.777471	 -0.511575
H	 0.649131	 0.665568	 0.768919
H	 -0.142099	 -0.887497	 0.699882
C	 2.915987	 -0.544314	 0.291766
H	 1.766672	 -0.399098	 -1.523130
H	 1.471257	 -1.849544	 -0.605828
C	 3.373361	 0.914346	 0.347591
H	 3.708709	 -1.142521	 -0.150311
H	 2.780642	 -0.921148	 1.303579
H	 3.506512	 1.320010	 -0.651625
H	 4.322697	 0.999599	 0.867103
H	 2.660624	 1.545032	 0.868198
H	 -3.444323	 0.113405	 -1.285684
H	 -3.804230	 0.776839	 0.314502
H	 -2.878689	 -0.726324	 0.139669

	symmetry c1
}
set optking {
	frozen_dihedral = ("
		6 3 2 1,
		6 3 5 8,
		12 8 11 15
	")
}

ee = energy('scf')
oeprop('DIPOLE', 'QUADRUPOLE', 'MULLIKEN_CHARGES')
f=open( 'psi4out.xyz', 'w' )
f.write( "22  " )
f.write( str(ee) + "\n" )
f.write( MOL.save_string_xyz() )
f.close()
--------------------------------------------------------------------------

    Molecular point group: c1

    Geometry (in Angstrom), charge = 0, multiplicity = 1:

       Center              X                  Y                   Z               Mass
    ------------   -----------------  -----------------  -----------------  -----------------
           O         -1.865215284039     1.732187429341     0.279939521621    15.994914619560
           C         -1.932692284039     0.635204429341    -0.185366478379    12.000000000000
           C         -0.718758284039    -0.014722570659    -0.825885478379    12.000000000000
           C         -3.210635284039    -0.171974570659    -0.133427478379    12.000000000000
           C          0.231927715961    -0.574638570659     0.244549521621    12.000000000000
           H         -0.205127284039     0.745820429341    -1.403865478379     1.007825032070
           H         -1.022579284039    -0.807233570659    -1.503858478379     1.007825032070
           C          1.483812715961    -1.208540570659    -0.366651478379    12.000000000000
           H          0.501610715961     0.234498429341     0.913842521621     1.007825032070
           H         -0.289619284039    -1.318566570659     0.844805521621     1.007825032070
           C          2.768466715961    -0.975383570659     0.436689521621    12.000000000000
           H          1.619151715961    -0.830167570659    -1.378206478379     1.007825032070
           H          1.323736715961    -2.280613570659    -0.460904478379     1.007825032070
           C          3.225840715961     0.483276429341     0.492514521621    12.000000000000
           H          3.561188715961    -1.573590570659    -0.005387478379     1.007825032070
           H          2.633121715961    -1.352217570659     1.448502521621     1.007825032070
           H          3.358991715961     0.888940429341    -0.506701478379     1.007825032070
           H          4.175176715961     0.568529429341     1.012026521621     1.007825032070
           H          2.513103715961     1.113962429341     1.013121521621     1.007825032070
           H         -3.591843284039    -0.317664570659    -1.140760478379     1.007825032070
           H         -3.951750284039     0.345769429341     0.459425521621     1.007825032070
           H         -3.026209284039    -1.157393570659     0.284592521621     1.007825032070

  Charge       = 0
  Multiplicity = 1
  Basis Set: 6-31G*
  Basis Set:

    Orbital Energies (a.u.)
    -----------------------

    Doubly Occupied:

       1A    -20.547191     2A    -11.324019     3A    -11.229325
       4A    -11.228050     5A    -11.227956     6A    -11.221164
       7A    -11.219871     8A    -11.210039     9A     -1.392901
      10A     -1.095538    11A     -1.043381    12A     -0.998879
      13A     -0.937866    14A     -0.856825    15A     -0.785917
      16A     -0.733223    17A     -0.659853    18A     -0.646700
      19A     -0.626598    20A     -0.619426    21A     -0.598325
      22A     -0.573299    23A     -0.568081    24A     -0.545625
      25A     -0.532102    26A     -0.512220    27A     -0.505054
      28A     -0.486200    29A     -0.467079    30A     -0.461979
      31A     -0.460257    32A     -0.395609

  @DF-RHF Final Energy:  -348.09418787422567

   => Energetics <=

    Nuclear Repulsion Energy =            375.1293730671309277
    One-Electron Energy =               -1215.0260730673826401
    Two-Electron Energy =                 491.8025121260266133
    DFT Exchange-Correlation Energy =       0.0000000000000000
    Empirical Dispersion Energy =           0.0000000000000000
    PCM Polarization Energy =               0.0000000000000000
    EFP Energy =                            0.0000000000000000
    Total Energy =                       -348.0941878742250992

  Mulliken Charges: (a.u.)
   Center  Symbol    Alpha    Beta     Spin     Total
       1     O     4.26269  4.26269  0.00000 -0.52538
       2     C     2.73722  2.73722  0.00000  0.52557
       3     C     3.20185  3.20185  0.00000 -0.40370
       4     C     3.28948  3.28948  0.00000 -0.57896
       5     C     3.16502  3.16502  0.00000 -0.33005
       6     H     0.40086  0.40086  0.00000  0.19827
       7     H     0.41654  0.41654  0.00000  0.16692
       8     C     3.15481  3.15481  0.00000 -0.30962
       9     H     0.40341  0.40341  0.00000  0.19319
      10     H     0.41881  0.41881  0.00000  0.16238
      11     C     3.15425  3.15425  0.00000 -0.30850
      12     H     0.42090  0.42090  0.00000  0.15821
      13     H     0.41938  0.41938  0.00000  0.16124
      14     C     3.24231  3.24231  0.00000 -0.48462
      15     H     0.42023  0.42023  0.00000  0.15954
      16     H     0.42217  0.42217  0.00000  0.15565
      17     H     0.42162  0.42162  0.00000  0.15675
      18     H     0.41790  0.41790  0.00000  0.16421
      19     H     0.41655  0.41655  0.00000  0.16690
      20     H     0.40699  0.40699  0.00000  0.18601
      21     H     0.39718  0.39718  0.00000  0.20563
      22     H     0.40983  0.40983  0.00000  0.18035

   Total alpha = 32.00000, Total beta = 32.00000, Total charge =  0.00000
