  ==> Input File <==

--------------------------------------------------------------------------
set {
	reference rhf
	basis 6-31G*
}

set_num_threads( 4 )
memory 2 gb

molecule MOL {
0 1

O	 1.214711	 1.306902	 -0.000018
C	 1.122059	 0.121804	 -0.000188
C	 -0.170150	 -0.657997	 -0.000612
O	 2.172624	 -0.688929	 0.000216
C	 -1.412532	 0.227344	 -0.000452
H	 -0.153702	 -1.313099	 -0.867402
H	 -0.153924	 -1.313811	 0.865644
C	 -2.210827	 0.109157	 -1.299730
H	 -1.116763	 1.259902	 0.157182
H	 -2.041660	 -0.038166	 0.843470
C	 -3.458045	 0.991987	 -1.307569
H	 -1.575591	 0.375507	 -2.142113
H	 -2.502414	 -0.927769	 -1.454107
H	 -3.196848	 2.039608	 -1.189579
H	 -4.005442	 0.889783	 -2.239334
H	 -4.130563	 0.726613	 -0.497053
C	 3.452279	 -0.082609	 0.000533
H	 3.583069	 0.529321	 -0.880332
H	 4.163299	 -0.894027	 0.001117
H	 3.582335	 0.529955	 0.881077

	symmetry c1
}
set optking {
	frozen_dihedral = ("
		9 5 3 6
	")
}

ee = optimize('scf')
oeprop('DIPOLE', 'QUADRUPOLE', 'MULLIKEN_CHARGES')
f=open( 'psi4out.xyz', 'w' )
f.write( "20  " )
f.write( str(ee) + "\n" )
f.write( MOL.save_string_xyz() )
f.close()
--------------------------------------------------------------------------

    Molecular point group: c1
  Charge       = 0
  Multiplicity = 1
  Basis Set: 6-31G*
  Basis Set:
  @DF-RHF Final Energy:  -383.93695267218334
    Total Energy =                       -383.9369526721834518
    Molecular point group: c1
  Basis Set: 6-31G*
  Basis Set:
  Basis Set: 6-31G*
  Basis Set:
  @DF-RHF Final Energy:  -383.93725855476208
    Total Energy =                       -383.9372585547622521
  Basis Set: 6-31G*
  Basis Set:
  Basis Set: 6-31G*
  Basis Set:
  @DF-RHF Final Energy:  -383.93707156466701
    Total Energy =                       -383.9370715646668941
  Basis Set: 6-31G*
  Basis Set:
  Basis Set: 6-31G*
  Basis Set:
  @DF-RHF Final Energy:  -383.93736432399464
    Total Energy =                       -383.9373643239945295
  Basis Set: 6-31G*
  Basis Set:
  Basis Set: 6-31G*
  Basis Set:
  @DF-RHF Final Energy:  -383.93736808347256
    Total Energy =                       -383.9373680834725064
  Basis Set: 6-31G*
  Basis Set:
  Basis Set: 6-31G*
  Basis Set:
  @DF-RHF Final Energy:  -383.93737246017321
    Total Energy =                       -383.9373724601734921
  Basis Set: 6-31G*
  Basis Set:
  Charge       = 0
  Multiplicity = 1
  Basis Set: 6-31G*
  Basis Set:

    Orbital Energies (a.u.)
    -----------------------

    Doubly Occupied:

       1A    -20.604123     2A    -20.546468     3A    -11.373218
       4A    -11.281215     5A    -11.235599     6A    -11.218194
       7A    -11.217367     8A    -11.208690     9A     -1.470117
      10A     -1.363477    11A     -1.085695    12A     -1.023442
      13A     -0.967997    14A     -0.885505    15A     -0.804492
      16A     -0.766705    17A     -0.701596    18A     -0.680993
      19A     -0.672702    20A     -0.633379    21A     -0.604683
      22A     -0.590050    23A     -0.578874    24A     -0.545668
      25A     -0.529584    26A     -0.516806    27A     -0.510254
      28A     -0.477189    29A     -0.468281    30A     -0.462393
      31A     -0.457322    32A     -0.439479

  @DF-RHF Final Energy:  -383.93737338100181

   => Energetics <=

    Nuclear Repulsion Energy =            383.8060951969446819
    One-Electron Energy =               -1283.6438233288290576
    Two-Electron Energy =                 515.9003547508824568
    DFT Exchange-Correlation Energy =       0.0000000000000000
    Empirical Dispersion Energy =           0.0000000000000000
    PCM Polarization Energy =               0.0000000000000000
    EFP Energy =                            0.0000000000000000
    Total Energy =                       -383.9373733810019758
    Molecular point group: c1
  Basis Set: 6-31G*
  Basis Set:

  -Total Gradient:
     Atom            X                  Y                   Z
    ------   -----------------  -----------------  -----------------
       1       -0.000002997534    -0.000028470965     0.000052601344
       2       -0.000028623391     0.000089812093    -0.000036720821
       3       -0.001205350850    -0.001696925303     0.000777550113
       4        0.000046691297    -0.000031418319    -0.000037260501
       5        0.000045703489     0.000076899066     0.002111545361
       6        0.000956086778     0.001345466098    -0.000974278082
       7       -0.000012522117     0.000043507901     0.000029167006
       8        0.000020435060    -0.000007076961    -0.000032738973
       9        0.000174408853     0.000248789239    -0.001879699240
      10        0.000018837210    -0.000033563329    -0.000025059505
      11        0.000015349951     0.000017066684     0.000002917077
      12       -0.000003180645    -0.000026180940    -0.000006908925
      13       -0.000015281145     0.000003564179     0.000016355168
      14       -0.000002030897    -0.000002785910     0.000006584187
      15       -0.000003812449     0.000005815867    -0.000003190444
      16       -0.000001931457    -0.000004324780    -0.000006155505
      17        0.000000029384     0.000000362692     0.000005022549
      18        0.000000063996    -0.000000488739    -0.000001204323
      19       -0.000002197556    -0.000000693359     0.000000587527
      20        0.000000322020     0.000000644787     0.000000885988

  **** Optimization is complete! (in 7 steps) ****
    Final optimized geometry and variables:
    Molecular point group: c1

    Geometry (in Angstrom), charge = 0, multiplicity = 1:

    O            1.103917291754     1.136657293221     0.276572467564
    C            1.002363781750    -0.046803935356     0.322541338952
    C           -0.289758491277    -0.833275478860     0.345144799451
    O            2.049246286097    -0.861879681226     0.352266908892
    C           -1.557327925204     0.035724038077     0.338320499470
    H           -0.252177708078    -1.486517172410    -0.522111188140
    H           -0.245527560711    -1.486717469097     1.209830296731
    C           -2.341772077691    -0.059890662664    -0.973402454408
    H           -1.278272612660     1.069249112212     0.500817515258
    H           -2.202276683361    -0.255930520316     1.161810987148
    C           -3.588188343464     0.822844853031    -0.980863781193
    H           -1.691864739085     0.225368605852    -1.797944117881
    H           -2.629407501516    -1.094198911329    -1.151703589552
    H           -3.327653411076     1.867705404415    -0.840092163060
    H           -4.123887655256     0.738342810823    -1.921216923320
    H           -4.271925138797     0.542466322550    -0.184360363296
    C            3.332096922280    -0.262873794521     0.326898220286
    H            3.464923560977     0.312694355954    -0.577851425653
    H            4.038633217076    -1.077568233858     0.358878867175
    H            3.466725379271     0.383408802071     1.182248334612

  Mulliken Charges: (a.u.)
   Center  Symbol    Alpha    Beta     Spin     Total
       1     O     4.28512  4.28512  0.00000 -0.57023
       2     C     2.61293  2.61293  0.00000  0.77414
       3     C     3.20944  3.20944  0.00000 -0.41887
       4     O     4.30549  4.30549  0.00000 -0.61099
       5     C     3.16078  3.16078  0.00000 -0.32155
       6     H     0.39803  0.39803  0.00000  0.20393
       7     H     0.39692  0.39692  0.00000  0.20617
       8     C     3.15528  3.15528  0.00000 -0.31056
       9     H     0.39513  0.39513  0.00000  0.20974
      10     H     0.41924  0.41924  0.00000  0.16152
      11     C     3.24065  3.24065  0.00000 -0.48129
      12     H     0.41976  0.41976  0.00000  0.16048
      13     H     0.42380  0.42380  0.00000  0.15241
      14     H     0.41815  0.41815  0.00000  0.16369
      15     H     0.41879  0.41879  0.00000  0.16242
      16     H     0.42195  0.42195  0.00000  0.15611
      17     C     3.09205  3.09205  0.00000 -0.18409
      18     H     0.40912  0.40912  0.00000  0.18176
      19     H     0.40844  0.40844  0.00000  0.18311
      20     H     0.40894  0.40894  0.00000  0.18212

   Total alpha = 32.00000, Total beta = 32.00000, Total charge = -0.00000
