  ==> Input File <==

--------------------------------------------------------------------------
set {
	reference rhf
	basis 6-31G*
}

set_num_threads( 4 )
memory 2 gb

molecule MOL {
0 1

O	 1.371460	 1.046771	 0.703571
C	 1.122059	 0.121804	 -0.000188
C	 -0.170150	 -0.657997	 -0.000612
O	 1.972165	 -0.356259	 -0.900050
C	 -1.412532	 0.227344	 -0.000452
H	 -0.153702	 -1.313099	 -0.867402
H	 -0.153924	 -1.313811	 0.865644
C	 -2.706999	 -0.587347	 -0.000541
H	 -1.388000	 0.879466	 -0.868000
H	 -1.387972	 0.879138	 0.867341
C	 -3.956778	 0.291888	 0.000910
H	 -2.726114	 -1.239230	 -0.871609
H	 -2.725217	 -1.240844	 0.869333
H	 -3.985213	 0.933254	 -0.875158
H	 -4.860123	 -0.309979	 0.000519
H	 -3.984618	 0.931166	 0.878514
C	 3.228759	 0.288332	 -1.003081
H	 3.102216	 1.326358	 -1.275070
H	 3.767769	 -0.237627	 -1.775600
H	 3.764073	 0.229312	 -0.066352

	symmetry c1
}
set optking {
	frozen_dihedral = ("
		1 2 3 6
	")
}

ee = optimize('scf')
oeprop('DIPOLE', 'QUADRUPOLE', 'MULLIKEN_CHARGES')
f=open( 'psi4out.xyz', 'w' )
f.write( "20  " )
f.write( str(ee) + "\n" )
f.write( MOL.save_string_xyz() )
f.close()
--------------------------------------------------------------------------

    Molecular point group: c1
  Charge       = 0
  Multiplicity = 1
  Basis Set: 6-31G*
  Basis Set:
  @DF-RHF Final Energy:  -383.93997585304049
    Total Energy =                       -383.9399758530406643
    Molecular point group: c1
  Basis Set: 6-31G*
  Basis Set:
  Basis Set: 6-31G*
  Basis Set:
  @DF-RHF Final Energy:  -383.93988559601434
    Total Energy =                       -383.9398855960143919
  Basis Set: 6-31G*
  Basis Set:
  Basis Set: 6-31G*
  Basis Set:
  @DF-RHF Final Energy:  -383.93991360365953
    Total Energy =                       -383.9399136036594200
  Basis Set: 6-31G*
  Basis Set:
  Basis Set: 6-31G*
  Basis Set:
  @DF-RHF Final Energy:  -383.94045373342448
    Total Energy =                       -383.9404537334248744
  Basis Set: 6-31G*
  Basis Set:
  Basis Set: 6-31G*
  Basis Set:
  @DF-RHF Final Energy:  -383.94046477413474
    Total Energy =                       -383.9404647741349663
  Basis Set: 6-31G*
  Basis Set:
  Basis Set: 6-31G*
  Basis Set:
  @DF-RHF Final Energy:  -383.94046675721245
    Total Energy =                       -383.9404667572125618
  Basis Set: 6-31G*
  Basis Set:
  Basis Set: 6-31G*
  Basis Set:
  @DF-RHF Final Energy:  -383.94046778666075
    Total Energy =                       -383.9404677866607472
  Basis Set: 6-31G*
  Basis Set:
  Charge       = 0
  Multiplicity = 1
  Basis Set: 6-31G*
  Basis Set:

    Orbital Energies (a.u.)
    -----------------------

    Doubly Occupied:

       1A    -20.605914     2A    -20.542896     3A    -11.372033
       4A    -11.280956     5A    -11.234534     6A    -11.223677
       7A    -11.221575     8A    -11.211913     9A     -1.469878
      10A     -1.361800    11A     -1.089644    12A     -1.024096
      13A     -0.969663    14A     -0.887128    15A     -0.804970
      16A     -0.770687    17A     -0.695800    18A     -0.681626
      19A     -0.672399    20A     -0.646652    21A     -0.597981
      22A     -0.592252    23A     -0.575817    24A     -0.548704
      25A     -0.534127    26A     -0.523108    27A     -0.502545
      28A     -0.478620    29A     -0.476140    30A     -0.471771
      31A     -0.454798    32A     -0.433906

  @DF-RHF Final Energy:  -383.94046793162715

   => Energetics <=

    Nuclear Repulsion Energy =            381.3056173924585437
    One-Electron Energy =               -1278.5769539534280739
    Two-Electron Energy =                 513.3308686293423762
    DFT Exchange-Correlation Energy =       0.0000000000000000
    Empirical Dispersion Energy =           0.0000000000000000
    PCM Polarization Energy =               0.0000000000000000
    EFP Energy =                            0.0000000000000000
    Total Energy =                       -383.9404679316271540
    Molecular point group: c1
  Basis Set: 6-31G*
  Basis Set:

  -Total Gradient:
     Atom            X                  Y                   Z
    ------   -----------------  -----------------  -----------------
       1        0.000383022906    -0.000631225629     0.000683812826
       2       -0.000459017830     0.000758694033    -0.000841652294
       3       -0.000349588474     0.000584551209    -0.000357762254
       4        0.000024371208    -0.000008659104    -0.000002804246
       5        0.000003622671    -0.000007098880     0.000014159963
       6        0.000412705299    -0.000698486094     0.000522719735
       7       -0.000005574190    -0.000000284532     0.000001838427
       8       -0.000002328319     0.000000369943    -0.000016527377
       9       -0.000002277826    -0.000007362599     0.000004357292
      10        0.000006774650     0.000005207929    -0.000002407241
      11       -0.000000916010    -0.000001737259     0.000007453902
      12        0.000000250933    -0.000003040364    -0.000001060463
      13       -0.000001109062     0.000003844063    -0.000001436196
      14        0.000000210499    -0.000002879908    -0.000001168374
      15       -0.000001081119     0.000000503899     0.000002389304
      16        0.000000434478     0.000002437498    -0.000001670418
      17       -0.000018145151     0.000012163989    -0.000018643837
      18        0.000010365561     0.000000259770     0.000001351601
      19        0.000002629369    -0.000002344875     0.000002341562
      20       -0.000004349597    -0.000004913090     0.000004708088

  **** Optimization is complete! (in 8 steps) ****
    Final optimized geometry and variables:
    Molecular point group: c1

    Geometry (in Angstrom), charge = 0, multiplicity = 1:

    O            1.357764166490     0.975334748756     0.839676308746
    C            1.146831774644     0.056268034514     0.114112296009
    C           -0.138258603430    -0.736953386527     0.092336263587
    O            2.039149575002    -0.403365526296    -0.750993064221
    C           -1.377787857920     0.160238054849     0.124489757783
    H           -0.140621205617    -1.394710070519    -0.767625725379
    H           -0.121710728005    -1.369669679063     0.976877933623
    C           -2.677482819887    -0.642695492178     0.190153344788
    H           -1.387447293874     0.792142308608    -0.760875483796
    H           -1.307831319567     0.825029053425     0.978305142106
    C           -3.919302420502     0.247369105886     0.216235147675
    H           -2.733223270994    -1.315633440410    -0.662846646295
    H           -2.666674745231    -1.273041851248     1.076862696221
    H           -3.977710463314     0.864941191491    -0.675424161636
    H           -4.826313409237    -0.346678093534     0.267232612337
    H           -3.907813458067     0.909986949603     1.076642332388
    C            3.297302677344     0.246657369899    -0.781063163061
    H            3.179868275107     1.288178402452    -1.043133513638
    H            3.876070121080    -0.266094395262    -1.533378290730
    H            3.784470985816     0.175036311160     0.180656923371

  Mulliken Charges: (a.u.)
   Center  Symbol    Alpha    Beta     Spin     Total
       1     O     4.28709  4.28709  0.00000 -0.57417
       2     C     2.60563  2.60563  0.00000  0.78874
       3     C     3.20739  3.20739  0.00000 -0.41477
       4     O     4.30485  4.30485  0.00000 -0.60970
       5     C     3.15845  3.15845  0.00000 -0.31689
       6     H     0.40032  0.40032  0.00000  0.19936
       7     H     0.40094  0.40094  0.00000  0.19811
       8     C     3.15360  3.15360  0.00000 -0.30720
       9     H     0.41779  0.41779  0.00000  0.16442
      10     H     0.40345  0.40345  0.00000  0.19311
      11     C     3.23981  3.23981  0.00000 -0.47961
      12     H     0.42217  0.42217  0.00000  0.15566
      13     H     0.42150  0.42150  0.00000  0.15701
      14     H     0.42060  0.42060  0.00000  0.15879
      15     H     0.41824  0.41824  0.00000  0.16351
      16     H     0.41918  0.41918  0.00000  0.16165
      17     C     3.09357  3.09357  0.00000 -0.18713
      18     H     0.40840  0.40840  0.00000  0.18320
      19     H     0.40834  0.40834  0.00000  0.18331
      20     H     0.40870  0.40870  0.00000  0.18261

   Total alpha = 32.00000, Total beta = 32.00000, Total charge = -0.00000
