                              Psi4 1.0.54 Driver

  ==> Input File <==

--------------------------------------------------------------------------
set {
	reference rhf
	basis cc-pvtz
}

set_num_threads( 4 )
memory 2 gb

molecule MOL {
0 1

O	 -2.081319	 -0.951530	 -0.502732
N	 -1.613558	 0.006676	 0.014756
C	 -0.329345	 -0.171618	 0.743966
O	 -2.068523	 1.100482	 -0.024385
C	 0.835904	 0.041968	 -0.213982
H	 -0.346048	 -1.174374	 1.137184
H	 -0.333613	 0.555559	 1.538590
C	 2.177039	 -0.130175	 0.494460
H	 0.754456	 -0.665923	 -1.030569
H	 0.765464	 1.037260	 -0.637266
C	 3.350788	 0.333130	 -0.361193
H	 2.313424	 -1.174267	 0.760370
H	 2.167052	 0.427122	 1.426515
H	 3.406377	 -0.230023	 -1.286107
H	 3.257689	 1.382736	 -0.616882
H	 4.288676	 0.201522	 0.164362

	symmetry c1
}
set optking {
	frozen_dihedral = ("
		11 8 5 9
	")
}

ee,wfn = optimize('scf', return_wfn=True)
oeprop( wfn, 'DIPOLE', 'QUADRUPOLE', 'MULLIKEN_CHARGES')
f=open( 'psi4out.xyz', 'w' )
f.write( "16  " )
f.write( str(ee) + "\n" )
f.write( MOL.save_string_xyz() )
f.close()
--------------------------------------------------------------------------

    Molecular point group: c1
  Charge       = 0
  Multiplicity = 1
  Basis Set: CC-PVTZ
  Basis Set:
  @DF-RHF Final Energy:  -360.90908994453019
    Total Energy =                       -360.9090899445302512
    Molecular point group: c1
  Basis Set: CC-PVTZ
  Basis Set:
  Basis Set: CC-PVTZ
  Basis Set:
  @DF-RHF Final Energy:  -360.90913423472625
    Total Energy =                       -360.9091342347258546
  Basis Set: CC-PVTZ
  Basis Set:
  Basis Set: CC-PVTZ
  Basis Set:
  @DF-RHF Final Energy:  -360.90684079299956
    Total Energy =                       -360.9068407929997875
  Basis Set: CC-PVTZ
  Basis Set:
  Basis Set: CC-PVTZ
  Basis Set:
  @DF-RHF Final Energy:  -360.90909131811259
    Total Energy =                       -360.9090913181127007
  Basis Set: CC-PVTZ
  Basis Set:
  Basis Set: CC-PVTZ
  Basis Set:
  @DF-RHF Final Energy:  -360.90915152482387
    Total Energy =                       -360.9091515248238693
  Basis Set: CC-PVTZ
  Basis Set:
  Basis Set: CC-PVTZ
  Basis Set:
  @DF-RHF Final Energy:  -360.90915235533834
    Total Energy =                       -360.9091523553385628
  Basis Set: CC-PVTZ
  Basis Set:
  Charge       = 0
  Multiplicity = 1
  Basis Set: CC-PVTZ
  Basis Set:

    Orbital Energies (a.u.)
    -----------------------

    Doubly Occupied:

       1A    -20.589662     2A    -20.589543     3A    -15.836118
       4A    -11.296163     5A    -11.250823     6A    -11.241980
       7A    -11.225975     8A     -1.635130     9A     -1.419437
      10A     -1.136605    11A     -1.059969    12A     -0.948823
      13A     -0.843330    14A     -0.829312    15A     -0.757699
      16A     -0.737884    17A     -0.727806    18A     -0.679454
      19A     -0.616158    20A     -0.607838    21A     -0.567175
      22A     -0.543115    23A     -0.517079    24A     -0.504310
      25A     -0.496603    26A     -0.486032    27A     -0.469798
      28A     -0.452157

  @DF-RHF Final Energy:  -360.90915359439873

   => Energetics <=

    Nuclear Repulsion Energy =            313.0155055464390443
    One-Electron Energy =               -1111.7173568347443506
    Two-Electron Energy =                 437.7926976939064616
    DFT Exchange-Correlation Energy =       0.0000000000000000
    Empirical Dispersion Energy =           0.0000000000000000
    PCM Polarization Energy =               0.0000000000000000
    EFP Energy =                            0.0000000000000000
    Total Energy =                       -360.9091535943988447
    Molecular point group: c1
  Basis Set: CC-PVTZ
  Basis Set:

  -Total Gradient:
     Atom            X                  Y                   Z
    ------   -----------------  -----------------  -----------------
       1       -0.000005091240     0.000015670746    -0.000001700651
       2       -0.000018608051     0.000001178392    -0.000014339640
       3        0.000000226513     0.000004215802    -0.000010721875
       4       -0.000005054716    -0.000016716323    -0.000003553398
       5        0.001017829133     0.002221991378    -0.001315779765
       6        0.000008147423    -0.000003832603     0.000008468437
       7        0.000016131289    -0.000001660663     0.000002909992
       8       -0.000036900304    -0.002207844591    -0.000495494972
       9       -0.000864913927    -0.001367920302     0.001256052237
      10       -0.000003477819     0.000003623231    -0.000004644327
      11       -0.000115448112     0.001354037845     0.000575771425
      12        0.000004706314    -0.000004020735     0.000002923979
      13        0.000000378640    -0.000000541510    -0.000001433967
      14       -0.000001783524    -0.000003868409    -0.000002316126
      15       -0.000003310156     0.000007231687    -0.000000194219
      16        0.000007168532    -0.000001543944     0.000004052870

  **** Optimization is complete! (in 7 steps) ****
    Final optimized geometry and variables:
    Molecular point group: c1

    Geometry (in Angstrom), charge = 0, multiplicity = 1:

    O           -2.051433476437    -1.022643116965    -0.531477068086
    N           -1.612446344097    -0.052062164702    -0.011551002405
    C           -0.331382191866    -0.196470900504     0.730594774022
    O           -2.093974530359     1.030069526635    -0.057604187831
    C            0.838355978225     0.044707375995    -0.216650926656
    H           -0.326470305445    -1.198730646504     1.125732075435
    H           -0.361854055833     0.531675562289     1.523654548186
    C            2.174635847949    -0.142440573702     0.499538422136
    H            0.759358167034    -0.654981227414    -1.040453589642
    H            0.763987816496     1.047407088006    -0.619935236626
    C            3.358156315382     0.321909744618    -0.342194186059
    H            2.298055834087    -1.187330425923     0.766118816931
    H            2.165232717851     0.414628241348     1.432209505782
    H            3.407531302660    -0.217162253643    -1.282002670942
    H            3.281549326961     1.379035751068    -0.569898163944
    H            4.292678353717     0.161078966874     0.181303198358

  Mulliken Charges: (a.u.)
   Center  Symbol    Alpha    Beta     Spin     Total
       1     O     4.17412  4.17412  0.00000 -0.34825
       2     N     3.27573  3.27573  0.00000  0.44854
       3     C     3.04014  3.04014  0.00000 -0.08029
       4     O     4.17418  4.17418  0.00000 -0.34837
       5     C     3.10117  3.10117  0.00000 -0.20235
       6     H     0.43428  0.43428  0.00000  0.13144
       7     H     0.43384  0.43384  0.00000  0.13233
       8     C     3.09357  3.09357  0.00000 -0.18714
       9     H     0.43727  0.43727  0.00000  0.12546
      10     H     0.43824  0.43824  0.00000  0.12351
      11     C     3.14795  3.14795  0.00000 -0.29590
      12     H     0.44842  0.44842  0.00000  0.10315
      13     H     0.45234  0.45234  0.00000  0.09532
      14     H     0.45167  0.45167  0.00000  0.09667
      15     H     0.45172  0.45172  0.00000  0.09656
      16     H     0.44535  0.44535  0.00000  0.10930

   Total alpha = 28.00000, Total beta = 28.00000, Total charge = -0.00000

*** Psi4 exiting successfully. Buy a developer a beer!
