                              Psi4 1.0.54 Driver

  ==> Input File <==

--------------------------------------------------------------------------
set {
	reference rhf
	basis cc-pvtz
}

set_num_threads( 4 )
memory 2 gb

molecule MOL {
0 1

H	 5.012387	 2.067630	 -0.884877
C	 4.241875	 1.826229	 -1.607998
C	 3.011877	 1.236105	 -0.926690
H	 3.991272	 2.737021	 -2.140793
H	 4.666689	 1.130224	 -2.324175
C	 1.907752	 0.873173	 -1.917226
H	 2.628918	 1.946138	 -0.202718
H	 3.301155	 0.346878	 -0.371338
C	 0.666086	 0.274178	 -1.264266
H	 1.620869	 1.753688	 -2.478669
H	 2.296484	 0.154590	 -2.632984
C	 -0.176611	 1.263421	 -0.477028
H	 0.011679	 -0.139766	 -2.027265
H	 0.929438	 -0.559095	 -0.619425
C	 -1.180025	 0.697761	 0.509157
O	 -0.074098	 2.436906	 -0.637337
C	 -2.285431	 -0.137488	 -0.145671
H	 -1.610844	 1.536446	 1.039101
H	 -0.644740	 0.085306	 1.229966
C	 -3.646545	 0.082747	 0.508954
H	 -2.348635	 0.118247	 -1.199806
H	 -2.034895	 -1.192387	 -0.096473
C	 -4.757412	 -0.737227	 -0.138149
H	 -3.900211	 1.137405	 0.459735
H	 -3.580878	 -0.166775	 1.564416
H	 -4.867876	 -0.486707	 -1.187777
H	 -4.549650	 -1.800049	 -0.072540
H	 -5.709585	 -0.556397	 0.346597

	symmetry c1
}
set optking {
	frozen_dihedral = ("
		12 15 17 21
	")
}

ee,wfn = optimize('scf', return_wfn=True)
oeprop( wfn, 'DIPOLE', 'QUADRUPOLE', 'MULLIKEN_CHARGES')
f=open( 'psi4out.xyz', 'w' )
f.write( "28  " )
f.write( str(ee) + "\n" )
f.write( MOL.save_string_xyz() )
f.close()
--------------------------------------------------------------------------

    Molecular point group: c1
  Charge       = 0
  Multiplicity = 1
  Basis Set: CC-PVTZ
  Basis Set:
  @DF-RHF Final Energy:  -426.31631702474988
    Total Energy =                       -426.3163170247497646
    Molecular point group: c1
  Basis Set: CC-PVTZ
  Basis Set:
  Basis Set: CC-PVTZ
  Basis Set:
  @DF-RHF Final Energy:  -426.31646188023183
    Total Energy =                       -426.3164618802315999
  Basis Set: CC-PVTZ
  Basis Set:
  Basis Set: CC-PVTZ
  Basis Set:
  @DF-RHF Final Energy:  -426.31666223782145
    Total Energy =                       -426.3166622378219017
  Basis Set: CC-PVTZ
  Basis Set:
  Basis Set: CC-PVTZ
  Basis Set:
  @DF-RHF Final Energy:  -426.31677103481195
    Total Energy =                       -426.3167710348122910
  Basis Set: CC-PVTZ
  Basis Set:
  @DF-RHF Final Energy:  -426.31682433242463
    Total Energy =                       -426.3168243324247442
  @DF-RHF Final Energy:  -426.31686818251808
    Total Energy =                       -426.3168681825177373
  @DF-RHF Final Energy:  -426.31690672685761
    Total Energy =                       -426.3169067268570416
  @DF-RHF Final Energy:  -426.31693368443246
    Total Energy =                       -426.3169336844327972
  Basis Set: CC-PVTZ
  Basis Set:
  @DF-RHF Final Energy:  -426.31694979831207
    Total Energy =                       -426.3169497983117253
  Basis Set: CC-PVTZ
  Basis Set:
  Basis Set: CC-PVTZ
  Basis Set:
  @DF-RHF Final Energy:  -426.31695537827898
    Total Energy =                       -426.3169553782788626
  Basis Set: CC-PVTZ
  Basis Set:
  Basis Set: CC-PVTZ
  Basis Set:
  @DF-RHF Final Energy:  -426.31695788135937
    Total Energy =                       -426.3169578813594853
  Basis Set: CC-PVTZ
  Basis Set:
  Charge       = 0
  Multiplicity = 1
  Basis Set: CC-PVTZ
  Basis Set:

    Orbital Energies (a.u.)
    -----------------------

    Doubly Occupied:

       1A    -20.536581     2A    -11.316719     3A    -11.229582
       4A    -11.228829     5A    -11.226055     6A    -11.222269
       7A    -11.214449     8A    -11.212638     9A    -11.208881
      10A    -11.202863    11A     -1.396847    12A     -1.093608
      13A     -1.078185    14A     -1.023404    15A     -0.990701
      16A     -0.908835    17A     -0.871679    18A     -0.808861
      19A     -0.798788    20A     -0.726580    21A     -0.673127
      22A     -0.644030    23A     -0.633080    24A     -0.619163
      25A     -0.608896    26A     -0.587791    27A     -0.579428
      28A     -0.573883    29A     -0.537851    30A     -0.533990
      31A     -0.526994    32A     -0.508676    33A     -0.502261
      34A     -0.481118    35A     -0.478716    36A     -0.472886
      37A     -0.469532    38A     -0.464520    39A     -0.456791
      40A     -0.394022

  @DF-RHF Final Energy:  -426.31695796954580

   => Energetics <=

    Nuclear Repulsion Energy =            531.7119080270539371
    One-Electron Energy =               -1631.9715167763638419
    Two-Electron Energy =                 673.9426507797636532
    DFT Exchange-Correlation Energy =       0.0000000000000000
    Empirical Dispersion Energy =           0.0000000000000000
    PCM Polarization Energy =               0.0000000000000000
    EFP Energy =                            0.0000000000000000
    Total Energy =                       -426.3169579695461380
    Molecular point group: c1
  Basis Set: CC-PVTZ
  Basis Set:

  -Total Gradient:
     Atom            X                  Y                   Z
    ------   -----------------  -----------------  -----------------
       1       -0.000007120070    -0.000004624561    -0.000007374729
       2       -0.000003243734     0.000005999374     0.000003679240
       3       -0.000000892118    -0.000004916045     0.000008536240
       4        0.000004377920    -0.000006914086     0.000005966519
       5       -0.000003542830     0.000003285320     0.000005211065
       6       -0.000014448738     0.000010784816     0.000000453840
       7        0.000007910382    -0.000005006427    -0.000009334610
       8       -0.000002748931     0.000006701830    -0.000003866702
       9       -0.000003575027    -0.000021401850    -0.000016836822
      10        0.000001087147    -0.000004450645     0.000001218607
      11       -0.000008861037     0.000002576322     0.000006604118
      12       -0.001204683514     0.002388168675     0.000109015803
      13        0.000019865761     0.000016639509     0.000015532256
      14       -0.000003838950     0.000005126023    -0.000002498315
      15        0.002139596346    -0.003932959794    -0.000448128808
      16        0.000016338118    -0.000000469472    -0.000001721895
      17       -0.003077564751     0.004274713262     0.001538955219
      18       -0.000003068049    -0.000007838509    -0.000007461140
      19       -0.000006818616     0.000004757937    -0.000005282911
      20        0.000002598885     0.000016536780    -0.000002001654
      21        0.002137948409    -0.002749719044    -0.001186452247
      22        0.000006486102     0.000008775930    -0.000002700859
      23        0.000003568891    -0.000008269996    -0.000001005099
      24       -0.000003397261    -0.000006169375    -0.000000520496
      25        0.000002240989     0.000005437912    -0.000004454527
      26        0.000000119462    -0.000002168664     0.000005664276
      27       -0.000001866406     0.000007033888    -0.000001502592
      28        0.000003531622    -0.000001629113     0.000000306221

  **** Optimization is complete! (in 12 steps) ****
    Final optimized geometry and variables:
    Molecular point group: c1

    Geometry (in Angstrom), charge = 0, multiplicity = 1:

    H            5.154081839579     1.686870823968    -0.683035437424
    C            4.372847623474     1.224025471252    -1.274885605037
    C            3.296709208375     0.612229378985    -0.384548437138
    H            3.953923846290     1.986198228291    -1.922897386225
    H            4.836963486672     0.472286718265    -1.905347176942
    C            2.185780496384    -0.063696451354    -1.185531074634
    H            2.869591697942     1.383118093790     0.244887115598
    H            3.753095896914    -0.119009659147     0.278659368446
    C            1.091654273036    -0.685859008923    -0.324429290240
    H            1.738405860133     0.655421100782    -1.861571969448
    H            2.621167920142    -0.845611979237    -1.801111706896
    C            0.129201019689     0.297750559705     0.313463256323
    H            0.486793639022    -1.370262740461    -0.914676141865
    H            1.520755631426    -1.293503298245     0.468339679873
    C           -0.956868258659    -0.284340902439     1.197221921176
    O            0.183519446410     1.467059666031     0.107489427546
    C           -2.137411285423    -0.837966242128     0.369552046412
    H           -1.300201822400     0.524006993328     1.828542948826
    H           -0.551942703887    -1.060516140630     1.835949762416
    C           -3.491109527378    -0.602876862962     1.031392985360
    H           -2.130563337191    -0.399983595724    -0.623943881819
    H           -1.998670409860    -1.903817193602     0.214519819985
    C           -4.650354327157    -1.202221498301     0.243442696138
    H           -3.645940258165     0.464820718137     1.150888430559
    H           -3.476833826905    -1.024484820943     2.032823189715
    H           -4.705480596291    -0.778459198818    -0.753639284267
    H           -4.541321552280    -2.276695192017     0.140214712966
    H           -5.596668326513    -1.011972902803     0.735986404719

  Mulliken Charges: (a.u.)
   Center  Symbol    Alpha    Beta     Spin     Total
       1     H     0.44874  0.44874  0.00000  0.10252
       2     C     3.15173  3.15173  0.00000 -0.30347
       3     C     3.08339  3.08339  0.00000 -0.16678
       4     H     0.45218  0.45218  0.00000  0.09563
       5     H     0.45735  0.45735  0.00000  0.08529
       6     C     3.08791  3.08791  0.00000 -0.17582
       7     H     0.44368  0.44368  0.00000  0.11264
       8     H     0.45890  0.45890  0.00000  0.08219
       9     C     3.12631  3.12631  0.00000 -0.25261
      10     H     0.44627  0.44627  0.00000  0.10747
      11     H     0.44810  0.44810  0.00000  0.10379
      12     C     2.86844  2.86844  0.00000  0.26312
      13     H     0.43301  0.43301  0.00000  0.13398
      14     H     0.44307  0.44307  0.00000  0.11385
      15     C     3.09713  3.09713  0.00000 -0.19427
      16     O     4.18028  4.18028  0.00000 -0.36056
      17     C     3.09698  3.09698  0.00000 -0.19396
      18     H     0.43934  0.43934  0.00000  0.12132
      19     H     0.44487  0.44487  0.00000  0.11026
      20     C     3.08442  3.08442  0.00000 -0.16884
      21     H     0.44820  0.44820  0.00000  0.10360
      22     H     0.45202  0.45202  0.00000  0.09597
      23     C     3.15019  3.15019  0.00000 -0.30038
      24     H     0.44876  0.44876  0.00000  0.10248
      25     H     0.45299  0.45299  0.00000  0.09403
      26     H     0.45331  0.45331  0.00000  0.09338
      27     H     0.45545  0.45545  0.00000  0.08910
      28     H     0.44698  0.44698  0.00000  0.10605

   Total alpha = 40.00000, Total beta = 40.00000, Total charge =  0.00000

*** Psi4 exiting successfully. Buy a developer a beer!
