  ==> Input File <==

--------------------------------------------------------------------------
set {
	reference rhf
	basis 6-31G*
}

set_num_threads( 1 )
memory 2 gb

molecule MOL {
0 1

H	 -3.161837	 0.500524	 -0.000234
C	 -2.367097	 -0.232926	 -0.000000
O	 -1.158440	 0.455814	 -0.000122
H	 -2.468853	 -0.861886	 -0.882833
H	 -2.468942	 -0.861421	 0.883154
C	 -0.029776	 -0.365156	 0.000148
C	 1.212217	 0.508981	 0.000007
H	 -0.036772	 -1.013236	 -0.877259
H	 -0.036869	 -1.012778	 0.877897
C	 2.133921	 0.214596	 -1.182651
H	 0.901165	 1.548992	 -0.016898
H	 1.741433	 0.355416	 0.935446
H	 1.630294	 0.385857	 -2.129992
H	 3.011566	 0.851741	 -1.157532
H	 2.476039	 -0.816534	 -1.171310

	symmetry c1
}
set optking {
	frozen_dihedral = ("
		6 3 2 4,
		8 6 3 2
	")
}

ee = energy('scf')
oeprop('DIPOLE', 'QUADRUPOLE', 'MULLIKEN_CHARGES')
f=open( 'psi4out.xyz', 'w' )
f.write( "15  " )
f.write( str(ee) + "\n" )
f.write( MOL.save_string_xyz() )
f.close()
--------------------------------------------------------------------------

    Molecular point group: c1

    Geometry (in Angstrom), charge = 0, multiplicity = 1:

       Center              X                  Y                   Z               Mass
    ------------   -----------------  -----------------  -----------------  -----------------
           H         -3.087068697368     0.394330401130     0.239517623577     1.007825032070
           C         -2.292328697368    -0.339119598870     0.239751623577    12.000000000000
           O         -1.083671697368     0.349620401130     0.239629623577    15.994914619560
           H         -2.394084697368    -0.968079598870    -0.643081376423     1.007825032070
           H         -2.394173697368    -0.967614598870     1.122905623577     1.007825032070
           C          0.044992302632    -0.471349598870     0.239899623577    12.000000000000
           C          1.286985302632     0.402787401130     0.239758623577    12.000000000000
           H          0.037996302632    -1.119429598870    -0.637507376423     1.007825032070
           H          0.037899302632    -1.118971598870     1.117648623577     1.007825032070
           C          2.208689302632     0.108402401130    -0.942899376423    12.000000000000
           H          0.975933302632     1.442798401130     0.222853623577     1.007825032070
           H          1.816201302632     0.249222401130     1.175197623577     1.007825032070
           H          1.705062302632     0.279663401130    -1.890240376423     1.007825032070
           H          3.086334302632     0.745547401130    -0.917780376423     1.007825032070
           H          2.550807302632    -0.922727598870    -0.931558376423     1.007825032070

  Charge       = 0
  Multiplicity = 1
  Basis Set: 6-31G*
  Basis Set:

    Orbital Energies (a.u.)
    -----------------------

    Doubly Occupied:

       1A    -20.553336     2A    -11.264806     3A    -11.263363
       4A    -11.212138     5A    -11.210371     6A     -1.378311
       7A     -1.056171     8A     -0.953662     9A     -0.879097
      10A     -0.807777    11A     -0.670694    12A     -0.658618
      13A     -0.631551    14A     -0.593877    15A     -0.572867
      16A     -0.544896    17A     -0.492964    18A     -0.488953
      19A     -0.479549    20A     -0.461784    21A     -0.410819

  @DF-RHF Final Energy:  -232.13309017740173

   => Energetics <=

    Nuclear Repulsion Energy =            190.6077490947038484
    One-Electron Energy =                -692.3106252938541729
    Two-Electron Energy =                 269.5697860217493371
    DFT Exchange-Correlation Energy =       0.0000000000000000
    Empirical Dispersion Energy =           0.0000000000000000
    PCM Polarization Energy =               0.0000000000000000
    EFP Energy =                            0.0000000000000000
    Total Energy =                       -232.1330901774009590

  Mulliken Charges: (a.u.)
   Center  Symbol    Alpha    Beta     Spin     Total
       1     H     0.41242  0.41242  0.00000  0.17516
       2     C     3.07976  3.07976  0.00000 -0.15952
       3     O     4.30459  4.30459  0.00000 -0.60918
       4     H     0.43052  0.43052  0.00000  0.13896
       5     H     0.43051  0.43051  0.00000  0.13898
       6     C     2.98764  2.98764  0.00000  0.02471
       7     C     3.16552  3.16552  0.00000 -0.33104
       8     H     0.42999  0.42999  0.00000  0.14002
       9     H     0.43126  0.43126  0.00000  0.13748
      10     C     3.24612  3.24612  0.00000 -0.49225
      11     H     0.40272  0.40272  0.00000  0.19456
      12     H     0.41982  0.41982  0.00000  0.16037
      13     H     0.41770  0.41770  0.00000  0.16459
      14     H     0.41865  0.41865  0.00000  0.16269
      15     H     0.42278  0.42278  0.00000  0.15445

   Total alpha = 21.00000, Total beta = 21.00000, Total charge = -0.00000
