  ==> Input File <==

--------------------------------------------------------------------------
set {
	reference rhf
	basis 6-31G*
}

set_num_threads( 4 )
memory 2 gb

molecule MOL {
0 1

O	 2.862325	 1.357334	 0.000267
C	 2.843464	 0.164689	 -0.000222
C	 1.546494	 -0.624492	 -0.000609
C	 4.124123	 -0.644674	 -0.000428
C	 0.291004	 0.242674	 0.000989
H	 1.557904	 -1.283758	 -0.867573
H	 1.558622	 -1.285963	 0.864672
C	 -0.994322	 -0.586602	 0.000262
H	 0.309117	 0.896430	 -0.865270
H	 0.309661	 0.894078	 0.869017
C	 -2.259874	 0.272531	 0.000494
H	 -1.004862	 -1.240012	 -0.870939
H	 -1.005220	 -1.241071	 0.870675
C	 -3.204372	 -0.040618	 -1.161347
H	 -1.980520	 1.323988	 -0.037154
H	 -2.789182	 0.132483	 0.941353
C	 -4.466097	 0.821755	 -1.154421
H	 -2.676741	 0.100173	 -2.102414
H	 -3.485522	 -1.091052	 -1.123906
H	 -4.219707	 1.877423	 -1.225171
H	 -5.114972	 0.577017	 -1.989745
H	 -5.034834	 0.676906	 -0.240255
H	 4.165367	 -1.288615	 -0.874074
H	 4.976217	 0.020734	 -0.001915
H	 4.166763	 -1.286207	 0.874930

	symmetry c1
}
set optking {
	frozen_dihedral = ("
		15 11 8 12
	")
}

ee = optimize('scf')
oeprop('DIPOLE', 'QUADRUPOLE', 'MULLIKEN_CHARGES')
f=open( 'psi4out.xyz', 'w' )
f.write( "25  " )
f.write( str(ee) + "\n" )
f.write( MOL.save_string_xyz() )
f.close()
--------------------------------------------------------------------------

    Molecular point group: c1
  Charge       = 0
  Multiplicity = 1
  Basis Set: 6-31G*
  Basis Set:
  @DF-RHF Final Energy:  -387.13100980927743
    Total Energy =                       -387.1310098092785665
    Molecular point group: c1
  Basis Set: 6-31G*
  Basis Set:
  Basis Set: 6-31G*
  Basis Set:
  @DF-RHF Final Energy:  -387.13122026821259
    Total Energy =                       -387.1312202682132693
  Basis Set: 6-31G*
  Basis Set:
  Basis Set: 6-31G*
  Basis Set:
  @DF-RHF Final Energy:  -387.13128808932117
    Total Energy =                       -387.1312880893216288
  Basis Set: 6-31G*
  Basis Set:
  Basis Set: 6-31G*
  Basis Set:
  @DF-RHF Final Energy:  -387.13117602539165
    Total Energy =                       -387.1311760253915963
  Basis Set: 6-31G*
  Basis Set:
  Charge       = 0
  Multiplicity = 1
  Basis Set: 6-31G*
  Basis Set:

    Orbital Energies (a.u.)
    -----------------------

    Doubly Occupied:

       1A    -20.550486     2A    -11.326361     3A    -11.231686
       4A    -11.228345     5A    -11.217301     6A    -11.216388
       7A    -11.215533     8A    -11.213162     9A    -11.207855
      10A     -1.395797    11A     -1.091953    12A     -1.055698
      13A     -1.014108    14A     -0.967850    15A     -0.890787
      16A     -0.817080    17A     -0.789687    18A     -0.730355
      19A     -0.654546    20A     -0.651935    21A     -0.633943
      22A     -0.620768    23A     -0.600582    24A     -0.581861
      25A     -0.565234    26A     -0.563075    27A     -0.539332
      28A     -0.529306    29A     -0.508819    30A     -0.489421
      31A     -0.486159    32A     -0.479299    33A     -0.464625
      34A     -0.454424    35A     -0.448755    36A     -0.399451

  @DF-RHF Final Energy:  -387.13128928705817

   => Energetics <=

    Nuclear Repulsion Energy =            439.6349363629801701
    One-Electron Energy =               -1395.8685198442722140
    Two-Electron Energy =                 569.1022941942330817
    DFT Exchange-Correlation Energy =       0.0000000000000000
    Empirical Dispersion Energy =           0.0000000000000000
    PCM Polarization Energy =               0.0000000000000000
    EFP Energy =                            0.0000000000000000
    Total Energy =                       -387.1312892870589621
    Molecular point group: c1
  Basis Set: 6-31G*
  Basis Set:

  -Total Gradient:
     Atom            X                  Y                   Z
    ------   -----------------  -----------------  -----------------
       1        0.000009614917     0.000007982193    -0.000022076115
       2       -0.000032546714     0.000016448791     0.000063804094
       3       -0.000005088298    -0.000004103827    -0.000027242697
       4       -0.000010069097    -0.000005963142    -0.000020408428
       5        0.000082348219     0.000052008575     0.000006541548
       6       -0.000005341303    -0.000007787555    -0.000002469820
       7       -0.000001942136    -0.000003535671     0.000007615727
       8        0.000560048191     0.000862402259    -0.000429357781
       9        0.000024208458     0.000016919677    -0.000014186080
      10        0.000028626953     0.000009276740     0.000001206275
      11       -0.000121276146    -0.000195880901    -0.001098993154
      12       -0.000496000214    -0.000764137720     0.000581172431
      13        0.000014567166    -0.000023859963    -0.000028687900
      14       -0.000062796456    -0.000023021716    -0.000080090409
      15        0.000006370169     0.000038300889     0.001082272175
      16       -0.000004536118     0.000039891166    -0.000003626877
      17        0.000016981326     0.000000040843     0.000019394610
      18       -0.000009996152     0.000001431719    -0.000029166206
      19       -0.000022981327    -0.000005989878    -0.000019193308
      20        0.000002323450     0.000010494739    -0.000002465164
      21        0.000039698275    -0.000021015365     0.000006381761
      22       -0.000005753161    -0.000001487597     0.000008986155
      23        0.000001417738    -0.000000751353     0.000000040810
      24       -0.000007520260     0.000003196786    -0.000000369805
      25       -0.000000357481    -0.000000859692     0.000000918158

  **** Optimization is complete! (in 5 steps) ****
    Final optimized geometry and variables:
    Molecular point group: c1

    Geometry (in Angstrom), charge = 0, multiplicity = 1:

    O            2.794183919048     1.239652603116     0.263867062443
    C            2.773981873150     0.047027352547     0.265952998782
    C            1.476141003206    -0.740741023321     0.262416348442
    C            4.053689329424    -0.763750597401     0.271628702164
    C            0.222194048531     0.127778360517     0.259472877101
    H            1.489241290447    -1.400863020055    -0.603981574314
    H            1.484673703218    -1.401560463495     1.128301979490
    C           -1.065486624315    -0.699002648560     0.253306599855
    H            0.242580641782     0.781876724414    -0.606771629796
    H            0.237295028811     0.779343325758     1.127519520322
    C           -2.347608491815     0.163076776936     0.253470212525
    H           -1.066979222865    -1.355294076491    -0.614809143975
    H           -1.067871046480    -1.360698169886     1.116426414853
    C           -3.301120952438    -0.152335942206    -0.901291898958
    H           -2.080417418182     1.216742261269     0.215205113037
    H           -2.878693201499     0.032229115286     1.193083289523
    C           -4.564692821055     0.706025579602    -0.884677339590
    H           -2.778932513741    -0.009846451874    -1.845387241034
    H           -3.577518010335    -1.204058299676    -0.861984262728
    H           -4.321808366875     1.762456015244    -0.956715742210
    H           -5.218753750770     0.459629539102    -1.715420727758
    H           -5.126515032708     0.559046919250     0.033563798105
    H            4.097013745103    -1.409537406023    -0.600552507731
    H            4.906515900801    -0.099294996080     0.271500248502
    H            4.092781830254    -1.403525232121     1.148446955933

  Mulliken Charges: (a.u.)
   Center  Symbol    Alpha    Beta     Spin     Total
       1     O     4.26118  4.26118  0.00000 -0.52237
       2     C     2.73564  2.73564  0.00000  0.52872
       3     C     3.21148  3.21148  0.00000 -0.42296
       4     C     3.28667  3.28667  0.00000 -0.57334
       5     C     3.15005  3.15005  0.00000 -0.30010
       6     H     0.40988  0.40988  0.00000  0.18023
       7     H     0.41002  0.41002  0.00000  0.17995
       8     C     3.15711  3.15711  0.00000 -0.31422
       9     H     0.41212  0.41212  0.00000  0.17576
      10     H     0.41164  0.41164  0.00000  0.17673
      11     C     3.15446  3.15446  0.00000 -0.30892
      12     H     0.42225  0.42225  0.00000  0.15551
      13     H     0.42243  0.42243  0.00000  0.15514
      14     C     3.15316  3.15316  0.00000 -0.30632
      15     H     0.41827  0.41827  0.00000  0.16346
      16     H     0.42125  0.42125  0.00000  0.15750
      17     C     3.24024  3.24024  0.00000 -0.48049
      18     H     0.42302  0.42302  0.00000  0.15396
      19     H     0.42320  0.42320  0.00000  0.15359
      20     H     0.42078  0.42078  0.00000  0.15844
      21     H     0.41942  0.41942  0.00000  0.16115
      22     H     0.42181  0.42181  0.00000  0.15638
      23     H     0.40874  0.40874  0.00000  0.18252
      24     H     0.39647  0.39647  0.00000  0.20706
      25     H     0.40869  0.40869  0.00000  0.18261

   Total alpha = 36.00000, Total beta = 36.00000, Total charge =  0.00000
