  ==> Input File <==

--------------------------------------------------------------------------
set {
	reference rhf
	basis 6-31G*
}

set_num_threads( 4 )
memory 2 gb

molecule MOL {
0 1

H	 -0.563488	 -1.558284	 -0.435998
N	 -0.626943	 -0.667432	 -0.000092
C	 -1.884881	 -0.289472	 0.602781
C	 0.469286	 0.129090	 0.000148
H	 -2.679888	 -0.272939	 -0.135254
H	 -1.774928	 0.697857	 1.020898
H	 -2.159298	 -0.978590	 1.394515
C	 1.788933	 -0.616240	 -0.000037
O	 0.411098	 1.327768	 -0.000049
H	 1.872803	 -1.245775	 -0.880381
H	 2.595421	 0.101576	 0.003713
H	 1.870096	 -1.252171	 0.875943

	symmetry c1
}
set optking {
	frozen_dihedral = ("
		3 2 4 9
	")
}

ee = optimize('scf')
oeprop('DIPOLE', 'QUADRUPOLE', 'MULLIKEN_CHARGES')
f=open( 'psi4out.xyz', 'w' )
f.write( "12  " )
f.write( str(ee) + "\n" )
f.write( MOL.save_string_xyz() )
f.close()
--------------------------------------------------------------------------

    Molecular point group: c1
  Charge       = 0
  Multiplicity = 1
  Basis Set: 6-31G*
  Basis Set:
  @DF-RHF Final Energy:  -246.99590224215987
    Total Energy =                       -246.9959022421596728
    Molecular point group: c1
  Basis Set: 6-31G*
  Basis Set:
  Basis Set: 6-31G*
  Basis Set:
  @DF-RHF Final Energy:  -246.99861937863969
    Total Energy =                       -246.9986193786397735
  Basis Set: 6-31G*
  Basis Set:
  Basis Set: 6-31G*
  Basis Set:
  @DF-RHF Final Energy:  -247.00138403915204
    Total Energy =                       -247.0013840391521285
  Basis Set: 6-31G*
  Basis Set:
  Basis Set: 6-31G*
  Basis Set:
  @DF-RHF Final Energy:  -247.00209768969452
    Total Energy =                       -247.0020976896944944
  Basis Set: 6-31G*
  Basis Set:
  @DF-RHF Final Energy:  -247.00230356197264
    Total Energy =                       -247.0023035619725533
  @DF-RHF Final Energy:  -247.00248701714247
    Total Energy =                       -247.0024870171425846
  Basis Set: 6-31G*
  Basis Set:
  @DF-RHF Final Energy:  -247.00277447156586
    Total Energy =                       -247.0027744715659423
  Basis Set: 6-31G*
  Basis Set:
  Basis Set: 6-31G*
  Basis Set:
  @DF-RHF Final Energy:  -247.00283073929711
    Total Energy =                       -247.0028307392972238
  Basis Set: 6-31G*
  Basis Set:
  Basis Set: 6-31G*
  Basis Set:
  @DF-RHF Final Energy:  -247.00283843669729
    Total Energy =                       -247.0028384366972887
  Basis Set: 6-31G*
  Basis Set:
  Charge       = 0
  Multiplicity = 1
  Basis Set: 6-31G*
  Basis Set:

    Orbital Energies (a.u.)
    -----------------------

    Doubly Occupied:

       1A    -20.523471     2A    -15.580169     3A    -11.344623
       4A    -11.255276     5A    -11.232009     6A     -1.390017
       7A     -1.228374     8A     -1.016167     9A     -0.930779
      10A     -0.779942    11A     -0.690089    12A     -0.649127
      13A     -0.632675    14A     -0.588210    15A     -0.582672
      16A     -0.554279    17A     -0.546060    18A     -0.506886
      19A     -0.418865    20A     -0.390152

  @DF-RHF Final Energy:  -247.00283863106307

   => Energetics <=

    Nuclear Repulsion Energy =            181.2788182849564009
    One-Electron Energy =                -694.8836298652302048
    Two-Electron Energy =                 266.6019729492109036
    DFT Exchange-Correlation Energy =       0.0000000000000000
    Empirical Dispersion Energy =           0.0000000000000000
    PCM Polarization Energy =               0.0000000000000000
    EFP Energy =                            0.0000000000000000
    Total Energy =                       -247.0028386310629003
    Molecular point group: c1
  Basis Set: 6-31G*
  Basis Set:

  -Total Gradient:
     Atom            X                  Y                   Z
    ------   -----------------  -----------------  -----------------
       1       -0.000017382678     0.000003414334     0.000000623002
       2       -0.001432412616     0.007431376108    -0.009614013891
       3        0.001119248404    -0.004112328246     0.004188407247
       4       -0.000339272769    -0.005768203044     0.012351918819
       5        0.000006454692     0.000000065014    -0.000003177577
       6        0.000011593003    -0.000008564160    -0.000011559533
       7       -0.000004421912     0.000004797526    -0.000001584781
       8        0.000006767906    -0.000018627512     0.000050498883
       9        0.000647441591     0.002463335420    -0.006944642216
      10       -0.000005388374     0.000003983434    -0.000004722328
      11        0.000003539288     0.000001475847    -0.000000301600
      12        0.000003833462    -0.000000724725    -0.000011446025

  **** Optimization is complete! (in 10 steps) ****
    Final optimized geometry and variables:
    Molecular point group: c1

    Geometry (in Angstrom), charge = 0, multiplicity = 1:

    H           -0.548178774013    -1.503135961456    -0.576514427357
    N           -0.677283560082    -0.534803263298    -0.379492799993
    C           -1.929899633086    -0.221805981511     0.284611894931
    C            0.462815878069     0.138751912513    -0.034325613377
    H           -2.742002593699    -0.692647222929    -0.254156728963
    H           -2.077990340417     0.846606870555     0.273270950903
    H           -1.945190047256    -0.563951197919     1.315854287780
    C            1.751957234842    -0.618608728765    -0.274509435888
    O            0.448875577560     1.267630091658     0.363848005407
    H            1.732663147128    -1.142605114718    -1.224220446457
    H            2.578221889472     0.076577997158    -0.259659650546
    H            1.896970855881    -1.353732230203     0.512120967096

  Mulliken Charges: (a.u.)
   Center  Symbol    Alpha    Beta     Spin     Total
       1     H     0.31658  0.31658  0.00000  0.36684
       2     N     3.87684  3.87684  0.00000 -0.75369
       3     C     3.14837  3.14837  0.00000 -0.29675
       4     C     2.63699  2.63699  0.00000  0.72601
       5     H     0.41375  0.41375  0.00000  0.17251
       6     H     0.39169  0.39169  0.00000  0.21663
       7     H     0.41855  0.41855  0.00000  0.16291
       8     C     3.29713  3.29713  0.00000 -0.59426
       9     O     4.29373  4.29373  0.00000 -0.58747
      10     H     0.40825  0.40825  0.00000  0.18349
      11     H     0.39202  0.39202  0.00000  0.21595
      12     H     0.40609  0.40609  0.00000  0.18783

   Total alpha = 20.00000, Total beta = 20.00000, Total charge =  0.00000
