  ==> Input File <==

--------------------------------------------------------------------------
set {
	reference rhf
	basis cc-pvtz
}

set_num_threads( 4 )
memory 2 gb

molecule MOL {
0 1

H	 -3.162190	 0.493205	 -0.000107
C	 -2.363908	 -0.234727	 0.000005
O	 -1.158738	 0.454634	 -0.000087
H	 -2.464314	 -0.863616	 -0.882153
H	 -2.464327	 -0.863359	 0.882345
C	 -0.028611	 -0.359694	 0.000037
C	 0.215939	 -0.873984	 1.404350
H	 0.837328	 0.202481	 -0.350315
H	 -0.169386	 -1.194693	 -0.686696
C	 1.441290	 -1.777187	 1.488556
H	 0.331839	 -0.024304	 2.068078
H	 -0.666846	 -1.410408	 1.734340
H	 2.341043	 -1.252169	 1.185424
H	 1.592405	 -2.129748	 2.501416
H	 1.335561	 -2.647675	 0.849696

	symmetry c1
}
set optking {
	frozen_dihedral = ("
		8 6 3 2
	")
}

ee = optimize('scf')
oeprop('DIPOLE', 'QUADRUPOLE', 'MULLIKEN_CHARGES')
f=open( 'psi4out.xyz', 'w' )
f.write( "15  " )
f.write( str(ee) + "\n" )
f.write( MOL.save_string_xyz() )
f.close()
--------------------------------------------------------------------------

    Molecular point group: c1
  Charge       = 0
  Multiplicity = 1
  Basis Set: CC-PVTZ
  Basis Set:
  @DF-RHF Final Energy:  -232.22306837216851
    Total Energy =                       -232.2230683721684272
    Molecular point group: c1
  Basis Set: CC-PVTZ
  Basis Set:
  Basis Set: CC-PVTZ
  Basis Set:
  @DF-RHF Final Energy:  -232.22460302104747
    Total Energy =                       -232.2246030210474146
  Basis Set: CC-PVTZ
  Basis Set:
  Basis Set: CC-PVTZ
  Basis Set:
  @DF-RHF Final Energy:  -232.22529723162654
    Total Energy =                       -232.2252972316265414
  Basis Set: CC-PVTZ
  Basis Set:
  Basis Set: CC-PVTZ
  Basis Set:
  @DF-RHF Final Energy:  -232.22531991983047
    Total Energy =                       -232.2253199198303832
  Basis Set: CC-PVTZ
  Basis Set:
  Basis Set: CC-PVTZ
  Basis Set:
  @DF-RHF Final Energy:  -232.22532148870042
    Total Energy =                       -232.2253214887002173
  Basis Set: CC-PVTZ
  Basis Set:
  Charge       = 0
  Multiplicity = 1
  Basis Set: CC-PVTZ
  Basis Set:

    Orbital Energies (a.u.)
    -----------------------

    Doubly Occupied:

       1A    -20.545873     2A    -11.264279     3A    -11.261197
       4A    -11.214751     5A    -11.212621     6A     -1.378184
       7A     -1.057414     8A     -0.959748     9A     -0.882586
      10A     -0.805927    11A     -0.670864    12A     -0.658614
      13A     -0.637156    14A     -0.601985    15A     -0.566329
      16A     -0.532670    17A     -0.519567    18A     -0.498079
      19A     -0.484459    20A     -0.458445    21A     -0.408886

  @DF-RHF Final Energy:  -232.22532161700155

   => Energetics <=

    Nuclear Repulsion Energy =            191.6089320065833590
    One-Electron Energy =                -694.4292393935653536
    Two-Electron Energy =                 270.5949857699804966
    DFT Exchange-Correlation Energy =       0.0000000000000000
    Empirical Dispersion Energy =           0.0000000000000000
    PCM Polarization Energy =               0.0000000000000000
    EFP Energy =                            0.0000000000000000
    Total Energy =                       -232.2253216170014980
    Molecular point group: c1
  Basis Set: CC-PVTZ
  Basis Set:

  -Total Gradient:
     Atom            X                  Y                   Z
    ------   -----------------  -----------------  -----------------
       1       -0.000006826930    -0.000001125094     0.000003969309
       2       -0.000018390402     0.000009190815     0.000119467819
       3        0.000004402271    -0.000004983934    -0.000143822649
       4        0.000004010825     0.000001217644    -0.000001944779
       5        0.000006865481     0.000001506799    -0.000001341008
       6       -0.000003744095    -0.000044779104    -0.000107667778
       7       -0.000012753093     0.000005195717     0.000009778075
       8        0.000031036325     0.000038735976     0.000131427382
       9       -0.000000619618    -0.000002597010     0.000003986351
      10        0.000003102329     0.000000669553    -0.000008296647
      11       -0.000001639809     0.000000083168    -0.000002715568
      12       -0.000001204492    -0.000002523597     0.000002481362
      13        0.000000948697     0.000001577388     0.000001595585
      14       -0.000004957248     0.000003700943    -0.000004457223
      15       -0.000000230239    -0.000005869266    -0.000002460230

  **** Optimization is complete! (in 6 steps) ****
    Final optimized geometry and variables:
    Molecular point group: c1

    Geometry (in Angstrom), charge = 0, multiplicity = 1:

    H           -2.754675322266     1.155766928047    -0.740334068876
    C           -2.007378548842     0.386347936454    -0.609561637190
    O           -0.764839314594     1.009165435519    -0.586231756131
    H           -2.082636020479    -0.315495108245    -1.437502158980
    H           -2.221467627678    -0.145570053727     0.312738802565
    C            0.344637771925     0.163912520019    -0.525514923776
    C            0.637207376755    -0.362785608108     0.872881933280
    H            1.187440248868     0.750197553235    -0.870672143841
    H            0.221208749846    -0.666501593292    -1.220177527511
    C            1.910932753624    -1.201128535272     0.910758751448
    H            0.727517237111     0.483509613681     1.545566351548
    H           -0.196618495883    -0.958516812747     1.228576648214
    H            2.771653467615    -0.623018343442     0.591584301809
    H            2.109721660887    -1.561751452923     1.912590051953
    H            1.834112636465    -2.065407730984     0.259211218801

  Mulliken Charges: (a.u.)
   Center  Symbol    Alpha    Beta     Spin     Total
       1     H     0.44540  0.44540  0.00000  0.10919
       2     C     3.03333  3.03333  0.00000 -0.06667
       3     O     4.17757  4.17757  0.00000 -0.35515
       4     H     0.47194  0.47194  0.00000  0.05611
       5     H     0.47129  0.47129  0.00000  0.05741
       6     C     2.97617  2.97617  0.00000  0.04767
       7     C     3.08621  3.08621  0.00000 -0.17243
       8     H     0.44889  0.44889  0.00000  0.10221
       9     H     0.47293  0.47293  0.00000  0.05414
      10     C     3.15309  3.15309  0.00000 -0.30618
      11     H     0.45048  0.45048  0.00000  0.09903
      12     H     0.45678  0.45678  0.00000  0.08644
      13     H     0.45381  0.45381  0.00000  0.09238
      14     H     0.44669  0.44669  0.00000  0.10661
      15     H     0.45539  0.45539  0.00000  0.08922

   Total alpha = 21.00000, Total beta = 21.00000, Total charge = -0.00000
