  ==> Input File <==

--------------------------------------------------------------------------
set {
	reference rhf
	basis 6-31G*
}

set_num_threads( 4 )
memory 2 gb

molecule MOL {
0 1

O	 2.862325	 1.357334	 0.000267
C	 2.843464	 0.164689	 -0.000222
C	 1.546494	 -0.624492	 -0.000609
C	 4.124123	 -0.644674	 -0.000428
C	 0.291004	 0.242674	 0.000989
H	 1.557904	 -1.283758	 -0.867573
H	 1.558622	 -1.285963	 0.864672
C	 -0.542298	 0.065499	 1.271413
H	 -0.309002	 0.001523	 -0.870773
H	 0.577495	 1.283655	 -0.110498
C	 -1.804600	 0.929317	 1.283501
H	 -0.823237	 -0.981200	 1.378844
H	 0.065921	 0.307393	 2.141830
C	 -2.643574	 0.757573	 2.551034
H	 -2.413714	 0.687851	 0.414195
H	 -1.524914	 1.975949	 1.177041
C	 -3.902890	 1.623476	 2.555592
H	 -2.924757	 -0.288056	 2.657896
H	 -2.036214	 1.000119	 3.420599
H	 -4.548268	 1.381076	 1.716022
H	 -4.476601	 1.479381	 3.465973
H	 -3.653410	 2.678447	 2.485303
H	 4.165367	 -1.288615	 -0.874074
H	 4.976217	 0.020734	 -0.001915
H	 4.166763	 -1.286207	 0.874930

	symmetry c1
}
set optking {
	frozen_dihedral = ("
		9 5 3 6
	")
}

ee = optimize('scf')
oeprop('DIPOLE', 'QUADRUPOLE', 'MULLIKEN_CHARGES')
f=open( 'psi4out.xyz', 'w' )
f.write( "25  " )
f.write( str(ee) + "\n" )
f.write( MOL.save_string_xyz() )
f.close()
--------------------------------------------------------------------------

    Molecular point group: c1
  Charge       = 0
  Multiplicity = 1
  Basis Set: 6-31G*
  Basis Set:
  @DF-RHF Final Energy:  -387.13171443848012
    Total Energy =                       -387.1317144384798894
    Molecular point group: c1
  Basis Set: 6-31G*
  Basis Set:
  Basis Set: 6-31G*
  Basis Set:
  @DF-RHF Final Energy:  -387.13200069849148
    Total Energy =                       -387.1320006984909696
  Basis Set: 6-31G*
  Basis Set:
  Basis Set: 6-31G*
  Basis Set:
  @DF-RHF Final Energy:  -387.13167581422232
    Total Energy =                       -387.1316758142220351
  Basis Set: 6-31G*
  Basis Set:
  Basis Set: 6-31G*
  Basis Set:
  @DF-RHF Final Energy:  -387.13209918509904
    Total Energy =                       -387.1320991850983546
  Basis Set: 6-31G*
  Basis Set:
  @DF-RHF Final Energy:  -387.13212094690192
    Total Energy =                       -387.1321209469015230
  @DF-RHF Final Energy:  -387.13212252034907
    Total Energy =                       -387.1321225203491849
  @DF-RHF Final Energy:  -387.13212755200800
    Total Energy =                       -387.1321275520083418
  @DF-RHF Final Energy:  -387.13212998543139
    Total Energy =                       -387.1321299854317886
  @DF-RHF Final Energy:  -387.13213199319296
    Total Energy =                       -387.1321319931923881
  @DF-RHF Final Energy:  -387.13213391730989
    Total Energy =                       -387.1321339173096021
  Basis Set: 6-31G*
  Basis Set:
  @DF-RHF Final Energy:  -387.13213504303133
    Total Energy =                       -387.1321350430318944
  Basis Set: 6-31G*
  Basis Set:
  Basis Set: 6-31G*
  Basis Set:
  @DF-RHF Final Energy:  -387.13213600300026
    Total Energy =                       -387.1321360030000278
  Basis Set: 6-31G*
  Basis Set:
  Basis Set: 6-31G*
  Basis Set:
  @DF-RHF Final Energy:  -387.13213744429152
    Total Energy =                       -387.1321374442914021
  Basis Set: 6-31G*
  Basis Set:
  Charge       = 0
  Multiplicity = 1
  Basis Set: 6-31G*
  Basis Set:

    Orbital Energies (a.u.)
    -----------------------

    Doubly Occupied:

       1A    -20.551360     2A    -11.327557     3A    -11.231882
       4A    -11.228794     5A    -11.215163     6A    -11.214532
       7A    -11.213781     8A    -11.211648     9A    -11.207047
      10A     -1.396817    11A     -1.091059    12A     -1.054807
      13A     -1.014320    14A     -0.967653    15A     -0.890245
      16A     -0.814671    17A     -0.789439    18A     -0.729459
      19A     -0.666874    20A     -0.641561    21A     -0.632389
      22A     -0.621837    23A     -0.593796    24A     -0.583184
      25A     -0.573702    26A     -0.558360    27A     -0.533700
      28A     -0.525466    29A     -0.515703    30A     -0.495220
      31A     -0.482272    32A     -0.471742    33A     -0.462480
      34A     -0.459474    35A     -0.443820    36A     -0.401777

  @DF-RHF Final Energy:  -387.13213735247479

   => Energetics <=

    Nuclear Repulsion Energy =            441.4300386338967996
    One-Electron Energy =               -1399.4971727512688631
    Two-Electron Energy =                 570.9349967648978463
    DFT Exchange-Correlation Energy =       0.0000000000000000
    Empirical Dispersion Energy =           0.0000000000000000
    PCM Polarization Energy =               0.0000000000000000
    EFP Energy =                            0.0000000000000000
    Total Energy =                       -387.1321373524741603
    Molecular point group: c1
  Basis Set: 6-31G*
  Basis Set:

  -Total Gradient:
     Atom            X                  Y                   Z
    ------   -----------------  -----------------  -----------------
       1       -0.000096309100     0.000201124422     0.000033079240
       2        0.000129940519    -0.000211738338    -0.000138233511
       3        0.000927862737     0.001103253195    -0.000950198591
       4       -0.000106872373     0.000005577131     0.000161801975
       5       -0.001120195975    -0.001687110379     0.000676559334
       6       -0.000526902460    -0.000685622998     0.000613152861
       7        0.000122887900     0.000135356235     0.000093163122
       8        0.000112368165     0.000291937437     0.000224252462
       9        0.000530040243     0.000991398234    -0.000835911074
      10        0.000005235897    -0.000009411095     0.000229461848
      11        0.000040118766     0.000025289996     0.000010578540
      12       -0.000021772625    -0.000038282776    -0.000041420581
      13        0.000014164342    -0.000006787178     0.000008279249
      14        0.000067087963    -0.000026423783    -0.000005115209
      15       -0.000030477133    -0.000011960989    -0.000018769000
      16        0.000003095221     0.000003811722    -0.000007965817
      17        0.000008954861     0.000006440844    -0.000020199769
      18       -0.000005208661    -0.000004914279     0.000004939100
      19       -0.000003743066    -0.000006172664    -0.000006821351
      20       -0.000004067718     0.000000633717    -0.000001002734
      21        0.000005885983    -0.000004005212    -0.000001160125
      22       -0.000000050586    -0.000003110648     0.000000273867
      23       -0.000018122266    -0.000025151434     0.000002373663
      24       -0.000087117678     0.000017780839    -0.000018297843
      25        0.000053197042    -0.000061912003    -0.000012819656

  **** Optimization is complete! (in 14 steps) ****
    Final optimized geometry and variables:
    Molecular point group: c1

    Geometry (in Angstrom), charge = 0, multiplicity = 1:

    O            2.583744240883     0.919842497458    -0.759927880090
    C            2.553844092423    -0.269794839544    -0.837515400268
    C            1.257328155531    -1.064780232522    -0.859129376363
    C            3.829112880167    -1.084120371992    -0.913584673351
    C           -0.028261634724    -0.221347051914    -0.864121189890
    H            1.295624431218    -1.738907118754    -1.711459177409
    H            1.285700811860    -1.719603470343     0.010805058281
    C           -0.861310993684    -0.377906706016     0.410049689906
    H           -0.631214742675    -0.482644064238    -1.729271686459
    H            0.242137435756     0.820336370030    -0.983979597571
    C           -2.125663425718     0.481379188033     0.407378838213
    H           -1.136580684946    -1.423736859862     0.540291128546
    H           -0.247291913981    -0.112660237057     1.269082406901
    C           -2.959169197792     0.335142003902     1.681697509733
    H           -2.738213689137     0.218335516167    -0.453798052609
    H           -1.848975931786     1.525881292115     0.276668741663
    C           -4.221208180956     1.197018717502     1.671876046170
    H           -3.236616967528    -0.708745812083     1.813284479968
    H           -2.349004514174     0.599395138847     2.542720008662
    H           -4.869717744141     0.933290039582     0.841074423173
    H           -4.790429485868     1.072327470411     2.587932090172
    H           -3.975169190933     2.250746956396     1.576149555849
    H            3.885047283143    -1.599238940853    -1.868417934165
    H            4.684506404781    -0.431581624046    -0.808618217036
    H            3.850158773901    -1.842433229496    -0.136765702609

  Mulliken Charges: (a.u.)
   Center  Symbol    Alpha    Beta     Spin     Total
       1     O     4.26037  4.26037  0.00000 -0.52075
       2     C     2.73867  2.73867  0.00000  0.52266
       3     C     3.21463  3.21463  0.00000 -0.42926
       4     C     3.28741  3.28741  0.00000 -0.57482
       5     C     3.15725  3.15725  0.00000 -0.31449
       6     H     0.40719  0.40719  0.00000  0.18561
       7     H     0.40674  0.40674  0.00000  0.18652
       8     C     3.15547  3.15547  0.00000 -0.31093
       9     H     0.42062  0.42062  0.00000  0.15876
      10     H     0.39470  0.39470  0.00000  0.21059
      11     C     3.15192  3.15192  0.00000 -0.30384
      12     H     0.42564  0.42564  0.00000  0.14871
      13     H     0.42091  0.42091  0.00000  0.15817
      14     C     3.15150  3.15150  0.00000 -0.30299
      15     H     0.42453  0.42453  0.00000  0.15094
      16     H     0.42039  0.42039  0.00000  0.15922
      17     C     3.23931  3.23931  0.00000 -0.47863
      18     H     0.42410  0.42410  0.00000  0.15179
      19     H     0.42253  0.42253  0.00000  0.15494
      20     H     0.42215  0.42215  0.00000  0.15570
      21     H     0.41968  0.41968  0.00000  0.16064
      22     H     0.42096  0.42096  0.00000  0.15808
      23     H     0.40765  0.40765  0.00000  0.18471
      24     H     0.39632  0.39632  0.00000  0.20736
      25     H     0.40935  0.40935  0.00000  0.18130

   Total alpha = 36.00000, Total beta = 36.00000, Total charge =  0.00000
