  ==> Input File <==

--------------------------------------------------------------------------
set {
	reference rhf
	basis 6-31G*
}

set_num_threads( 4 )
memory 2 gb

molecule MOL {
0 1

H	 -0.583339	 -1.811947	 0.761511
C	 -1.546015	 -1.405587	 0.457754
O	 -1.392607	 -0.295399	 -0.366433
H	 -2.081703	 -2.157778	 -0.104730
H	 -2.116598	 -1.163866	 1.353541
C	 -0.719715	 0.768384	 0.229244
C	 0.719720	 0.768376	 -0.229267
H	 -1.185038	 1.714362	 -0.050570
H	 -0.750528	 0.687237	 1.313896
O	 1.392611	 -0.295398	 0.366430
H	 0.750534	 0.687200	 -1.313918
H	 1.185043	 1.714359	 0.050526
C	 2.706965	 -0.449871	 -0.062409
H	 2.756559	 -0.644779	 -1.131878
H	 3.305899	 0.433456	 0.155466
H	 3.125548	 -1.294566	 0.467107

	symmetry c1
}
set optking {
	frozen_dihedral = ("
		2 3 6 7
	")
}

ee = optimize('scf')
oeprop('DIPOLE', 'QUADRUPOLE', 'MULLIKEN_CHARGES')
f=open( 'psi4out.xyz', 'w' )
f.write( "16  " )
f.write( str(ee) + "\n" )
f.write( MOL.save_string_xyz() )
f.close()
--------------------------------------------------------------------------

    Molecular point group: c1
  Charge       = 0
  Multiplicity = 1
  Basis Set: 6-31G*
  Basis Set:
  @DF-RHF Final Energy:  -306.97589056382287
    Total Energy =                       -306.9758905638227588
    Molecular point group: c1
  Basis Set: 6-31G*
  Basis Set:
  Basis Set: 6-31G*
  Basis Set:
  @DF-RHF Final Energy:  -306.97692303388203
    Total Energy =                       -306.9769230338820876
  Basis Set: 6-31G*
  Basis Set:
  Basis Set: 6-31G*
  Basis Set:
  @DF-RHF Final Energy:  -306.97703990656248
    Total Energy =                       -306.9770399065625384
  Basis Set: 6-31G*
  Basis Set:
  Basis Set: 6-31G*
  Basis Set:
  @DF-RHF Final Energy:  -306.97704895438227
    Total Energy =                       -306.9770489543822123
  Basis Set: 6-31G*
  Basis Set:
  Charge       = 0
  Multiplicity = 1
  Basis Set: 6-31G*
  Basis Set:

    Orbital Energies (a.u.)
    -----------------------

    Doubly Occupied:

       1A    -20.559430     2A    -20.548461     3A    -11.268493
       4A    -11.267913     5A    -11.267366     6A    -11.255166
       7A     -1.388237     8A     -1.365893     9A     -1.028245
      10A     -0.941271    11A     -0.889776    12A     -0.821665
      13A     -0.684348    14A     -0.678784    15A     -0.657542
      16A     -0.632186    17A     -0.623660    18A     -0.599456
      19A     -0.550581    20A     -0.530032    21A     -0.518632
      22A     -0.478586    23A     -0.465022    24A     -0.421030
      25A     -0.402890

  @DF-RHF Final Energy:  -306.97704964369279

   => Energetics <=

    Nuclear Repulsion Energy =            262.9585720836938663
    One-Electron Energy =                -940.1819107949291947
    Two-Electron Energy =                 370.2462890675424774
    DFT Exchange-Correlation Energy =       0.0000000000000000
    Empirical Dispersion Energy =           0.0000000000000000
    PCM Polarization Energy =               0.0000000000000000
    EFP Energy =                            0.0000000000000000
    Total Energy =                       -306.9770496436928511
    Molecular point group: c1
  Basis Set: 6-31G*
  Basis Set:

  -Total Gradient:
     Atom            X                  Y                   Z
    ------   -----------------  -----------------  -----------------
       1       -0.000002723265    -0.000007943271     0.000001627629
       2       -0.000831741555     0.000405846297     0.000399516380
       3        0.001139129093    -0.000328816858    -0.000863539629
       4        0.000002411854     0.000020578739     0.000000940696
       5       -0.000006285186    -0.000005147555    -0.000000906768
       6       -0.000024054497    -0.000606821377     0.001183883614
       7       -0.000283590026     0.000561091605    -0.000740306253
       8        0.000000769928    -0.000005411202    -0.000013217794
       9       -0.000004276229    -0.000014135941     0.000002287790
      10       -0.000024208570    -0.000004582268    -0.000007477198
      11        0.000012680969    -0.000017845879     0.000015740431
      12        0.000011958410     0.000005138642     0.000014062871
      13        0.000006164759    -0.000000714794     0.000012181764
      14       -0.000008623727     0.000004702787     0.000005150847
      15       -0.000001121520    -0.000001280839    -0.000005266154
      16        0.000013509563    -0.000004658085    -0.000004678229

  **** Optimization is complete! (in 5 steps) ****
    Final optimized geometry and variables:
    Molecular point group: c1

    Geometry (in Angstrom), charge = 0, multiplicity = 1:

    H           -0.861446781341    -1.698938422952     0.694651345734
    C           -1.806659400970    -1.255264080915     0.405711400892
    O           -1.624878799036    -0.135731635496    -0.410972593533
    H           -2.379285004840    -1.973976837975    -0.165104802832
    H           -2.366653956086    -0.999313457226     1.303057141322
    C           -0.911688093435     0.924110471051     0.153088307059
    C            0.532882480610     0.944470298318    -0.299868067193
    H           -1.386885831935     1.843759320748    -0.173446246707
    H           -0.952560236218     0.892991785427     1.238487274479
    O            1.216389248995    -0.127319776051     0.277042253076
    H            0.567971874342     0.879456176129    -1.385385700489
    H            0.992992442727     1.888397046949    -0.003647580239
    C            2.537170690961    -0.256672529936    -0.144228448466
    H            2.597290627404    -0.424306936629    -1.217542115763
    H            3.121311287791     0.628766160204     0.100463313224
    H            2.962591925772    -1.108518938229     0.368287805072

  Mulliken Charges: (a.u.)
   Center  Symbol    Alpha    Beta     Spin     Total
       1     H     0.41448  0.41448  0.00000  0.17105
       2     C     3.08276  3.08276  0.00000 -0.16553
       3     O     4.30779  4.30779  0.00000 -0.61558
       4     H     0.41603  0.41603  0.00000  0.16794
       5     H     0.43202  0.43202  0.00000  0.13596
       6     C     3.00012  3.00012  0.00000 -0.00024
       7     C     2.99315  2.99315  0.00000  0.01371
       8     H     0.41837  0.41837  0.00000  0.16326
       9     H     0.42323  0.42323  0.00000  0.15355
      10     O     4.30588  4.30588  0.00000 -0.61177
      11     H     0.42356  0.42356  0.00000  0.15287
      12     H     0.43394  0.43394  0.00000  0.13212
      13     C     3.07965  3.07965  0.00000 -0.15930
      14     H     0.42729  0.42729  0.00000  0.14542
      15     H     0.42995  0.42995  0.00000  0.14010
      16     H     0.41178  0.41178  0.00000  0.17644

   Total alpha = 25.00000, Total beta = 25.00000, Total charge =  0.00000
