  ==> Input File <==

--------------------------------------------------------------------------
set {
	reference rhf
	basis 6-31G*
}

set_num_threads( 4 )
memory 2 gb

molecule MOL {
0 1

H	 5.268524	 0.192471	 1.070992
C	 4.673736	 -0.214914	 0.259335
C	 3.185378	 -0.203514	 0.605509
H	 4.871837	 0.380453	 -0.627026
H	 5.025590	 -1.224632	 0.065769
C	 2.317601	 -0.778379	 -0.516234
H	 2.874655	 0.814325	 0.817774
H	 3.023650	 -0.778480	 1.515976
C	 3.039035	 -1.807399	 -1.386818
H	 1.430774	 -1.235736	 -0.091962
H	 1.979981	 0.033898	 -1.155969
C	 3.305964	 -3.136341	 -0.695511
H	 2.437261	 -2.031050	 -2.266374
H	 3.976358	 -1.406643	 -1.766287
C	 4.339203	 -4.057757	 -1.320110
O	 2.715501	 -3.457863	 0.291596
C	 3.970161	 -4.532194	 -2.733574
H	 4.448404	 -4.907199	 -0.656606
H	 5.293484	 -3.535328	 -1.353259
C	 4.982211	 -5.533925	 -3.292950
H	 2.984259	 -4.991677	 -2.711484
H	 3.902248	 -3.681889	 -3.407251
C	 4.625860	 -6.013607	 -4.699301
H	 5.047522	 -6.388807	 -2.624390
H	 5.969848	 -5.078048	 -3.305065
H	 3.656424	 -6.503243	 -4.712588
H	 4.586945	 -5.183955	 -5.399497
H	 5.359603	 -6.723129	 -5.068187

	symmetry c1
}
set optking {
	frozen_dihedral = ("
		10 6 3 2
	")
}

ee = optimize('scf')
oeprop('DIPOLE', 'QUADRUPOLE', 'MULLIKEN_CHARGES')
f=open( 'psi4out.xyz', 'w' )
f.write( "28  " )
f.write( str(ee) + "\n" )
f.write( MOL.save_string_xyz() )
f.close()
--------------------------------------------------------------------------

    Molecular point group: c1
  Charge       = 0
  Multiplicity = 1
  Basis Set: 6-31G*
  Basis Set:
  @DF-RHF Final Energy:  -426.16031138479491
    Total Energy =                       -426.1603113847951363
    Molecular point group: c1
  Basis Set: 6-31G*
  Basis Set:
  Basis Set: 6-31G*
  Basis Set:
  @DF-RHF Final Energy:  -426.16257952177750
    Total Energy =                       -426.1625795217778432
  Basis Set: 6-31G*
  Basis Set:
  Basis Set: 6-31G*
  Basis Set:
  @DF-RHF Final Energy:  -426.16232424123552
    Total Energy =                       -426.1623242412358650
  Basis Set: 6-31G*
  Basis Set:
  Basis Set: 6-31G*
  Basis Set:
  @DF-RHF Final Energy:  -426.16339908030102
    Total Energy =                       -426.1633990803013603
  Basis Set: 6-31G*
  Basis Set:
  @DF-RHF Final Energy:  -426.16351333103398
    Total Energy =                       -426.1635133310339825
  @DF-RHF Final Energy:  -426.16349830422291
    Total Energy =                       -426.1634983042223439
  Basis Set: 6-31G*
  Basis Set:
  @DF-RHF Final Energy:  -426.16349718382219
    Total Energy =                       -426.1634971838221873
  Basis Set: 6-31G*
  Basis Set:
  Basis Set: 6-31G*
  Basis Set:
  @DF-RHF Final Energy:  -426.16356100208543
    Total Energy =                       -426.1635610020856575
  Basis Set: 6-31G*
  Basis Set:
  Basis Set: 6-31G*
  Basis Set:
  @DF-RHF Final Energy:  -426.16356227877168
    Total Energy =                       -426.1635622787716784
  Basis Set: 6-31G*
  Basis Set:
  Charge       = 0
  Multiplicity = 1
  Basis Set: 6-31G*
  Basis Set:

    Orbital Energies (a.u.)
    -----------------------

    Doubly Occupied:

       1A    -20.548103     2A    -11.321584     3A    -11.232305
       4A    -11.228712     5A    -11.228685     6A    -11.225954
       7A    -11.217013     8A    -11.216206     9A    -11.211690
      10A    -11.209680    11A     -1.393021    12A     -1.094802
      13A     -1.075568    14A     -1.020701    15A     -0.988199
      16A     -0.912679    17A     -0.880923    18A     -0.808803
      19A     -0.791233    20A     -0.718181    21A     -0.668115
      22A     -0.652553    23A     -0.637254    24A     -0.620191
      25A     -0.609039    26A     -0.595791    27A     -0.577295
      28A     -0.553657    29A     -0.544958    30A     -0.536320
      31A     -0.529544    32A     -0.507529    33A     -0.503277
      34A     -0.484659    35A     -0.477847    36A     -0.473808
      37A     -0.467660    38A     -0.460461    39A     -0.456809
      40A     -0.391280

  @DF-RHF Final Energy:  -426.16356325164304

   => Energetics <=

    Nuclear Repulsion Energy =            541.6238660809898420
    One-Electron Energy =               -1651.4306836944940642
    Two-Electron Energy =                 683.6432543618615227
    DFT Exchange-Correlation Energy =       0.0000000000000000
    Empirical Dispersion Energy =           0.0000000000000000
    PCM Polarization Energy =               0.0000000000000000
    EFP Energy =                            0.0000000000000000
    Total Energy =                       -426.1635632516428132
    Molecular point group: c1
  Basis Set: 6-31G*
  Basis Set:

  -Total Gradient:
     Atom            X                  Y                   Z
    ------   -----------------  -----------------  -----------------
       1        0.000003681341    -0.000000651144    -0.000000546441
       2        0.000379913252    -0.003802355429     0.001521260243
       3        0.000070357448     0.004474371674    -0.002105110298
       4       -0.000005277236    -0.000005701343    -0.000001978879
       5       -0.000003032371    -0.000003153741    -0.000004753424
       6       -0.003284171090     0.004083269633     0.000201406645
       7        0.000005010016    -0.000001966584     0.000003075041
       8        0.000005102940    -0.000003298794     0.000016481396
       9        0.000022172374     0.000013272548    -0.000015525497
      10        0.002823117442    -0.004706119797     0.000388511105
      11        0.000002694423    -0.000010286595    -0.000005793943
      12        0.000017575579    -0.000003065869     0.000026618032
      13       -0.000005858956    -0.000006639910    -0.000006033332
      14       -0.000004141920     0.000000749329     0.000001421486
      15       -0.000070088120    -0.000030153873    -0.000050533700
      16        0.000007750020    -0.000023452111    -0.000005238305
      17        0.000031749418     0.000010548325     0.000008654439
      18        0.000003507908     0.000002812707     0.000003438422
      19        0.000005553496     0.000019321720     0.000017258536
      20       -0.000001072775    -0.000005887383     0.000005927708
      21       -0.000002727629    -0.000002523977    -0.000000286108
      22       -0.000003479503    -0.000001993255     0.000000892088
      23        0.000001435721     0.000005860432    -0.000000566814
      24       -0.000000508647    -0.000002899964    -0.000001212143
      25        0.000000719569    -0.000001100127     0.000002349497
      26        0.000000817065    -0.000001062372     0.000000682463
      27       -0.000001644499     0.000000144055    -0.000000975053
      28        0.000000844736     0.000001961838     0.000000576834

  **** Optimization is complete! (in 10 steps) ****
    Final optimized geometry and variables:
    Molecular point group: c1

    Geometry (in Angstrom), charge = 0, multiplicity = 1:

    H            1.324506438105     3.328424673304     2.733853448209
    C            0.896212903685     2.861060931155     1.852788522895
    C           -0.624353761025     2.763620585941     1.994063408477
    H            1.190429296796     3.456979722804     0.992343811509
    H            1.355668902927     1.882985545969     1.755132215441
    C           -1.389532450229     2.203713040169     0.775136833682
    H           -1.024371895244     3.746227058765     2.227425306938
    H           -0.837427815247     2.136338561517     2.852436799671
    C           -0.635259057405     1.186903547639    -0.088013789029
    H           -2.279686391987     1.700124977822     1.132596930651
    H           -1.701654868813     3.018227013291     0.128147619740
    C           -0.330949854095    -0.125071423628     0.616964311537
    H           -1.247950915009     0.940758747511    -0.954043983638
    H            0.284717108890     1.598150639457    -0.492276693205
    C            0.677054684813    -1.056972505070    -0.033328462161
    O           -0.874576724445    -0.426694655619     1.637136967656
    C            0.223835054465    -1.595565889551    -1.398669634720
    H            0.841120044276    -1.876730493917     0.655742614875
    H            1.619401986370    -0.525407099649    -0.150910236428
    C            1.210596827798    -2.610082857614    -1.979689785549
    H           -0.752579255986    -2.063501830427    -1.293033314331
    H            0.101913278339    -0.775591114293    -2.101685977729
    C            0.771265907264    -3.152246575522    -3.339085856554
    H            1.328994735009    -3.435225000555    -1.281711859223
    H            2.189694888184    -2.145484042499    -2.074184119697
    H           -0.190816934619    -3.651537788494    -3.269660359296
    H            0.677346785898    -2.353347616620    -4.069183418643
    H            1.488850623747    -3.869454556758    -3.724585767199

  Mulliken Charges: (a.u.)
   Center  Symbol    Alpha    Beta     Spin     Total
       1     H     0.41672  0.41672  0.00000  0.16656
       2     C     3.24410  3.24410  0.00000 -0.48820
       3     C     3.15577  3.15577  0.00000 -0.31155
       4     H     0.42439  0.42439  0.00000  0.15121
       5     H     0.42367  0.42367  0.00000  0.15266
       6     C     3.15054  3.15054  0.00000 -0.30109
       7     H     0.42149  0.42149  0.00000  0.15702
       8     H     0.40760  0.40760  0.00000  0.18479
       9     C     3.21556  3.21556  0.00000 -0.43112
      10     H     0.40661  0.40661  0.00000  0.18679
      11     H     0.42096  0.42096  0.00000  0.15808
      12     C     2.73190  2.73190  0.00000  0.53619
      13     H     0.40329  0.40329  0.00000  0.19341
      14     H     0.41037  0.41037  0.00000  0.17926
      15     C     3.20139  3.20139  0.00000 -0.40278
      16     O     4.26712  4.26712  0.00000 -0.53424
      17     C     3.16380  3.16380  0.00000 -0.32760
      18     H     0.39986  0.39986  0.00000  0.20028
      19     H     0.41297  0.41297  0.00000  0.17405
      20     C     3.15179  3.15179  0.00000 -0.30358
      21     H     0.41356  0.41356  0.00000  0.17288
      22     H     0.41867  0.41867  0.00000  0.16266
      23     C     3.24034  3.24034  0.00000 -0.48068
      24     H     0.41838  0.41838  0.00000  0.16323
      25     H     0.42142  0.42142  0.00000  0.15715
      26     H     0.41959  0.41959  0.00000  0.16082
      27     H     0.42120  0.42120  0.00000  0.15760
      28     H     0.41690  0.41690  0.00000  0.16620

   Total alpha = 40.00000, Total beta = 40.00000, Total charge = -0.00000
