  ==> Input File <==

--------------------------------------------------------------------------
set {
	reference rhf
	basis cc-pvtz
}

set_num_threads( 4 )
memory 2 gb

molecule MOL {
0 1

H	 -0.000105	 1.988529	 0.748933
O	 -0.000098	 1.879786	 -0.188206
C	 -0.000014	 0.545691	 -0.532416
C	 -1.286000	 -0.125171	 -0.046657
C	 1.286016	 -0.125031	 -0.046584
H	 0.000021	 0.481103	 -1.610604
F	 -2.319415	 0.503129	 -0.550794
F	 -1.361230	 -1.380077	 -0.411709
F	 -1.387619	 -0.072823	 1.264185
F	 2.317750	 0.468717	 -0.594166
F	 1.336617	 -1.393765	 -0.365123
F	 1.414467	 -0.024806	 1.259108

	symmetry c1
}
set optking {
	frozen_dihedral = ("
		7 4 3 6
	")
}

ee = optimize('scf')
oeprop('DIPOLE', 'QUADRUPOLE', 'MULLIKEN_CHARGES')
f=open( 'psi4out.xyz', 'w' )
f.write( "12  " )
f.write( str(ee) + "\n" )
f.write( MOL.save_string_xyz() )
f.close()
--------------------------------------------------------------------------

    Molecular point group: c1
  Charge       = 0
  Multiplicity = 1
  Basis Set: CC-PVTZ
  Basis Set:
  @DF-RHF Final Energy:  -786.58947738084157
    Total Energy =                       -786.5894773808423679
    Molecular point group: c1
  Basis Set: CC-PVTZ
  Basis Set:
  Basis Set: CC-PVTZ
  Basis Set:
  @DF-RHF Final Energy:  -786.58949220834086
    Total Energy =                       -786.5894922083406300
  Basis Set: CC-PVTZ
  Basis Set:
  Basis Set: CC-PVTZ
  Basis Set:
  @DF-RHF Final Energy:  -786.58949821667375
    Total Energy =                       -786.5894982166742011
  Basis Set: CC-PVTZ
  Basis Set:
  Charge       = 0
  Multiplicity = 1
  Basis Set: CC-PVTZ
  Basis Set:

    Orbital Energies (a.u.)
    -----------------------

    Doubly Occupied:

       1A    -26.358517     2A    -26.358107     3A    -26.357505
       4A    -26.357113     5A    -26.353900     6A    -26.353572
       7A    -20.610085     8A    -11.519909     9A    -11.519502
      10A    -11.351630    11A     -1.771967    12A     -1.766440
      13A     -1.667719    14A     -1.663335    15A     -1.662980
      16A     -1.660955    17A     -1.439995    18A     -1.103231
      19A     -1.001831    20A     -0.945355    21A     -0.870790
      22A     -0.869034    23A     -0.859444    24A     -0.852208
      25A     -0.839821    26A     -0.822108    27A     -0.749696
      28A     -0.733990    29A     -0.731481    30A     -0.725474
      31A     -0.696281    32A     -0.691793    33A     -0.690280
      34A     -0.681591    35A     -0.677532    36A     -0.669269
      37A     -0.663406    38A     -0.658105    39A     -0.625385
      40A     -0.554018    41A     -0.510341

  @DF-RHF Final Energy:  -786.58949882477668

   => Energetics <=

    Nuclear Repulsion Energy =            670.9013702844142699
    One-Electron Energy =               -2428.9903456168653975
    Two-Electron Energy =                 971.4994765076745580
    DFT Exchange-Correlation Energy =       0.0000000000000000
    Empirical Dispersion Energy =           0.0000000000000000
    PCM Polarization Energy =               0.0000000000000000
    EFP Energy =                            0.0000000000000000
    Total Energy =                       -786.5894988247765696
    Molecular point group: c1
  Basis Set: CC-PVTZ
  Basis Set:

  -Total Gradient:
     Atom            X                  Y                   Z
    ------   -----------------  -----------------  -----------------
       1        0.000002614096     0.000003070144     0.000005953290
       2        0.000006840345     0.000023245927    -0.000004169780
       3       -0.000273734086     0.000462178008     0.000002339997
       4        0.000088051124    -0.000382199541    -0.000399552928
       5        0.000040326905     0.000003995707     0.000062207376
       6        0.000182958859    -0.000331257860     0.000019368191
       7        0.000043416351     0.000161692964     0.000321715322
       8        0.000009489164     0.000048736921    -0.000023648432
       9       -0.000016710670     0.000045135336     0.000039426007
      10       -0.000048034666    -0.000005011112     0.000003453395
      11       -0.000010688969    -0.000059279239    -0.000045279854
      12       -0.000024528456     0.000029692754     0.000018187424

  **** Optimization is complete! (in 4 steps) ****
    Final optimized geometry and variables:
    Molecular point group: c1

    Geometry (in Angstrom), charge = 0, multiplicity = 1:

    H            0.008850488614     1.986135833271     0.759818863145
    O           -0.000284288840     1.882440009179    -0.177863632827
    C           -0.000719902257     0.550364090084    -0.529329368407
    C           -1.285474665721    -0.126864856504    -0.049803727636
    C            1.284955820348    -0.122595119272    -0.044937023749
    H            0.001777705880     0.489653218851    -1.607783636827
    F           -2.320102785154     0.498967329796    -0.553686433362
    F           -1.352608591742    -1.380185310862    -0.421759399558
    F           -1.392384471236    -0.081074208557     1.261086532126
    F            2.315786960056     0.454151778244    -0.612047409648
    F            1.322836214803    -1.396992090336    -0.342206667963
    F            1.426930647910    -0.001105530441     1.257523670066

  Mulliken Charges: (a.u.)
   Center  Symbol    Alpha    Beta     Spin     Total
       1     H     0.38130  0.38130  0.00000  0.23741
       2     O     4.18979  4.18979  0.00000 -0.37958
       3     C     3.00476  3.00476  0.00000 -0.00953
       4     C     2.68573  2.68573  0.00000  0.62854
       5     C     2.68532  2.68532  0.00000  0.62936
       6     H     0.42426  0.42426  0.00000  0.15148
       7     F     4.60173  4.60173  0.00000 -0.20347
       8     F     4.60257  4.60257  0.00000 -0.20513
       9     F     4.61004  4.61004  0.00000 -0.22008
      10     F     4.60207  4.60207  0.00000 -0.20414
      11     F     4.60226  4.60226  0.00000 -0.20451
      12     F     4.61016  4.61016  0.00000 -0.22032

   Total alpha = 41.00000, Total beta = 41.00000, Total charge =  0.00000
