  ==> Input File <==

--------------------------------------------------------------------------
set {
	reference rhf
	basis cc-pvtz
}

set_num_threads( 4 )
memory 2 gb

molecule MOL {
0 1

H	 0.978715	 -0.890289	 2.023805
C	 0.037535	 -0.980529	 1.501553
O	 -0.000000	 0.000000	 0.518769
H	 -0.030416	 -1.977967	 1.072187
H	 -0.773029	 -0.858831	 2.217116
C	 -1.165153	 0.000000	 -0.236961
H	 -1.229451	 0.882440	 -0.870223
H	 -2.002557	 0.000000	 0.445289
H	 -1.229451	 -0.882440	 -0.870223

	symmetry c1
}
set optking {
	frozen_dihedral = ("
		2 3 6 7
	")
}

ee = optimize('scf')
oeprop('DIPOLE', 'QUADRUPOLE', 'MULLIKEN_CHARGES')
f=open( 'psi4out.xyz', 'w' )
f.write( "9  " )
f.write( str(ee) + "\n" )
f.write( MOL.save_string_xyz() )
f.close()
--------------------------------------------------------------------------

    Molecular point group: c1
  Charge       = 0
  Multiplicity = 1
  Basis Set: CC-PVTZ
  Basis Set:
  @DF-RHF Final Energy:  -154.12594976416375
    Total Energy =                       -154.1259497641636926
    Molecular point group: c1
  Basis Set: CC-PVTZ
  Basis Set:
  Basis Set: CC-PVTZ
  Basis Set:
  @DF-RHF Final Energy:  -154.12674423540267
    Total Energy =                       -154.1267442354026400
  Basis Set: CC-PVTZ
  Basis Set:
  Basis Set: CC-PVTZ
  Basis Set:
  @DF-RHF Final Energy:  -154.12695289181789
    Total Energy =                       -154.1269528918178935
  Basis Set: CC-PVTZ
  Basis Set:
  Charge       = 0
  Multiplicity = 1
  Basis Set: CC-PVTZ
  Basis Set:

    Orbital Energies (a.u.)
    -----------------------

    Doubly Occupied:

       1A    -20.550210     2A    -11.263264     3A    -11.263177
       4A     -1.382657     5A     -0.975885     6A     -0.872738
       7A     -0.664033     8A     -0.655738     9A     -0.646975
      10A     -0.552343    11A     -0.529367    12A     -0.476880
      13A     -0.420213

  @DF-RHF Final Energy:  -154.12695398190957

   => Energetics <=

    Nuclear Repulsion Energy =             84.8509047506748857
    One-Electron Energy =                -377.4487598371740660
    Two-Electron Energy =                 138.4709011045896716
    DFT Exchange-Correlation Energy =       0.0000000000000000
    Empirical Dispersion Energy =           0.0000000000000000
    PCM Polarization Energy =               0.0000000000000000
    EFP Energy =                            0.0000000000000000
    Total Energy =                       -154.1269539819095087
    Molecular point group: c1
  Basis Set: CC-PVTZ
  Basis Set:

  -Total Gradient:
     Atom            X                  Y                   Z
    ------   -----------------  -----------------  -----------------
       1       -0.000003449534     0.000077925885    -0.000071340438
       2       -0.000645892499     0.000656609738     0.000661959581
       3        0.000556275496    -0.000800686448    -0.000815521434
       4        0.000019052461    -0.000014697061     0.000008750752
       5        0.000004948242     0.000013611770     0.000017095026
       6        0.000587328372    -0.000618767870    -0.000920174533
       7       -0.000594166808     0.000695862777     0.001058824486
       8        0.000028193913    -0.000005223159     0.000032818441
       9        0.000047710359    -0.000004635632     0.000027588119

  **** Optimization is complete! (in 4 steps) ****
    Final optimized geometry and variables:
    Molecular point group: c1

    Geometry (in Angstrom), charge = 0, multiplicity = 1:

    H            1.383232335808    -0.546296488359     1.413260318481
    C            0.434967456647    -0.639171049016     0.904078485761
    O            0.384836496432     0.336980966298    -0.082406742675
    H            0.361808344419    -1.639753795312     0.482148001423
    H           -0.366392057268    -0.512878465485     1.628960374830
    C           -0.786042147732     0.330726563437    -0.829662018992
    H           -0.797859062764     1.224674807661    -1.436333092778
    H           -1.665910822163     0.340576317688    -0.189464599996
    H           -0.842327003440    -0.541859204177    -1.476780315680

  Mulliken Charges: (a.u.)
   Center  Symbol    Alpha    Beta     Spin     Total
       1     H     0.44843  0.44843  0.00000  0.10315
       2     C     3.02196  3.02196  0.00000 -0.04392
       3     O     4.16750  4.16750  0.00000 -0.33499
       4     H     0.47364  0.47364  0.00000  0.05272
       5     H     0.47242  0.47242  0.00000  0.05516
       6     C     3.02154  3.02154  0.00000 -0.04307
       7     H     0.44875  0.44875  0.00000  0.10249
       8     H     0.47498  0.47498  0.00000  0.05005
       9     H     0.47079  0.47079  0.00000  0.05841

   Total alpha = 13.00000, Total beta = 13.00000, Total charge =  0.00000
