  ==> Input File <==

--------------------------------------------------------------------------
set {
	reference rhf
	basis 6-31G*
}

set_num_threads( 4 )
memory 2 gb

molecule MOL {
0 1

H	 -0.109086	 3.903528	 1.304428
O	 -0.185914	 3.766627	 0.370756
C	 -0.167573	 2.392200	 0.092188
C	 1.231991	 1.820088	 0.232100
H	 -0.852396	 1.843794	 0.732990
H	 -0.505424	 2.273951	 -0.927775
O	 1.171513	 0.459272	 -0.058250
H	 1.602206	 1.979652	 1.246723
H	 1.907662	 2.337476	 -0.446400
C	 2.397842	 -0.198080	 -0.002151
H	 2.508049	 -0.905315	 -0.822092
H	 3.173794	 0.550865	 -0.078850
H	 2.517602	 -0.735921	 0.936026

	symmetry c1
}
set optking {
	frozen_dihedral = ("
		4 7 10 13
	")
}

ee = optimize('scf')
oeprop('DIPOLE', 'QUADRUPOLE', 'MULLIKEN_CHARGES')
f=open( 'psi4out.xyz', 'w' )
f.write( "13  " )
f.write( str(ee) + "\n" )
f.write( MOL.save_string_xyz() )
f.close()
--------------------------------------------------------------------------

    Molecular point group: c1
  Charge       = 0
  Multiplicity = 1
  Basis Set: 6-31G*
  Basis Set:
  @DF-RHF Final Energy:  -267.94649132332677
    Total Energy =                       -267.9464913233267680
    Molecular point group: c1
  Basis Set: 6-31G*
  Basis Set:
  Basis Set: 6-31G*
  Basis Set:
  @DF-RHF Final Energy:  -267.94749683439369
    Total Energy =                       -267.9474968343935188
  Basis Set: 6-31G*
  Basis Set:
  Basis Set: 6-31G*
  Basis Set:
  @DF-RHF Final Energy:  -267.94780914301418
    Total Energy =                       -267.9478091430141262
  Basis Set: 6-31G*
  Basis Set:
  Charge       = 0
  Multiplicity = 1
  Basis Set: 6-31G*
  Basis Set:

    Orbital Energies (a.u.)
    -----------------------

    Doubly Occupied:

       1A    -20.559866     2A    -20.559629     3A    -11.271200
       4A    -11.269811     5A    -11.268506     6A     -1.385315
       7A     -1.364502     8A     -1.018403     9A     -0.913540
      10A     -0.841439    11A     -0.709006    12A     -0.671883
      13A     -0.657903    14A     -0.637471    15A     -0.595380
      16A     -0.569790    17A     -0.547103    18A     -0.489669
      19A     -0.481539    20A     -0.437953    21A     -0.417668

  @DF-RHF Final Energy:  -267.94781154143669

   => Energetics <=

    Nuclear Repulsion Energy =            189.9769229396908372
    One-Electron Energy =                -742.5143167247555311
    Two-Electron Energy =                 284.5895822436279445
    DFT Exchange-Correlation Energy =       0.0000000000000000
    Empirical Dispersion Energy =           0.0000000000000000
    PCM Polarization Energy =               0.0000000000000000
    EFP Energy =                            0.0000000000000000
    Total Energy =                       -267.9478115414368062
    Molecular point group: c1
  Basis Set: 6-31G*
  Basis Set:

  -Total Gradient:
     Atom            X                  Y                   Z
    ------   -----------------  -----------------  -----------------
       1        0.000001246896     0.000007276601     0.000002767316
       2        0.000005808914     0.000002613820     0.000004114027
       3       -0.000007815601    -0.000021124548    -0.000014394671
       4        0.000371011145     0.000467257620    -0.002087501244
       5       -0.000001580859     0.000000033777    -0.000001382781
       6       -0.000004502206    -0.000005144294     0.000000625162
       7       -0.000731891958    -0.001397196343     0.002829470414
       8       -0.000004006646    -0.000009831723    -0.000013858966
       9        0.000003188413    -0.000025859416    -0.000013326156
      10        0.001617675647     0.003146283484     0.000422134346
      11       -0.000018484926    -0.000023651262     0.000010332070
      12        0.000060298856     0.000012871930     0.000002560581
      13       -0.001290947673    -0.002153529644    -0.001141540098

  **** Optimization is complete! (in 4 steps) ****
    Final optimized geometry and variables:
    Molecular point group: c1

    Geometry (in Angstrom), charge = 0, multiplicity = 1:

    H           -1.037329585447     2.228188235352     1.157012419466
    O           -1.100203198523     2.089044356921     0.222640388273
    C           -1.061414737183     0.714331311132    -0.053698984594
    C            0.343794918622     0.160599126201     0.101688188335
    H           -1.745968586015     0.158473564902     0.580753630009
    H           -1.386581276695     0.589588107493    -1.077013849108
    O            0.300802054056    -1.200409356618    -0.195425137614
    H            0.698330982715     0.326326174989     1.120751089647
    H            1.018552511899     0.687133264823    -0.569400471919
    C            1.524041675377    -1.873315380742    -0.149240279641
    H            1.544705733670    -2.593659845106    -0.957834353669
    H            2.364980971218    -1.196857152637    -0.267428176912
    H            1.628458626577    -2.414876189616     0.786813149692

  Mulliken Charges: (a.u.)
   Center  Symbol    Alpha    Beta     Spin     Total
       1     H     0.28128  0.28128  0.00000  0.43743
       2     O     4.37096  4.37096  0.00000 -0.74193
       3     C     3.00488  3.00488  0.00000 -0.00977
       4     C     2.99632  2.99632  0.00000  0.00735
       5     H     0.42231  0.42231  0.00000  0.15539
       6     H     0.40852  0.40852  0.00000  0.18296
       7     O     4.31111  4.31111  0.00000 -0.62222
       8     H     0.43778  0.43778  0.00000  0.12444
       9     H     0.42279  0.42279  0.00000  0.15442
      10     C     3.07748  3.07748  0.00000 -0.15496
      11     H     0.41468  0.41468  0.00000  0.17063
      12     H     0.42797  0.42797  0.00000  0.14406
      13     H     0.42390  0.42390  0.00000  0.15220

   Total alpha = 21.00000, Total beta = 21.00000, Total charge =  0.00000
