                              Psi4 1.0.54 Driver

  ==> Input File <==

--------------------------------------------------------------------------
set {
	reference rhf
	basis cc-pvtz
}

set_num_threads( 4 )
memory 2 gb

molecule MOL {
0 1

H	 1.565136	 -4.558549	 3.386952
C	 1.623316	 -3.739704	 2.696864
C	 0.654497	 -3.573645	 1.717248
C	 2.658700	 -2.837025	 2.767768
H	 -0.161048	 -4.268208	 1.646530
C	 0.725162	 -2.525940	 0.831053
H	 3.417662	 -2.949030	 3.518847
C	 2.745333	 -1.773131	 1.880618
H	 -0.018128	 -2.388669	 0.070562
C	 1.774822	 -1.616593	 0.908156
H	 3.563536	 -1.088035	 1.962165
O	 1.760432	 -0.625184	 0.000000
C	 2.773565	 0.334879	 0.000000
H	 2.728295	 0.960928	 -0.884150
H	 3.706387	 -0.206610	 0.000000
H	 2.728295	 0.960928	 0.884150

	symmetry c1
}
set optking {
	frozen_dihedral = ("
		10 12 13 14
	")
}

ee,wfn = optimize('scf', return_wfn=True)
oeprop( wfn, 'DIPOLE', 'QUADRUPOLE', 'MULLIKEN_CHARGES')
f=open( 'psi4out.xyz', 'w' )
f.write( "16  " )
f.write( str(ee) + "\n" )
f.write( MOL.save_string_xyz() )
f.close()
--------------------------------------------------------------------------

    Molecular point group: c1
  Charge       = 0
  Multiplicity = 1
  Basis Set: CC-PVTZ
  Basis Set:
  @DF-RHF Final Energy:  -344.70135225558965
    Total Energy =                       -344.7013522555896543
    Molecular point group: c1
  Basis Set: CC-PVTZ
  Basis Set:
  Basis Set: CC-PVTZ
  Basis Set:
  @DF-RHF Final Energy:  -344.70304556774062
    Total Energy =                       -344.7030455677404461
  Basis Set: CC-PVTZ
  Basis Set:
  Basis Set: CC-PVTZ
  Basis Set:
  @DF-RHF Final Energy:  -344.70351428963522
    Total Energy =                       -344.7035142896353932
  Basis Set: CC-PVTZ
  Basis Set:
  Basis Set: CC-PVTZ
  Basis Set:
  @DF-RHF Final Energy:  -344.70352120145697
    Total Energy =                       -344.7035212014567946
  Basis Set: CC-PVTZ
  Basis Set:
  Charge       = 0
  Multiplicity = 1
  Basis Set: CC-PVTZ
  Basis Set:

    Orbital Energies (a.u.)
    -----------------------

    Doubly Occupied:

       1A    -20.580317     2A    -11.293698     3A    -11.278515
       4A    -11.231240     5A    -11.229988     6A    -11.221824
       7A    -11.217984     8A    -11.216906     9A     -1.419766
      10A     -1.150942    11A     -1.025712    12A     -1.016650
      13A     -0.944299    14A     -0.834578    15A     -0.808313
      16A     -0.726210    17A     -0.667774    18A     -0.666448
      19A     -0.660848    20A     -0.619323    21A     -0.590228
      22A     -0.579658    23A     -0.528162    24A     -0.523566
      25A     -0.512384    26A     -0.479186    27A     -0.467200
      28A     -0.339766    29A     -0.310058

  @DF-RHF Final Energy:  -344.70352209323630

   => Energetics <=

    Nuclear Repulsion Energy =            348.8881572520621148
    One-Electron Energy =               -1158.9002683335424990
    Two-Electron Energy =                 465.3085889882440824
    DFT Exchange-Correlation Energy =       0.0000000000000000
    Empirical Dispersion Energy =           0.0000000000000000
    PCM Polarization Energy =               0.0000000000000000
    EFP Energy =                            0.0000000000000000
    Total Energy =                       -344.7035220932363018
    Molecular point group: c1
  Basis Set: CC-PVTZ
  Basis Set:

  -Total Gradient:
     Atom            X                  Y                   Z
    ------   -----------------  -----------------  -----------------
       1       -0.000005325381     0.000006277575    -0.000008338792
       2        0.000064827774     0.000009673224     0.000029447186
       3       -0.000049742939     0.000067848532    -0.000073598709
       4       -0.000019797178    -0.000027117622     0.000021781781
       5       -0.000000653154    -0.000008452980    -0.000002965874
       6       -0.000062736172    -0.000062214244     0.000054906019
       7        0.000002069929     0.000004775836     0.000001992333
       8       -0.000032228950     0.000042303457    -0.000012208776
       9        0.000000718735    -0.000003846802    -0.000008113604
      10        0.000788426327    -0.000716632146    -0.000795743617
      11        0.000006234162    -0.000001014919    -0.000002340418
      12       -0.000826909030     0.000807078090     0.001013595689
      13       -0.000743620120     0.000781120724     0.000433334166
      14        0.000832611344    -0.000860973662    -0.000629240865
      15        0.000042158815    -0.000029462598     0.000004833674
      16        0.000003965839    -0.000009362463    -0.000027340192

  **** Optimization is complete! (in 5 steps) ****
    Final optimized geometry and variables:
    Molecular point group: c1

    Geometry (in Angstrom), charge = 0, multiplicity = 1:

    H           -0.286422794477    -2.591759194990     2.092817484165
    C           -0.231750597892    -1.773439853822     1.401811801971
    C           -1.102019316689    -1.703083778689     0.323186311102
    C            0.700363715729    -0.776103419459     1.570498740546
    H           -1.836495406908    -2.472124163518     0.175923680857
    C           -1.034788425323    -0.657216471925    -0.565483678306
    H            1.380129093408    -0.811746212695     2.400768095160
    C            0.780727779429     0.288109738055     0.683290502865
    H           -1.701797250903    -0.593780213351    -1.402602030555
    C           -0.088299433442     0.346755014060    -0.390614308051
    H            1.512588020500     1.052151381970     0.845523382746
    O           -0.103426721090     1.334203754483    -1.303350650905
    C            0.899987926839     2.305157772367    -1.298845822970
    H            0.781747232152     2.871139266132    -2.209504662872
    H            1.886525714413     1.855817655185    -1.296171571139
    H            0.807462357885     2.969840867380    -0.447143523728

  Mulliken Charges: (a.u.)
   Center  Symbol    Alpha    Beta     Spin     Total
       1     H     0.42442  0.42442  0.00000  0.15117
       2     C     3.10087  3.10087  0.00000 -0.20174
       3     C     3.05803  3.05803  0.00000 -0.11606
       4     C     3.06165  3.06165  0.00000 -0.12331
       5     H     0.42299  0.42299  0.00000  0.15401
       6     C     3.11144  3.11144  0.00000 -0.22288
       7     H     0.42358  0.42358  0.00000  0.15284
       8     C     3.14333  3.14333  0.00000 -0.28666
       9     H     0.42090  0.42090  0.00000  0.15821
      10     C     2.85063  2.85063  0.00000  0.29873
      11     H     0.42262  0.42262  0.00000  0.15477
      12     O     4.15134  4.15134  0.00000 -0.30268
      13     C     3.04452  3.04452  0.00000 -0.08904
      14     H     0.43915  0.43915  0.00000  0.12170
      15     H     0.46340  0.46340  0.00000  0.07320
      16     H     0.46113  0.46113  0.00000  0.07773

   Total alpha = 29.00000, Total beta = 29.00000, Total charge = -0.00000

*** Psi4 exiting successfully. Buy a developer a beer!
