  ==> Input File <==

--------------------------------------------------------------------------
set {
	reference rhf
	basis 6-31G*
}

set_num_threads( 4 )
memory 2 gb

molecule MOL {
0 1

H	 -2.798360	 -0.862255	 -0.071053
N	 -1.863561	 -0.715187	 0.256814
C	 -1.344686	 0.554728	 -0.219830
H	 -1.300452	 -1.461917	 -0.101532
C	 0.018572	 0.353338	 -0.847605
H	 -1.989803	 1.046548	 -0.949172
H	 -1.239283	 1.226201	 0.626808
O	 -0.135758	 -0.448800	 -1.983319
H	 0.451543	 1.314434	 -1.124135
H	 0.682696	 -0.128017	 -0.133132
C	 1.058054	 -0.786091	 -2.614682
H	 0.814225	 -1.400140	 -3.470947
H	 1.590896	 0.099082	 -2.957510
H	 1.713090	 -1.348235	 -1.952314

	symmetry c1
}
set optking {
	frozen_dihedral = ("
		6 3 2 4
	")
}

ee = optimize('scf')
oeprop('DIPOLE', 'QUADRUPOLE', 'MULLIKEN_CHARGES')
f=open( 'psi4out.xyz', 'w' )
f.write( "14  " )
f.write( str(ee) + "\n" )
f.write( MOL.save_string_xyz() )
f.close()
--------------------------------------------------------------------------

    Molecular point group: c1
  Charge       = 0
  Multiplicity = 1
  Basis Set: 6-31G*
  Basis Set:
  @DF-RHF Final Energy:  -248.11983962753251
    Total Energy =                       -248.1198396275324285
    Molecular point group: c1
  Basis Set: 6-31G*
  Basis Set:
  Basis Set: 6-31G*
  Basis Set:
  @DF-RHF Final Energy:  -248.12044320095271
    Total Energy =                       -248.1204432009527068
  Basis Set: 6-31G*
  Basis Set:
  Basis Set: 6-31G*
  Basis Set:
  @DF-RHF Final Energy:  -248.12061305699936
    Total Energy =                       -248.1206130569994457
  Basis Set: 6-31G*
  Basis Set:
  Charge       = 0
  Multiplicity = 1
  Basis Set: 6-31G*
  Basis Set:

    Orbital Energies (a.u.)
    -----------------------

    Doubly Occupied:

       1A    -20.561929     2A    -15.525401     3A    -11.272300
       4A    -11.270290     5A    -11.241230     6A     -1.386420
       7A     -1.170399     8A     -1.001800     9A     -0.911473
      10A     -0.821061    11A     -0.688482    12A     -0.667726
      13A     -0.653373    14A     -0.622930    15A     -0.585556
      16A     -0.549424    17A     -0.536937    18A     -0.503823
      19A     -0.472724    20A     -0.422279    21A     -0.375139

  @DF-RHF Final Energy:  -248.12061559583734

   => Energetics <=

    Nuclear Repulsion Energy =            194.3865071894017262
    One-Electron Energy =                -722.5328500094299216
    Two-Electron Energy =                 280.0257272241908595
    DFT Exchange-Correlation Energy =       0.0000000000000000
    Empirical Dispersion Energy =           0.0000000000000000
    PCM Polarization Energy =               0.0000000000000000
    EFP Energy =                            0.0000000000000000
    Total Energy =                       -248.1206155958373074
    Molecular point group: c1
  Basis Set: 6-31G*
  Basis Set:

  -Total Gradient:
     Atom            X                  Y                   Z
    ------   -----------------  -----------------  -----------------
       1       -0.000008538818    -0.000018463516    -0.000011199102
       2       -0.002519570756     0.000225829261    -0.002092957611
       3        0.001878232562    -0.001635636111    -0.002049653622
       4        0.001709835826     0.000085115916     0.002203325185
       5       -0.000005298734     0.000202430658     0.000105872852
       6       -0.001102697879     0.001278997002     0.001926003683
       7        0.000025495382    -0.000049739545     0.000001209944
       8       -0.000007910846    -0.000001797265     0.000016820437
       9        0.000019537687    -0.000037600664    -0.000047417732
      10        0.000007041546    -0.000053133157    -0.000078581771
      11       -0.000017380268     0.000012906890     0.000042867180
      12        0.000006333524    -0.000005612010    -0.000007623738
      13        0.000001472255    -0.000000209191    -0.000000407192
      14        0.000013448519    -0.000003088269    -0.000008258515

  **** Optimization is complete! (in 4 steps) ****
    Final optimized geometry and variables:
    Molecular point group: c1

    Geometry (in Angstrom), charge = 0, multiplicity = 1:

    H           -2.418517838899    -0.567533366829     1.069790808135
    N           -1.469197144221    -0.468174189169     1.365171038397
    C           -0.888929615770     0.779276213300     0.881973228388
    H           -0.965201781581    -1.251847877377     1.001688961842
    C            0.470006027254     0.573798390106     0.243230922421
    H           -1.543898712668     1.279122587062     0.173006433389
    H           -0.757782822038     1.465711791176     1.715440677833
    O            0.333323081680    -0.252676078194    -0.874830065289
    H            0.891037218676     1.536337651671    -0.044104725136
    H            1.150908283280     0.117930476125     0.962602049798
    C            1.530047088146    -0.531929652807    -1.529877158904
    H            1.302191343296    -1.177451960441    -2.366955877497
    H            2.000367114866     0.375704300749    -1.903170776323
    H            2.234400580711    -1.040076959030    -0.873901970736

  Mulliken Charges: (a.u.)
   Center  Symbol    Alpha    Beta     Spin     Total
       1     H     0.33035  0.33035  0.00000  0.33929
       2     N     3.93258  3.93258  0.00000 -0.86516
       3     C     3.05314  3.05314  0.00000 -0.10627
       4     H     0.32445  0.32445  0.00000  0.35110
       5     C     3.00826  3.00826  0.00000 -0.01653
       6     H     0.42211  0.42211  0.00000  0.15579
       7     H     0.42127  0.42127  0.00000  0.15745
       8     O     4.30575  4.30575  0.00000 -0.61151
       9     H     0.42690  0.42690  0.00000  0.14619
      10     H     0.42629  0.42629  0.00000  0.14742
      11     C     3.08032  3.08032  0.00000 -0.16064
      12     H     0.41117  0.41117  0.00000  0.17766
      13     H     0.42860  0.42860  0.00000  0.14280
      14     H     0.42879  0.42879  0.00000  0.14242

   Total alpha = 21.00000, Total beta = 21.00000, Total charge =  0.00000
