  ==> Input File <==

--------------------------------------------------------------------------
set {
	reference rhf
	basis 6-31G*
}

set_num_threads( 1 )
memory 2 gb

molecule MOL {
0 1

O	 -2.821601	 1.309235	 -0.001213
C	 -2.668563	 0.129746	 -0.000350
C	 -3.801572	 -0.864014	 -0.000442
O	 -1.481751	 -0.454642	 0.000584
H	 -4.417280	 -0.689587	 -0.874708
H	 -3.443784	 -1.883046	 -0.000565
H	 -4.417179	 -0.689832	 0.873954
C	 -0.334255	 0.388708	 0.000906
C	 0.891947	 -0.504646	 0.000751
H	 -0.365390	 1.025305	 -0.873475
H	 -0.365484	 1.024911	 0.875569
C	 2.191998	 0.301789	 0.000897
H	 0.855148	 -1.151283	 -0.871571
H	 0.855132	 -1.151660	 0.872805
C	 2.035443	 1.684554	 0.636331
H	 2.963298	 -0.251574	 0.533788
H	 2.549336	 0.416034	 -1.021032
C	 3.334286	 2.489459	 0.637660
H	 1.678757	 1.572232	 1.657719
H	 1.266673	 2.239758	 0.103591
H	 4.113891	 1.975179	 1.192410
H	 3.191595	 3.463846	 1.094217
H	 3.698524	 2.648014	 -0.373379

	symmetry c1
}
set optking {
	frozen_dihedral = ("
		13 9 8 10,
		2 4 8 10,
		19 15 12 16,
		1 2 4 8
	")
}

ee = energy('scf')
oeprop('DIPOLE', 'QUADRUPOLE', 'MULLIKEN_CHARGES')
f=open( 'psi4out.xyz', 'w' )
f.write( "23  " )
f.write( str(ee) + "\n" )
f.write( MOL.save_string_xyz() )
f.close()
--------------------------------------------------------------------------

    Molecular point group: c1

    Geometry (in Angstrom), charge = 0, multiplicity = 1:

       Center              X                  Y                   Z               Mass
    ------------   -----------------  -----------------  -----------------  -----------------
           O         -2.507892930642     0.803533267022    -0.143513868750    15.994914619560
           C         -2.354854930642    -0.375955732978    -0.142650868750    12.000000000000
           C         -3.487863930642    -1.369715732978    -0.142742868750    12.000000000000
           O         -1.168042930642    -0.960343732978    -0.141716868750    15.994914619560
           H         -4.103571930642    -1.195288732978    -1.017008868750     1.007825032070
           H         -3.130075930642    -2.388747732978    -0.142865868750     1.007825032070
           H         -4.103470930642    -1.195533732978     0.731653131250     1.007825032070
           C         -0.020546930642    -0.116993732978    -0.141394868750    12.000000000000
           C          1.205655069358    -1.010347732978    -0.141549868750    12.000000000000
           H         -0.051681930642     0.519603267022    -1.015775868750     1.007825032070
           H         -0.051775930642     0.519209267022     0.733268131250     1.007825032070
           C          2.505706069358    -0.203912732978    -0.141403868750    12.000000000000
           H          1.168856069358    -1.656984732978    -1.013871868750     1.007825032070
           H          1.168840069358    -1.657361732978     0.730504131250     1.007825032070
           C          2.349151069358     1.178852267022     0.494030131250    12.000000000000
           H          3.277006069358    -0.757275732978     0.391487131250     1.007825032070
           H          2.863044069358    -0.089667732978    -1.163332868750     1.007825032070
           C          3.647994069358     1.983757267022     0.495359131250    12.000000000000
           H          1.992465069358     1.066530267022     1.515418131250     1.007825032070
           H          1.580381069358     1.734056267022    -0.038709868750     1.007825032070
           H          4.427599069358     1.469477267022     1.050109131250     1.007825032070
           H          3.505303069358     2.958144267022     0.951916131250     1.007825032070
           H          4.012232069358     2.142312267022    -0.515679868750     1.007825032070

  Charge       = 0
  Multiplicity = 1
  Basis Set: 6-31G*
  Basis Set:

    Orbital Energies (a.u.)
    -----------------------

    Doubly Occupied:

       1A    -20.601896     2A    -20.540089     3A    -11.373656
       4A    -11.279998     5A    -11.232102     6A    -11.223274
       7A    -11.222598     8A    -11.221290     9A    -11.212365
      10A     -1.467234    11A     -1.360182    12A     -1.098414
      13A     -1.037857    14A     -1.001606    15A     -0.930857
      16A     -0.856175    17A     -0.790899    18A     -0.774376
      19A     -0.690938    20A     -0.684796    21A     -0.667555
      22A     -0.642420    23A     -0.606344    24A     -0.588524
      25A     -0.578695    26A     -0.571739    27A     -0.567109
      28A     -0.526233    29A     -0.524487    30A     -0.516848
      31A     -0.498980    32A     -0.474439    33A     -0.464044
      34A     -0.458894    35A     -0.447022    36A     -0.435700

  @DF-RHF Final Energy:  -422.97034555418674

   => Energetics <=

    Nuclear Repulsion Energy =            461.2497562702871505
    One-Electron Energy =               -1490.1010432354885324
    Two-Electron Energy =                 605.8809414110155558
    DFT Exchange-Correlation Energy =       0.0000000000000000
    Empirical Dispersion Energy =           0.0000000000000000
    PCM Polarization Energy =               0.0000000000000000
    EFP Energy =                            0.0000000000000000
    Total Energy =                       -422.9703455541857693

  Mulliken Charges: (a.u.)
   Center  Symbol    Alpha    Beta     Spin     Total
       1     O     4.28432  4.28432  0.00000 -0.56864
       2     C     2.61564  2.61564  0.00000  0.76872
       3     C     3.28781  3.28781  0.00000 -0.57563
       4     O     4.31506  4.31506  0.00000 -0.63011
       5     H     0.39760  0.39760  0.00000  0.20481
       6     H     0.39983  0.39983  0.00000  0.20034
       7     H     0.39763  0.39763  0.00000  0.20474
       8     C     3.00067  3.00067  0.00000 -0.00133
       9     C     3.16523  3.16523  0.00000 -0.33045
      10     H     0.41048  0.41048  0.00000  0.17905
      11     H     0.40634  0.40634  0.00000  0.18733
      12     C     3.15817  3.15817  0.00000 -0.31633
      13     H     0.41179  0.41179  0.00000  0.17643
      14     H     0.41339  0.41339  0.00000  0.17321
      15     C     3.16679  3.16679  0.00000 -0.33358
      16     H     0.41716  0.41716  0.00000  0.16569
      17     H     0.41934  0.41934  0.00000  0.16132
      18     C     3.23751  3.23751  0.00000 -0.47502
      19     H     0.41993  0.41993  0.00000  0.16013
      20     H     0.41575  0.41575  0.00000  0.16850
      21     H     0.42135  0.42135  0.00000  0.15730
      22     H     0.41730  0.41730  0.00000  0.16540
      23     H     0.42094  0.42094  0.00000  0.15812

   Total alpha = 36.00000, Total beta = 36.00000, Total charge = -0.00000
