  ==> Input File <==

--------------------------------------------------------------------------
set {
	reference rhf
	basis cc-pvtz
}

set_num_threads( 4 )
memory 2 gb

molecule MOL {
0 1

H	 -1.715651	 -0.047859	 -0.892608
N	 -1.173824	 -0.310545	 -0.096857
C	 -0.022588	 0.563366	 0.065815
H	 -1.774845	 -0.259464	 0.699244
C	 1.270420	 -0.230572	 -0.014245
H	 -0.045354	 1.293678	 -0.735129
H	 -0.043155	 1.123061	 1.001180
H	 1.336273	 -0.754933	 -0.959364
H	 2.130728	 0.422015	 0.082222
H	 1.323344	 -0.967006	 0.781773

	symmetry c1
}
set optking {
	frozen_dihedral = ("
		1 2 3 6
	")
}

ee = optimize('scf')
oeprop('DIPOLE', 'QUADRUPOLE', 'MULLIKEN_CHARGES')
f=open( 'psi4out.xyz', 'w' )
f.write( "10  " )
f.write( str(ee) + "\n" )
f.write( MOL.save_string_xyz() )
f.close()
--------------------------------------------------------------------------

    Molecular point group: c1
  Charge       = 0
  Multiplicity = 1
  Basis Set: CC-PVTZ
  Basis Set:
  @DF-RHF Final Energy:  -134.30092449807012
    Total Energy =                       -134.3009244980701453
    Molecular point group: c1
  Basis Set: CC-PVTZ
  Basis Set:
  Basis Set: CC-PVTZ
  Basis Set:
  @DF-RHF Final Energy:  -134.30148376077079
    Total Energy =                       -134.3014837607707932
  Basis Set: CC-PVTZ
  Basis Set:
  Basis Set: CC-PVTZ
  Basis Set:
  @DF-RHF Final Energy:  -134.30163853624728
    Total Energy =                       -134.3016385362472533
  Basis Set: CC-PVTZ
  Basis Set:
  Basis Set: CC-PVTZ
  Basis Set:
  @DF-RHF Final Energy:  -134.30164084477474
    Total Energy =                       -134.3016408447747949
  Basis Set: CC-PVTZ
  Basis Set:
  Charge       = 0
  Multiplicity = 1
  Basis Set: CC-PVTZ
  Basis Set:

    Orbital Energies (a.u.)
    -----------------------

    Doubly Occupied:

       1A    -15.525046     2A    -11.241645     3A    -11.198628
       4A     -1.174219     5A     -0.986923     6A     -0.820850
       7A     -0.674248     8A     -0.624011     9A     -0.569681
      10A     -0.527272    11A     -0.510907    12A     -0.476909
      13A     -0.381972

  @DF-RHF Final Energy:  -134.30164125019485

   => Energetics <=

    Nuclear Repulsion Energy =             83.1214948684713448
    One-Electron Energy =                -345.4216493514730928
    Two-Electron Energy =                 127.9985132328068858
    DFT Exchange-Correlation Energy =       0.0000000000000000
    Empirical Dispersion Energy =           0.0000000000000000
    PCM Polarization Energy =               0.0000000000000000
    EFP Energy =                            0.0000000000000000
    Total Energy =                       -134.3016412501948480
    Molecular point group: c1
  Basis Set: CC-PVTZ
  Basis Set:

  -Total Gradient:
     Atom            X                  Y                   Z
    ------   -----------------  -----------------  -----------------
       1        0.000185827532    -0.000188691376    -0.000198964211
       2       -0.000289695353     0.000234671214     0.000274239989
       3        0.000294646626    -0.000237705348    -0.000250053267
       4       -0.000016773176     0.000008455151     0.000013643532
       5       -0.000010603031     0.000008324173     0.000023986821
       6       -0.000157348003     0.000170533146     0.000161069687
       7        0.000006062755    -0.000008976857     0.000002117674
       8       -0.000007229046     0.000007220199    -0.000003220090
       9        0.000002289345    -0.000002545388    -0.000008385865
      10       -0.000007177648     0.000008715086    -0.000014434271

  **** Optimization is complete! (in 5 steps) ****
    Final optimized geometry and variables:
    Molecular point group: c1

    Geometry (in Angstrom), charge = 0, multiplicity = 1:

    H           -1.746984869340    -0.055693982799    -0.851980276039
    N           -1.181712796711    -0.313501094605    -0.074394791704
    C           -0.011690068564     0.550572902577     0.065148310360
    H           -1.757415372903    -0.299752121773     0.737514664168
    C            1.284889248793    -0.243527191348     0.008964255474
    H           -0.007819004119     1.300077640416    -0.719602782133
    H           -0.055714238261     1.097611448633     1.001880078965
    H            1.366577719672    -0.771094010471    -0.934008583611
    H            2.146283650100     0.408901306873     0.114020933382
    H            1.314439109716    -0.980096944604     0.803397634660

  Mulliken Charges: (a.u.)
   Center  Symbol    Alpha    Beta     Spin     Total
       1     H     0.42597  0.42597  0.00000  0.14806
       2     N     3.69672  3.69672  0.00000 -0.39343
       3     C     3.03566  3.03566  0.00000 -0.07132
       4     H     0.42637  0.42637  0.00000  0.14726
       5     C     3.12049  3.12049  0.00000 -0.24097
       6     H     0.45877  0.45877  0.00000  0.08247
       7     H     0.45942  0.45942  0.00000  0.08117
       8     H     0.45707  0.45707  0.00000  0.08586
       9     H     0.46196  0.46196  0.00000  0.07608
      10     H     0.45759  0.45759  0.00000  0.08482

   Total alpha = 13.00000, Total beta = 13.00000, Total charge = -0.00000
