  ==> Input File <==

--------------------------------------------------------------------------
set {
	reference rhf
	basis 6-31G*
}

set_num_threads( 1 )
memory 2 gb

molecule MOL {
0 1

H	 -4.353310	 -1.397810	 -0.511888
C	 -3.501215	 -0.993411	 -0.000952
C	 -2.290297	 -1.280227	 -0.419778
H	 -3.666001	 -0.357869	 0.848661
O	 -1.180634	 -0.819263	 0.215062
H	 -2.104025	 -1.908712	 -1.272716
C	 0.051604	 -1.018856	 -0.387932
C	 1.043764	 0.054862	 -0.001873
H	 -0.017620	 -1.041351	 -1.469781
H	 0.437898	 -1.966374	 -0.042284
F	 2.212596	 -0.199467	 -0.571921
F	 0.652529	 1.252447	 -0.405055
F	 1.230877	 0.110694	 1.300533

	symmetry c1
}
set optking {
	frozen_dihedral = ("
		11 8 7 9,
		6 3 2 1,
		6 3 5 7
	")
}

ee = energy('scf')
oeprop('DIPOLE', 'QUADRUPOLE', 'MULLIKEN_CHARGES')
f=open( 'psi4out.xyz', 'w' )
f.write( "13  " )
f.write( str(ee) + "\n" )
f.write( MOL.save_string_xyz() )
f.close()
--------------------------------------------------------------------------

    Molecular point group: c1

    Geometry (in Angstrom), charge = 0, multiplicity = 1:

       Center              X                  Y                   Z               Mass
    ------------   -----------------  -----------------  -----------------  -----------------
           H         -4.296185521389    -1.107623368378    -0.491205348373     1.007825032070
           C         -3.444090521389    -0.703224368378     0.019730651627    12.000000000000
           C         -2.233172521389    -0.990040368378    -0.399095348373    12.000000000000
           H         -3.608876521389    -0.067682368378     0.869343651627     1.007825032070
           O         -1.123509521389    -0.529076368378     0.235744651627    15.994914619560
           H         -2.046900521389    -1.618525368378    -1.252033348373     1.007825032070
           C          0.108728478611    -0.728669368378    -0.367249348373    12.000000000000
           C          1.100888478611     0.345048631622     0.018809651627    12.000000000000
           H          0.039504478611    -0.751164368378    -1.449098348373     1.007825032070
           H          0.495022478611    -1.676187368378    -0.021601348373     1.007825032070
           F          2.269720478611     0.090719631622    -0.551238348373    18.998403224000
           F          0.709653478611     1.542633631622    -0.384372348373    18.998403224000
           F          1.288001478611     0.400880631622     1.321215651627    18.998403224000

  Charge       = 0
  Multiplicity = 1
  Basis Set: 6-31G*
  Basis Set:

    Orbital Energies (a.u.)
    -----------------------

    Doubly Occupied:

       1A    -26.345243     2A    -26.339915     3A    -26.338015
       4A    -20.605703     5A    -11.506028     6A    -11.318437
       7A    -11.303108     8A    -11.219118     9A     -1.739981
      10A     -1.639112    11A     -1.634925    12A     -1.436811
      13A     -1.086728    14A     -1.016402    15A     -0.923208
      16A     -0.836804    17A     -0.829290    18A     -0.807311
      19A     -0.800582    20A     -0.718140    21A     -0.714335
      22A     -0.696898    23A     -0.679935    24A     -0.658410
      25A     -0.651286    26A     -0.644965    27A     -0.640806
      28A     -0.574521    29A     -0.560117    30A     -0.528332
      31A     -0.512380    32A     -0.353269

  @DF-RHF Final Energy:  -527.53286648610037

   => Energetics <=

    Nuclear Repulsion Energy =            405.5955203094784451
    One-Electron Energy =               -1534.9365010275896566
    Two-Electron Energy =                 601.8081142320110075
    DFT Exchange-Correlation Energy =       0.0000000000000000
    Empirical Dispersion Energy =           0.0000000000000000
    PCM Polarization Energy =               0.0000000000000000
    EFP Energy =                            0.0000000000000000
    Total Energy =                       -527.5328664861002608

  Mulliken Charges: (a.u.)
   Center  Symbol    Alpha    Beta     Spin     Total
       1     H     0.40702  0.40702  0.00000  0.18597
       2     C     3.23412  3.23412  0.00000 -0.46825
       3     C     2.89609  2.89609  0.00000  0.20782
       4     H     0.40021  0.40021  0.00000  0.19959
       5     O     4.30519  4.30519  0.00000 -0.61039
       6     H     0.40843  0.40843  0.00000  0.18315
       7     C     3.04988  3.04988  0.00000 -0.09976
       8     C     2.45218  2.45218  0.00000  1.09563
       9     H     0.40661  0.40661  0.00000  0.18679
      10     H     0.40418  0.40418  0.00000  0.19164
      11     F     4.68337  4.68337  0.00000 -0.36675
      12     F     4.67756  4.67756  0.00000 -0.35511
      13     F     4.67516  4.67516  0.00000 -0.35033

   Total alpha = 32.00000, Total beta = 32.00000, Total charge =  0.00000
