  ==> Input File <==

--------------------------------------------------------------------------
set {
	reference rhf
	basis cc-pvtz
}

set_num_threads( 4 )
memory 2 gb

molecule MOL {
0 1

H	 -1.949535	 1.757945	 1.262951
C	 -0.939045	 1.373532	 1.308850
C	 -0.600949	 0.658697	 -0.000002
H	 -0.867719	 0.695753	 2.148858
H	 -0.264695	 2.201321	 1.482356
C	 0.763408	 0.112229	 -0.000006
H	 -1.283885	 -0.161679	 -0.177525
H	 -0.684257	 1.335408	 -0.840273
N	 1.806008	 -0.317179	 0.000007

	symmetry c1
}
set optking {
	frozen_dihedral = ("
		7 3 6 9
	")
}

ee = optimize('scf')
oeprop('DIPOLE', 'QUADRUPOLE', 'MULLIKEN_CHARGES')
f=open( 'psi4out.xyz', 'w' )
f.write( "9  " )
f.write( str(ee) + "\n" )
f.write( MOL.save_string_xyz() )
f.close()
--------------------------------------------------------------------------

    Molecular point group: c1
  Charge       = 0
  Multiplicity = 1
  Basis Set: CC-PVTZ
  Basis Set:
  @DF-RHF Final Energy:  -171.02344832149970
    Total Energy =                       -171.0234483214997567
    Molecular point group: c1
  Basis Set: CC-PVTZ
  Basis Set:
  Basis Set: CC-PVTZ
  Basis Set:
  @DF-RHF Final Energy:  -170.50728923927443
    Total Energy =                       -170.5072892392744848
  Basis Set: CC-PVTZ
  Basis Set:
  Basis Set: CC-PVTZ
  Basis Set:
  @DF-RHF Final Energy:  -170.51839531773027
    Total Energy =                       -170.5183953177303238
  Basis Set: CC-PVTZ
  Basis Set:
  Basis Set: CC-PVTZ
  Basis Set:
  @DF-RHF Final Energy:  -170.52340946299304
    Total Energy =                       -170.5234094629931292
  Basis Set: CC-PVTZ
  Basis Set:
  @DF-RHF Final Energy:  -170.52642045182444
    Total Energy =                       -170.5264204518244640
  @DF-RHF Final Energy:  -170.53512961800669
    Total Energy =                       -170.5351296180068630
  @DF-RHF Final Energy:  -170.54973223227080
    Total Energy =                       -170.5497322322706566
  @DF-RHF Final Energy:  -170.57315853336132
    Total Energy =                       -170.5731585333613225
  @DF-RHF Final Energy:  -170.78264860242138
    Total Energy =                       -170.7826486024213182
  @DF-RHF Final Energy:  -170.95001696998679
    Total Energy =                       -170.9500169699868195
  @DF-RHF Final Energy:  -171.00800070040805
    Total Energy =                       -171.0080007004080471
  @DF-RHF Final Energy:  -171.01925712085674
    Total Energy =                       -171.0192571208567358
  @DF-RHF Final Energy:  -171.02059728400496
    Total Energy =                       -171.0205972840049071
  @DF-RHF Final Energy:  -171.02255747350000
    Total Energy =                       -171.0225574735000578
  @DF-RHF Final Energy:  -171.02332699967741
    Total Energy =                       -171.0233269996773799
  @DF-RHF Final Energy:  -171.02221959999233
    Total Energy =                       -171.0222195999924111
  @DF-RHF Final Energy:  -171.02292189119504
    Total Energy =                       -171.0229218911949829
  @DF-RHF Final Energy:  -171.02270445896275
    Total Energy =                       -171.0227044589627496
  @DF-RHF Final Energy:  -171.02094934977930
    Total Energy =                       -171.0209493497793574
  @DF-RHF Final Energy:  -171.02125565430404
    Total Energy =                       -171.0212556543040705
  @DF-RHF Final Energy:  -170.78184887911843
    Total Energy =                       -170.7818488791183142
  @DF-RHF Final Energy:  -170.80616269200303
    Total Energy =                       -170.8061626920030562
  @DF-RHF Final Energy:  -170.86871258078565
    Total Energy =                       -170.8687125807855409
  @DF-RHF Final Energy:  -170.90179487613605
    Total Energy =                       -170.9017948761360230
  @DF-RHF Final Energy:  -170.80226286842193
    Total Energy =                       -170.8022628684218489
  @DF-RHF Final Energy:  -170.70468929459037
    Total Energy =                       -170.7046892945904233
  @DF-RHF Final Energy:  -170.87541773058501
    Total Energy =                       -170.8754177305850135
  @DF-RHF Final Energy:  -170.78043084476488
    Total Energy =                       -170.7804308447647088
  @DF-RHF Final Energy:  -170.74042097016923
    Total Energy =                       -170.7404209701692821
  @DF-RHF Final Energy:  -170.63191481879142
    Total Energy =                       -170.6319148187914436
  @DF-RHF Final Energy:  -170.64368016007123
    Total Energy =                       -170.6436801600711419
  @DF-RHF Final Energy:  -170.71096346918404
    Total Energy =                       -170.7109634691839233
  @DF-RHF Final Energy:  -170.97095753381871
    Total Energy =                       -170.9709575338187335
  @DF-RHF Final Energy:  -170.66257809888788
    Total Energy =                       -170.6625780988878773
  @DF-RHF Final Energy:  -170.82524589705775
    Total Energy =                       -170.8252458970577266
  @DF-RHF Final Energy:  -170.90367095859779
    Total Energy =                       -170.9036709585977860
  Basis Set: CC-PVTZ
  Basis Set:
  @DF-RHF Final Energy:  -170.94037220163887
    Total Energy =                       -170.9403722016389224
  Basis Set: CC-PVTZ
  Basis Set:
  Basis Set: CC-PVTZ
  Basis Set:
  @DF-RHF Final Energy:  -170.88714113374701
    Total Energy =                       -170.8871411337470079
  Basis Set: CC-PVTZ
  Basis Set:
  Basis Set: CC-PVTZ
  Basis Set:
  @DF-RHF Final Energy:  -170.84362769777505
    Total Energy =                       -170.8436276977751049
  Basis Set: CC-PVTZ
  Basis Set:
  Charge       = 0
  Multiplicity = 1
  Basis Set: CC-PVTZ
  Basis Set:

    Orbital Energies (a.u.)
    -----------------------

    Doubly Occupied:

       1A    -15.610325     2A    -11.313647     3A    -11.293095
       4A    -11.246463     5A     -1.169332     6A     -1.070205
       7A     -0.902774     8A     -0.708282     9A     -0.655676
      10A     -0.593942    11A     -0.557735    12A     -0.535741
      13A     -0.531018    14A     -0.432345    15A     -0.427613

  @DF-RHF Final Energy:  -170.96263675059154

   => Energetics <=

    Nuclear Repulsion Energy =            100.8157921428027919
    One-Electron Energy =                -429.4604707167921447
    Two-Electron Energy =                 157.6820418233978103
    DFT Exchange-Correlation Energy =       0.0000000000000000
    Empirical Dispersion Energy =           0.0000000000000000
    PCM Polarization Energy =               0.0000000000000000
    EFP Energy =                            0.0000000000000000
    Total Energy =                       -170.9626367505915709
    Molecular point group: c1
  Basis Set: CC-PVTZ
  Basis Set:

  -Total Gradient:
     Atom            X                  Y                   Z
    ------   -----------------  -----------------  -----------------
       1       -0.001149151158     0.001360335170     0.005694875021
       2       -0.018718150901    -0.000451016818    -0.008158088515
       3        0.011910389716     0.020050072373    -0.004571062867
       4       -0.000988769835    -0.003674896354     0.005389615817
       5        0.012017548625     0.005858085969    -0.003100099822
       6       -0.234912429149    -0.032018954061    -0.090630914254
       7       -0.015499592298    -0.004725260613     0.000700133398
       8       -0.004498457013    -0.000482251208     0.010493227281
       9        0.251838612012     0.014083885543     0.084182313942

    Molecular point group: c1

    Geometry (in Angstrom), charge = 0, multiplicity = 1:

    H           -1.993934934813     1.211221885845     0.986965765070
    C           -0.980591304495     0.815333791380     0.814917408460
    C           -0.845961832622     0.161297495452    -0.562714549818
    H           -0.752029028711     0.077091267797     1.621366287304
    H           -0.235953002107     1.646296054250     0.869447907531
    C            0.618868247685    -0.265685303415    -0.760553062773
    H           -1.597553113039    -0.670904291634    -0.669961335433
    H           -1.089911852646     0.932598440813    -1.298956979629
    N            1.442966286762    -0.839291881935     0.327037757024

  Mulliken Charges: (a.u.)
   Center  Symbol    Alpha    Beta     Spin     Total
       1     H     0.44612  0.44612  0.00000  0.10775
       2     C     3.12832  3.12832  0.00000 -0.25665
       3     C     3.06433  3.06433  0.00000 -0.12865
       4     H     0.44626  0.44626  0.00000  0.10748
       5     H     0.44639  0.44639  0.00000  0.10721
       6     C     3.01306  3.01306  0.00000 -0.02613
       7     H     0.43749  0.43749  0.00000  0.12501
       8     H     0.42901  0.42901  0.00000  0.14199
       9     N     3.58901  3.58901  0.00000 -0.17802

   Total alpha = 15.00000, Total beta = 15.00000, Total charge = -0.00000
