  ==> Input File <==

--------------------------------------------------------------------------
set {
	reference rhf
	basis cc-pvtz
}

set_num_threads( 4 )
memory 2 gb

molecule MOL {
0 1

H	 -1.396087	 -0.394552	 -0.560513
N	 -0.625934	 -0.663929	 -0.000707
C	 -0.730064	 -1.880477	 0.770177
C	 0.468494	 0.129045	 -0.002160
H	 -1.551587	 -1.824487	 1.474417
H	 0.187932	 -2.015726	 1.316147
H	 -0.883386	 -2.737398	 0.125028
C	 1.785715	 -0.615093	 0.000603
O	 0.413285	 1.323206	 0.000532
H	 1.866994	 -1.243310	 -0.878792
H	 2.591506	 0.100263	 0.006422
H	 1.860358	 -1.250360	 0.875522

	symmetry c1
}
set optking {
	frozen_dihedral = ("
		3 2 4 9
	")
}

ee = optimize('scf')
oeprop('DIPOLE', 'QUADRUPOLE', 'MULLIKEN_CHARGES')
f=open( 'psi4out.xyz', 'w' )
f.write( "12  " )
f.write( str(ee) + "\n" )
f.write( MOL.save_string_xyz() )
f.close()
--------------------------------------------------------------------------

    Molecular point group: c1
  Charge       = 0
  Multiplicity = 1
  Basis Set: CC-PVTZ
  Basis Set:
  @DF-RHF Final Energy:  -247.07943692260346
    Total Energy =                       -247.0794369226033496
    Molecular point group: c1
  Basis Set: CC-PVTZ
  Basis Set:
  Basis Set: CC-PVTZ
  Basis Set:
  @DF-RHF Final Energy:  -247.08532890915208
    Total Energy =                       -247.0853289091520537
  Basis Set: CC-PVTZ
  Basis Set:
  Basis Set: CC-PVTZ
  Basis Set:
  @DF-RHF Final Energy:  -247.09025524406573
    Total Energy =                       -247.0902552440655882
  Basis Set: CC-PVTZ
  Basis Set:
  Basis Set: CC-PVTZ
  Basis Set:
  @DF-RHF Final Energy:  -247.09221570819878
    Total Energy =                       -247.0922157081985802
  Basis Set: CC-PVTZ
  Basis Set:
  @DF-RHF Final Energy:  -247.09298095053830
    Total Energy =                       -247.0929809505382195
  @DF-RHF Final Energy:  -247.09377749253898
    Total Energy =                       -247.0937774925387203
  @DF-RHF Final Energy:  -247.09438555637217
    Total Energy =                       -247.0943855563720604
  @DF-RHF Final Energy:  -247.09462621088201
    Total Energy =                       -247.0946262108818132
  Basis Set: CC-PVTZ
  Basis Set:
  @DF-RHF Final Energy:  -247.09469422922706
    Total Energy =                       -247.0946942292270023
  Basis Set: CC-PVTZ
  Basis Set:
  Basis Set: CC-PVTZ
  Basis Set:
  @DF-RHF Final Energy:  -247.09472864453923
    Total Energy =                       -247.0947286445393161
  Basis Set: CC-PVTZ
  Basis Set:
  Basis Set: CC-PVTZ
  Basis Set:
  @DF-RHF Final Energy:  -247.09473627489913
    Total Energy =                       -247.0947362748991054
  Basis Set: CC-PVTZ
  Basis Set:
  Charge       = 0
  Multiplicity = 1
  Basis Set: CC-PVTZ
  Basis Set:

    Orbital Energies (a.u.)
    -----------------------

    Doubly Occupied:

       1A    -20.517630     2A    -15.570765     3A    -11.340205
       4A    -11.267180     5A    -11.229243     6A     -1.397073
       7A     -1.229734     8A     -1.007922     9A     -0.952139
      10A     -0.777057    11A     -0.677874    12A     -0.668336
      13A     -0.639383    14A     -0.594590    15A     -0.578602
      16A     -0.563861    17A     -0.553462    18A     -0.514874
      19A     -0.425630    20A     -0.395009

  @DF-RHF Final Energy:  -247.09473688924598

   => Energetics <=

    Nuclear Repulsion Energy =            181.7153630714302324
    One-Electron Energy =                -695.8190598362707533
    Two-Electron Energy =                 267.0089598755944849
    DFT Exchange-Correlation Energy =       0.0000000000000000
    Empirical Dispersion Energy =           0.0000000000000000
    PCM Polarization Energy =               0.0000000000000000
    EFP Energy =                            0.0000000000000000
    Total Energy =                       -247.0947368892460076
    Molecular point group: c1
  Basis Set: CC-PVTZ
  Basis Set:

  -Total Gradient:
     Atom            X                  Y                   Z
    ------   -----------------  -----------------  -----------------
       1       -0.000010335447    -0.000000929841    -0.000005782960
       2        0.003421207814    -0.003742212355    -0.002143694423
       3       -0.002422706520     0.002576060281     0.002913944770
       4       -0.000006553794     0.000716208492    -0.006172556881
       5       -0.000006120246    -0.000011375820     0.000022289573
       6        0.000003854280    -0.000006435951    -0.000000972339
       7       -0.000000535866     0.000001950441    -0.000004442043
       8        0.000005391105    -0.000001722244    -0.000029022177
       9       -0.000972064960     0.000475082875     0.005399666882
      10        0.000005995537     0.000003615080     0.000003760937
      11       -0.000007366204    -0.000005944671    -0.000001529831
      12       -0.000010765698    -0.000004296287     0.000018338491

  **** Optimization is complete! (in 12 steps) ****
    Final optimized geometry and variables:
    Molecular point group: c1

    Geometry (in Angstrom), charge = 0, multiplicity = 1:

    H           -1.680010812254     0.099330580267    -0.415877005904
    N           -0.830912133817    -0.405222275608    -0.287460678778
    C           -0.974537129905    -1.557480052928     0.581357013096
    C            0.215612860324     0.475184130751    -0.174358526387
    H           -1.084407354122    -1.286792860435     1.627630759213
    H           -0.126863295494    -2.220265545553     0.484824475847
    H           -1.853270923272    -2.108136815067     0.278145821242
    C            1.575312109130    -0.116529905362     0.110727301288
    O            0.053364770334     1.650058342608    -0.297134510353
    H            1.768012321182    -0.980656410017    -0.511280222113
    H            2.320785598014     0.641711338262    -0.065660128789
    H            1.633210919396    -0.428299618565     1.147563701512

  Mulliken Charges: (a.u.)
   Center  Symbol    Alpha    Beta     Spin     Total
       1     H     0.42317  0.42317  0.00000  0.15366
       2     N     3.61020  3.61020  0.00000 -0.22040
       3     C     3.08923  3.08923  0.00000 -0.17846
       4     C     2.84292  2.84292  0.00000  0.31415
       5     H     0.45686  0.45686  0.00000  0.08628
       6     H     0.45160  0.45160  0.00000  0.09681
       7     H     0.44312  0.44312  0.00000  0.11376
       8     C     3.15966  3.15966  0.00000 -0.31932
       9     O     4.19956  4.19956  0.00000 -0.39912
      10     H     0.44521  0.44521  0.00000  0.10959
      11     H     0.42979  0.42979  0.00000  0.14043
      12     H     0.44869  0.44869  0.00000  0.10262

   Total alpha = 20.00000, Total beta = 20.00000, Total charge =  0.00000
