  ==> Input File <==

--------------------------------------------------------------------------
set {
	reference rhf
	basis 6-31G*
}

set_num_threads( 4 )
memory 2 gb

molecule MOL {
0 1

H	 0.930586	 4.202215	 1.954144
N	 0.108307	 3.636203	 1.870283
C	 0.344616	 2.512176	 0.975718
H	 -0.614589	 4.228048	 1.507004
C	 -0.876203	 1.599534	 0.926348
H	 1.192835	 1.955697	 1.362647
H	 0.608640	 2.819609	 -0.039259
C	 -0.679275	 0.379305	 0.025956
H	 -1.110360	 1.284879	 1.939264
H	 -1.734334	 2.171848	 0.575060
C	 -1.903357	 -0.536963	 -0.023547
H	 0.180022	 -0.191491	 0.374738
H	 -0.437213	 0.706815	 -0.983990
C	 -3.225172	 0.228290	 0.028445
H	 -1.867824	 -1.134999	 -0.931459
H	 -1.860449	 -1.239604	 0.805977
H	 -3.313397	 0.915643	 -0.808262
H	 -4.073500	 -0.448134	 -0.008893
H	 -3.306061	 0.809945	 0.942516

	symmetry c1
}
set optking {
	frozen_dihedral = ("
		12 8 11 15
	")
}

ee = optimize('scf')
oeprop('DIPOLE', 'QUADRUPOLE', 'MULLIKEN_CHARGES')
f=open( 'psi4out.xyz', 'w' )
f.write( "19  " )
f.write( str(ee) + "\n" )
f.write( MOL.save_string_xyz() )
f.close()
--------------------------------------------------------------------------

    Molecular point group: c1
  Charge       = 0
  Multiplicity = 1
  Basis Set: 6-31G*
  Basis Set:
  @DF-RHF Final Energy:  -251.34499700747151
    Total Energy =                       -251.3449970074715338
    Molecular point group: c1
  Basis Set: 6-31G*
  Basis Set:
  Basis Set: 6-31G*
  Basis Set:
  @DF-RHF Final Energy:  -251.34569688946593
    Total Energy =                       -251.3456968894661259
  Basis Set: 6-31G*
  Basis Set:
  Basis Set: 6-31G*
  Basis Set:
  @DF-RHF Final Energy:  -251.34713166181106
    Total Energy =                       -251.3471316618110336
  Basis Set: 6-31G*
  Basis Set:
  Basis Set: 6-31G*
  Basis Set:
  @DF-RHF Final Energy:  -251.34725684362226
    Total Energy =                       -251.3472568436220627
  Basis Set: 6-31G*
  Basis Set:
  Basis Set: 6-31G*
  Basis Set:
  @DF-RHF Final Energy:  -251.34725896400332
    Total Energy =                       -251.3472589640032879
  Basis Set: 6-31G*
  Basis Set:
  Basis Set: 6-31G*
  Basis Set:
  @DF-RHF Final Energy:  -251.34726837456083
    Total Energy =                       -251.3472683745605991
  Basis Set: 6-31G*
  Basis Set:
  Basis Set: 6-31G*
  Basis Set:
  @DF-RHF Final Energy:  -251.34727077864022
    Total Energy =                       -251.3472707786402793
  Basis Set: 6-31G*
  Basis Set:
  Charge       = 0
  Multiplicity = 1
  Basis Set: 6-31G*
  Basis Set:

    Orbital Energies (a.u.)
    -----------------------

    Doubly Occupied:

       1A    -15.532330     2A    -11.239530     3A    -11.214545
       4A    -11.213257     5A    -11.208696     6A    -11.206284
       7A     -1.176435     8A     -1.071279     9A     -0.994016
      10A     -0.903955    11A     -0.825102    12A     -0.772021
      13A     -0.665412    14A     -0.633272    15A     -0.617612
      16A     -0.602105    17A     -0.567980    18A     -0.543892
      19A     -0.521029    20A     -0.506126    21A     -0.486678
      22A     -0.455996    23A     -0.455265    24A     -0.450556
      25A     -0.380824

  @DF-RHF Final Energy:  -251.34727088220879

   => Energetics <=

    Nuclear Repulsion Energy =            249.5988222723837282
    One-Electron Energy =                -833.4037981740810892
    Two-Electron Energy =                 332.4577050194884009
    DFT Exchange-Correlation Energy =       0.0000000000000000
    Empirical Dispersion Energy =           0.0000000000000000
    PCM Polarization Energy =               0.0000000000000000
    EFP Energy =                            0.0000000000000000
    Total Energy =                       -251.3472708822089885
    Molecular point group: c1
  Basis Set: 6-31G*
  Basis Set:

  -Total Gradient:
     Atom            X                  Y                   Z
    ------   -----------------  -----------------  -----------------
       1       -0.000000842551     0.000006783121    -0.000002696810
       2       -0.000004177141     0.000015752488    -0.000015032675
       3        0.000009562897    -0.000033715615     0.000034785665
       4       -0.000002270557     0.000010190226     0.000004891429
       5        0.000003624784    -0.000017817712     0.000000744001
       6        0.000005137991    -0.000000097445    -0.000000128289
       7       -0.000005317689    -0.000002564014     0.000002964373
       8        0.000744578778    -0.000890313674    -0.007070055945
       9        0.000020997425     0.000007689729     0.000004278283
      10       -0.000007942035    -0.000001457515    -0.000002490356
      11        0.003514845303    -0.004290180876     0.004527483481
      12       -0.001197526729     0.001434953117     0.005286133791
      13        0.000007547881    -0.000006036066    -0.000012943489
      14        0.000011207064     0.000000975443    -0.000007537464
      15       -0.003100385377     0.003773518570    -0.002754007448
      16        0.000000612241    -0.000004510149     0.000002139966
      17       -0.000004701164    -0.000000600121     0.000001239848
      18        0.000006762933    -0.000003432042    -0.000003698542
      19       -0.000001714052     0.000000862538     0.000003930180

  **** Optimization is complete! (in 8 steps) ****
    Final optimized geometry and variables:
    Molecular point group: c1

    Geometry (in Angstrom), charge = 0, multiplicity = 1:

    H            2.071306023976     2.817762425005     1.337610657375
    N            1.222152420338     2.295631732744     1.238062290361
    C            1.416832591025     1.158548850967     0.349842876268
    H            0.538885970038     2.923988437466     0.859702813150
    C            0.150545216784     0.311225372344     0.277223387279
    H            2.227838302217     0.560154047005     0.753611757235
    H            1.716066874974     1.449718031476    -0.660320453895
    C            0.311646761161    -0.905595612095    -0.640829562901
    H           -0.106147260839    -0.006000558186     1.284341979773
    H           -0.668888178381     0.937177399837    -0.068489522419
    C           -0.876905625248    -1.884382340910    -0.641274804918
    H            1.191860169377    -1.444707717221    -0.297018413234
    H            0.511235511228    -0.567854436801    -1.654933868387
    C           -2.260725529995    -1.226860176012    -0.644599212057
    H           -0.815966122140    -2.491103705724    -1.541099061270
    H           -0.802572517280    -2.554523725177     0.210379460762
    H           -2.366639347152    -0.535216301122    -1.476359746574
    H           -3.036039393143    -1.980350427720    -0.744942672849
    H           -2.455940839418    -0.677901279030     0.270004830497

  Mulliken Charges: (a.u.)
   Center  Symbol    Alpha    Beta     Spin     Total
       1     H     0.33254  0.33254  0.00000  0.33491
       2     N     3.92193  3.92193  0.00000 -0.84386
       3     C     3.05991  3.05991  0.00000 -0.11982
       4     H     0.33540  0.33540  0.00000  0.32920
       5     C     3.15485  3.15485  0.00000 -0.30970
       6     H     0.42111  0.42111  0.00000  0.15778
       7     H     0.43498  0.43498  0.00000  0.13004
       8     C     3.15692  3.15692  0.00000 -0.31384
       9     H     0.41387  0.41387  0.00000  0.17226
      10     H     0.42496  0.42496  0.00000  0.15008
      11     C     3.15113  3.15113  0.00000 -0.30227
      12     H     0.42212  0.42212  0.00000  0.15575
      13     H     0.42343  0.42343  0.00000  0.15314
      14     C     3.24328  3.24328  0.00000 -0.48657
      15     H     0.42151  0.42151  0.00000  0.15697
      16     H     0.42102  0.42102  0.00000  0.15797
      17     H     0.42331  0.42331  0.00000  0.15338
      18     H     0.41970  0.41970  0.00000  0.16060
      19     H     0.41802  0.41802  0.00000  0.16396

   Total alpha = 25.00000, Total beta = 25.00000, Total charge = -0.00000
