  ==> Input File <==

--------------------------------------------------------------------------
set {
	reference rhf
	basis 6-31G*
}

set_num_threads( 1 )
memory 2 gb

molecule MOL {
0 1

O	 1.576395	 1.768323	 -0.480365
C	 0.910765	 1.502687	 -1.428780
C	 -0.395961	 0.747984	 -1.401246
O	 1.239521	 1.849479	 -2.666840
C	 -0.823008	 0.326187	 0.001381
H	 -1.146183	 1.380683	 -1.867694
H	 -0.287538	 -0.112857	 -2.055399
C	 -2.149452	 -0.435131	 -0.000098
H	 -0.903805	 1.206966	 0.630579
H	 -0.044894	 -0.288993	 0.442288
C	 -3.368779	 0.488503	 -0.000883
H	 -2.193746	 -1.087250	 -0.871175
H	 -2.195311	 -1.087803	 0.870418
C	 -4.693822	 -0.272754	 -0.001129
H	 -3.325798	 1.139422	 -0.871284
H	 -3.326423	 1.139959	 0.869145
H	 -4.781274	 -0.907928	 -0.878124
H	 -5.538651	 0.408946	 -0.001420
H	 -4.781694	 -0.907783	 0.875984
C	 2.448267	 2.567891	 -2.833489
H	 2.413345	 3.501560	 -2.290745
H	 2.537392	 2.753962	 -3.892408
H	 3.288156	 1.985028	 -2.483687

	symmetry c1
}
set optking {
	frozen_dihedral = ("
		15 11 8 12,
		1 2 3 6,
		9 5 3 6,
		1 2 4 20
	")
}

ee = energy('scf')
oeprop('DIPOLE', 'QUADRUPOLE', 'MULLIKEN_CHARGES')
f=open( 'psi4out.xyz', 'w' )
f.write( "23  " )
f.write( str(ee) + "\n" )
f.write( MOL.save_string_xyz() )
f.close()
--------------------------------------------------------------------------

    Molecular point group: c1

    Geometry (in Angstrom), charge = 0, multiplicity = 1:

       Center              X                  Y                   Z               Mass
    ------------   -----------------  -----------------  -----------------  -----------------
           O          2.131883504986     0.798555539871     0.518286165793    15.994914619560
           C          1.466253504986     0.532919539871    -0.430128834207    12.000000000000
           C          0.159527504986    -0.221783460129    -0.402594834207    12.000000000000
           O          1.795009504986     0.879711539871    -1.668188834207    15.994914619560
           C         -0.267519495014    -0.643580460129     1.000032165793    12.000000000000
           H         -0.590694495014     0.410915539871    -0.869042834207     1.007825032070
           H          0.267950504986    -1.082624460129    -1.056747834207     1.007825032070
           C         -1.593963495014    -1.404898460129     0.998553165793    12.000000000000
           H         -0.348316495014     0.237198539871     1.629230165793     1.007825032070
           H          0.510594504986    -1.258760460129     1.440939165793     1.007825032070
           C         -2.813290495014    -0.481264460129     0.997768165793    12.000000000000
           H         -1.638257495014    -2.057017460129     0.127476165793     1.007825032070
           H         -1.639822495014    -2.057570460129     1.869069165793     1.007825032070
           C         -4.138333495014    -1.242521460129     0.997522165793    12.000000000000
           H         -2.770309495014     0.169654539871     0.127367165793     1.007825032070
           H         -2.770934495014     0.170191539871     1.867796165793     1.007825032070
           H         -4.225785495014    -1.877695460129     0.120527165793     1.007825032070
           H         -4.983162495014    -0.560821460129     0.997231165793     1.007825032070
           H         -4.226205495014    -1.877550460129     1.874635165793     1.007825032070
           C          3.003755504986     1.598123539871    -1.834837834207    12.000000000000
           H          2.968833504986     2.531792539871    -1.292093834207     1.007825032070
           H          3.092880504986     1.784194539871    -2.893756834207     1.007825032070
           H          3.843644504986     1.015260539871    -1.485035834207     1.007825032070

  Charge       = 0
  Multiplicity = 1
  Basis Set: 6-31G*
  Basis Set:

    Orbital Energies (a.u.)
    -----------------------

    Doubly Occupied:

       1A    -20.603566     2A    -20.545365     3A    -11.372116
       4A    -11.280801     5A    -11.235386     6A    -11.218635
       7A    -11.218141     8A    -11.217135     9A    -11.210547
      10A     -1.469258    11A     -1.362686    12A     -1.094898
      13A     -1.042228    14A     -0.987103    15A     -0.932530
      16A     -0.847860    17A     -0.793505    18A     -0.766164
      19A     -0.701731    20A     -0.682247    21A     -0.672523
      22A     -0.631140    23A     -0.627373    24A     -0.598984
      25A     -0.575007    26A     -0.558177    27A     -0.556163
      28A     -0.528393    29A     -0.520674    30A     -0.503476
      31A     -0.493726    32A     -0.470684    33A     -0.465169
      34A     -0.457752    35A     -0.451307    36A     -0.436740

  @DF-RHF Final Energy:  -422.97359741388999

   => Energetics <=

    Nuclear Repulsion Energy =            457.1089358862903396
    One-Electron Energy =               -1481.9066438371396544
    Two-Electron Energy =                 601.8241105369604611
    DFT Exchange-Correlation Energy =       0.0000000000000000
    Empirical Dispersion Energy =           0.0000000000000000
    PCM Polarization Energy =               0.0000000000000000
    EFP Energy =                            0.0000000000000000
    Total Energy =                       -422.9735974138889105

  Mulliken Charges: (a.u.)
   Center  Symbol    Alpha    Beta     Spin     Total
       1     O     4.28592  4.28592  0.00000 -0.57185
       2     C     2.60509  2.60509  0.00000  0.78983
       3     C     3.20925  3.20925  0.00000 -0.41851
       4     O     4.30730  4.30730  0.00000 -0.61461
       5     C     3.15490  3.15490  0.00000 -0.30980
       6     H     0.39994  0.39994  0.00000  0.20012
       7     H     0.40048  0.40048  0.00000  0.19904
       8     C     3.15676  3.15676  0.00000 -0.31353
       9     H     0.41100  0.41100  0.00000  0.17800
      10     H     0.40949  0.40949  0.00000  0.18102
      11     C     3.15333  3.15333  0.00000 -0.30665
      12     H     0.42413  0.42413  0.00000  0.15175
      13     H     0.41800  0.41800  0.00000  0.16400
      14     C     3.23929  3.23929  0.00000 -0.47858
      15     H     0.42408  0.42408  0.00000  0.15185
      16     H     0.42048  0.42048  0.00000  0.15904
      17     H     0.42180  0.42180  0.00000  0.15640
      18     H     0.41879  0.41879  0.00000  0.16242
      19     H     0.42090  0.42090  0.00000  0.15820
      20     C     3.09245  3.09245  0.00000 -0.18491
      21     H     0.40906  0.40906  0.00000  0.18188
      22     H     0.40847  0.40847  0.00000  0.18306
      23     H     0.40909  0.40909  0.00000  0.18183

   Total alpha = 36.00000, Total beta = 36.00000, Total charge =  0.00000
