  ==> Input File <==

--------------------------------------------------------------------------
set {
	reference rhf
	basis cc-pvtz
}

set_num_threads( 4 )
memory 2 gb

molecule MOL {
0 1

H	 -0.685800	 1.796499	 0.133559
O	 0.057669	 1.301365	 -0.158528
C	 0.004145	 -0.005141	 0.363049
C	 1.199168	 -0.827145	 -0.096690
C	 -1.316386	 -0.602081	 -0.083515
H	 0.012026	 0.043363	 1.450619
H	 1.216685	 -0.896776	 -1.178167
H	 2.129940	 -0.372354	 0.228035
H	 1.160783	 -1.829622	 0.314294
H	 -1.357882	 -0.655920	 -1.165207
H	 -2.140147	 0.011735	 0.257253
H	 -1.440790	 -1.601175	 0.317669

	symmetry c1
}
set optking {
	frozen_dihedral = ("
		1 2 3 4
	")
}

ee = optimize('scf')
oeprop('DIPOLE', 'QUADRUPOLE', 'MULLIKEN_CHARGES')
f=open( 'psi4out.xyz', 'w' )
f.write( "12  " )
f.write( str(ee) + "\n" )
f.write( MOL.save_string_xyz() )
f.close()
--------------------------------------------------------------------------

    Molecular point group: c1
  Charge       = 0
  Multiplicity = 1
  Basis Set: CC-PVTZ
  Basis Set:
  @DF-RHF Final Energy:  -193.19412821991713
    Total Energy =                       -193.1941282199172747
    Molecular point group: c1
  Basis Set: CC-PVTZ
  Basis Set:
  Basis Set: CC-PVTZ
  Basis Set:
  @DF-RHF Final Energy:  -193.19572698982390
    Total Energy =                       -193.1957269898240099
  Basis Set: CC-PVTZ
  Basis Set:
  Basis Set: CC-PVTZ
  Basis Set:
  @DF-RHF Final Energy:  -193.19605589707768
    Total Energy =                       -193.1960558970777129
  Basis Set: CC-PVTZ
  Basis Set:
  Basis Set: CC-PVTZ
  Basis Set:
  @DF-RHF Final Energy:  -193.19606004493963
    Total Energy =                       -193.1960600449396566
  Basis Set: CC-PVTZ
  Basis Set:
  Charge       = 0
  Multiplicity = 1
  Basis Set: CC-PVTZ
  Basis Set:

    Orbital Energies (a.u.)
    -----------------------

    Doubly Occupied:

       1A    -20.544285     2A    -11.274030     3A    -11.211426
       4A    -11.205122     5A     -1.364812     6A     -1.043348
       7A     -0.940639     8A     -0.803895     9A     -0.701541
      10A     -0.628699    11A     -0.606098    12A     -0.546853
      13A     -0.535042    14A     -0.530612    15A     -0.511812
      16A     -0.469079    17A     -0.433083

  @DF-RHF Final Energy:  -193.19606055493765

   => Energetics <=

    Nuclear Repulsion Energy =            135.7554239343608913
    One-Electron Energy =                -531.2022188828680100
    Two-Electron Energy =                 202.2507343935695872
    DFT Exchange-Correlation Energy =       0.0000000000000000
    Empirical Dispersion Energy =           0.0000000000000000
    PCM Polarization Energy =               0.0000000000000000
    EFP Energy =                            0.0000000000000000
    Total Energy =                       -193.1960605549375032
    Molecular point group: c1
  Basis Set: CC-PVTZ
  Basis Set:

  -Total Gradient:
     Atom            X                  Y                   Z
    ------   -----------------  -----------------  -----------------
       1       -0.000074856018    -0.000058476671    -0.000130118992
       2        0.000086436558     0.000058495375     0.000127638670
       3        0.000033521086     0.000057496064     0.000044695582
       4       -0.000064970173    -0.000041672864    -0.000055062240
       5        0.000001930781     0.000002668609     0.000006636375
       6       -0.000002246264    -0.000019064508    -0.000018199809
       7       -0.000009823267     0.000005398945    -0.000002453335
       8       -0.000008731266     0.000007545383     0.000011390032
       9        0.000005853814    -0.000007068738    -0.000008837473
      10        0.000011425949     0.000015518622     0.000014332192
      11        0.000019410994    -0.000004067353    -0.000002423602
      12        0.000002047806    -0.000016772862     0.000012402600

  **** Optimization is complete! (in 5 steps) ****
    Final optimized geometry and variables:
    Molecular point group: c1

    Geometry (in Angstrom), charge = 0, multiplicity = 1:

    H           -0.575498964003     1.832138663744     0.108960670587
    O            0.149698501964     1.294850442568    -0.153053416546
    C           -0.000511848689    -0.005997298701     0.363392967978
    C            1.202051791693    -0.804231617728    -0.101463270047
    C           -1.316626907626    -0.624367105973    -0.084261968982
    H            0.011815513124     0.037419900865     1.451125195029
    H            1.220727927934    -0.859816462004    -1.183690369847
    H            2.117356607324    -0.330824490172     0.229646780359
    H            1.170752732235    -1.811849578064     0.296473804755
    H           -1.357949490707    -0.684320835940    -1.165676641030
    H           -2.159148817532    -0.029080966313     0.254115592673
    H           -1.433558596582    -1.622393336422     0.322654544963

  Mulliken Charges: (a.u.)
   Center  Symbol    Alpha    Beta     Spin     Total
       1     H     0.39601  0.39601  0.00000  0.20798
       2     O     4.20435  4.20435  0.00000 -0.40871
       3     C     2.92162  2.92162  0.00000  0.15676
       4     C     3.14228  3.14228  0.00000 -0.28457
       5     C     3.14588  3.14588  0.00000 -0.29176
       6     H     0.46660  0.46660  0.00000  0.06680
       7     H     0.45292  0.45292  0.00000  0.09417
       8     H     0.44639  0.44639  0.00000  0.10721
       9     H     0.45890  0.45890  0.00000  0.08221
      10     H     0.45082  0.45082  0.00000  0.09835
      11     H     0.45815  0.45815  0.00000  0.08370
      12     H     0.45607  0.45607  0.00000  0.08786

   Total alpha = 17.00000, Total beta = 17.00000, Total charge =  0.00000
