  ==> Input File <==

--------------------------------------------------------------------------
set {
	reference rhf
	basis 6-31G*
}

set_num_threads( 1 )
memory 2 gb

molecule MOL {
0 1

H	 3.276176	 0.174363	 -0.109463
N	 2.434251	 -0.367735	 -0.081097
C	 1.267428	 0.496480	 0.024474
H	 2.501951	 -0.965776	 0.720575
C	 -0.016086	 -0.325158	 -0.029487
H	 1.288818	 1.183521	 -0.816092
H	 1.267576	 1.109062	 0.929528
C	 -1.282277	 0.529072	 0.046735
H	 -0.012495	 -0.908639	 -0.945788
H	 -0.015903	 -1.041248	 0.791956
C	 -1.853162	 0.620809	 1.461435
H	 -2.036884	 0.115029	 -0.618940
H	 -1.068399	 1.530809	 -0.320330
H	 -2.110322	 -0.362635	 1.844093
H	 -2.751031	 1.230566	 1.484884
H	 -1.134778	 1.063195	 2.145861

	symmetry c1
}
set optking {
	frozen_dihedral = ("
		6 3 5 9,
		1 2 3 6
	")
}

ee = energy('scf')
oeprop('DIPOLE', 'QUADRUPOLE', 'MULLIKEN_CHARGES')
f=open( 'psi4out.xyz', 'w' )
f.write( "16  " )
f.write( str(ee) + "\n" )
f.write( MOL.save_string_xyz() )
f.close()
--------------------------------------------------------------------------

    Molecular point group: c1

    Geometry (in Angstrom), charge = 0, multiplicity = 1:

       Center              X                  Y                   Z               Mass
    ------------   -----------------  -----------------  -----------------  -----------------
           H          3.130103445928    -0.015237526696    -0.411129085011     1.007825032070
           N          2.288178445928    -0.557335526696    -0.382763085011    14.003074004780
           C          1.121355445928     0.306879473304    -0.277192085011    12.000000000000
           H          2.355878445928    -1.155376526696     0.418908914989     1.007825032070
           C         -0.162158554072    -0.514758526696    -0.331153085011    12.000000000000
           H          1.142745445928     0.993920473304    -1.117758085011     1.007825032070
           H          1.121503445928     0.919461473304     0.627861914989     1.007825032070
           C         -1.428349554072     0.339471473304    -0.254931085011    12.000000000000
           H         -0.158567554072    -1.098239526696    -1.247454085011     1.007825032070
           H         -0.161975554072    -1.230848526696     0.490289914989     1.007825032070
           C         -1.999234554072     0.431208473304     1.159768914989    12.000000000000
           H         -2.182956554072    -0.074571526696    -0.920606085011     1.007825032070
           H         -1.214471554072     1.341208473304    -0.621996085011     1.007825032070
           H         -2.256394554072    -0.552235526696     1.542426914989     1.007825032070
           H         -2.897103554072     1.040965473304     1.183217914989     1.007825032070
           H         -1.280850554072     0.873594473304     1.844194914989     1.007825032070

  Charge       = 0
  Multiplicity = 1
  Basis Set: 6-31G*
  Basis Set:

    Orbital Energies (a.u.)
    -----------------------

    Doubly Occupied:

       1A    -15.532588     2A    -11.240233     3A    -11.214165
       4A    -11.208687     5A    -11.208506     6A     -1.176811
       7A     -1.060205     8A     -0.956548     9A     -0.850618
      10A     -0.787744    11A     -0.658828    12A     -0.636890
      13A     -0.612398    14A     -0.577692    15A     -0.562031
      16A     -0.527132    17A     -0.503265    18A     -0.470234
      19A     -0.460568    20A     -0.460241    21A     -0.380914

  @DF-RHF Final Energy:  -212.31302857886584

   => Energetics <=

    Nuclear Repulsion Energy =            188.0067355162668150
    One-Electron Energy =                -658.4669585402010625
    Two-Electron Energy =                 258.1471944450685214
    DFT Exchange-Correlation Energy =       0.0000000000000000
    Empirical Dispersion Energy =           0.0000000000000000
    PCM Polarization Energy =               0.0000000000000000
    EFP Energy =                            0.0000000000000000
    Total Energy =                       -212.3130285788657261

  Mulliken Charges: (a.u.)
   Center  Symbol    Alpha    Beta     Spin     Total
       1     H     0.33256  0.33256  0.00000  0.33488
       2     N     3.92171  3.92171  0.00000 -0.84342
       3     C     3.06234  3.06234  0.00000 -0.12467
       4     H     0.33527  0.33527  0.00000  0.32947
       5     C     3.15321  3.15321  0.00000 -0.30642
       6     H     0.42033  0.42033  0.00000  0.15934
       7     H     0.43453  0.43453  0.00000  0.13094
       8     C     3.15862  3.15862  0.00000 -0.31725
       9     H     0.41100  0.41100  0.00000  0.17801
      10     H     0.42620  0.42620  0.00000  0.14760
      11     C     3.23979  3.23979  0.00000 -0.47958
      12     H     0.41865  0.41865  0.00000  0.16270
      13     H     0.42196  0.42196  0.00000  0.15608
      14     H     0.42116  0.42116  0.00000  0.15767
      15     H     0.41991  0.41991  0.00000  0.16018
      16     H     0.42277  0.42277  0.00000  0.15446

   Total alpha = 21.00000, Total beta = 21.00000, Total charge = -0.00000
