  ==> Input File <==

--------------------------------------------------------------------------
set {
	reference rhf
	basis 6-31G*
}

set_num_threads( 4 )
memory 2 gb

molecule MOL {
0 1

O	 3.225979	 0.970355	 -0.599647
C	 2.701189	 0.057885	 -0.047330
C	 1.245376	 -0.013843	 0.345420
O	 3.347903	 -1.046386	 0.304773
C	 0.455112	 1.231400	 -0.050772
H	 0.838542	 -0.913825	 -0.103701
H	 1.208210	 -0.175333	 1.419774
C	 -0.998893	 1.219485	 0.433193
H	 0.482531	 1.345121	 -1.130325
H	 0.957290	 2.103070	 0.354729
C	 -1.797369	 2.485364	 0.109005
H	 -0.993770	 1.078687	 1.511559
H	 -1.511908	 0.352912	 0.018611
C	 -3.205473	 2.470140	 0.707344
H	 -1.257490	 3.354225	 0.482406
H	 -1.875074	 2.613732	 -0.968239
C	 -4.014469	 3.727927	 0.385425
H	 -3.136052	 2.355290	 1.787726
H	 -3.742232	 1.595700	 0.342729
C	 -5.418027	 3.706475	 0.989795
H	 -3.479044	 4.602772	 0.748204
H	 -4.088661	 3.842061	 -0.694042
H	 -5.966350	 4.610716	 0.744239
H	 -5.377436	 3.628165	 2.072577
H	 -5.991445	 2.861226	 0.619634
C	 4.728119	 -1.109107	 -0.004993
H	 4.882018	 -1.033965	 -1.071845
H	 5.068212	 -2.067527	 0.355250
H	 5.265056	 -0.311663	 0.488280

	symmetry c1
}
set optking {
	frozen_dihedral = ("
		11 8 5 9
	")
}

ee = optimize('scf')
oeprop('DIPOLE', 'QUADRUPOLE', 'MULLIKEN_CHARGES')
f=open( 'psi4out.xyz', 'w' )
f.write( "29  " )
f.write( str(ee) + "\n" )
f.write( MOL.save_string_xyz() )
f.close()
--------------------------------------------------------------------------

    Molecular point group: c1
  Charge       = 0
  Multiplicity = 1
  Basis Set: 6-31G*
  Basis Set:
  @DF-RHF Final Energy:  -501.04515521249607
    Total Energy =                       -501.0451552124957288
    Molecular point group: c1
  Basis Set: 6-31G*
  Basis Set:
  Basis Set: 6-31G*
  Basis Set:
  @DF-RHF Final Energy:  -501.04564221773603
    Total Energy =                       -501.0456422177360309
  Basis Set: 6-31G*
  Basis Set:
  Basis Set: 6-31G*
  Basis Set:
  @DF-RHF Final Energy:  -501.04566532763863
    Total Energy =                       -501.0456653276391989
  Basis Set: 6-31G*
  Basis Set:
  Basis Set: 6-31G*
  Basis Set:
  @DF-RHF Final Energy:  -501.04563457832296
    Total Energy =                       -501.0456345783228471
  Basis Set: 6-31G*
  Basis Set:
  Basis Set: 6-31G*
  Basis Set:
  @DF-RHF Final Energy:  -501.04567927250980
    Total Energy =                       -501.0456792725099149
  Basis Set: 6-31G*
  Basis Set:
  Basis Set: 6-31G*
  Basis Set:
  @DF-RHF Final Energy:  -501.04568351133923
    Total Energy =                       -501.0456835113401439
  Basis Set: 6-31G*
  Basis Set:
  Basis Set: 6-31G*
  Basis Set:
  @DF-RHF Final Energy:  -501.04568530390350
    Total Energy =                       -501.0456853039029284
  Basis Set: 6-31G*
  Basis Set:
  Charge       = 0
  Multiplicity = 1
  Basis Set: 6-31G*
  Basis Set:

    Orbital Energies (a.u.)
    -----------------------

    Doubly Occupied:

       1A    -20.603475     2A    -20.545267     3A    -11.372081
       4A    -11.280736     5A    -11.235281     6A    -11.218997
       7A    -11.217509     8A    -11.214497     9A    -11.214102
      10A    -11.213096    11A    -11.208074    12A     -1.469155
      13A     -1.362602    14A     -1.097312    15A     -1.067138
      16A     -1.020330    17A     -0.977447    18A     -0.926918
      19A     -0.855452    20A     -0.801198    21A     -0.790013
      22A     -0.766663    23A     -0.696558    24A     -0.683806
      25A     -0.671386    26A     -0.657858    27A     -0.630410
      28A     -0.597623    29A     -0.591173    30A     -0.584187
      31A     -0.566309    32A     -0.550361    33A     -0.529981
      34A     -0.520577    35A     -0.518553    36A     -0.514595
      37A     -0.489537    38A     -0.481137    39A     -0.469381
      40A     -0.461588    41A     -0.461375    42A     -0.455475
      43A     -0.446624    44A     -0.431065

  @DF-RHF Final Energy:  -501.04568535119984

   => Energetics <=

    Nuclear Repulsion Energy =            601.8797228125024503
    One-Electron Energy =               -1874.9170124295130790
    Two-Electron Energy =                 771.9916042658113611
    DFT Exchange-Correlation Energy =       0.0000000000000000
    Empirical Dispersion Energy =           0.0000000000000000
    PCM Polarization Energy =               0.0000000000000000
    EFP Energy =                            0.0000000000000000
    Total Energy =                       -501.0456853511992676
    Molecular point group: c1
  Basis Set: 6-31G*
  Basis Set:

  -Total Gradient:
     Atom            X                  Y                   Z
    ------   -----------------  -----------------  -----------------
       1       -0.000002364293    -0.000002074703     0.000001471111
       2        0.000003834035     0.000000536215     0.000024795638
       3        0.000005660081    -0.000010305200    -0.000020687154
       4        0.000011209598    -0.000010148359    -0.000016608691
       5        0.000021462873     0.000489615805     0.000130919118
       6       -0.000002061743     0.000007998973     0.000011336423
       7        0.000011745428     0.000004504687     0.000006269699
       8       -0.000094364928    -0.000237636042    -0.000314243964
       9       -0.000004380819    -0.000346890094    -0.000041023909
      10       -0.000008805782    -0.000013888862    -0.000002732975
      11        0.000066065483     0.000109823645     0.000235505256
      12        0.000002664383    -0.000003446695     0.000000380042
      13        0.000004110457     0.000003662343     0.000001160714
      14        0.000002834778     0.000013526262    -0.000009491657
      15       -0.000003833213     0.000001298715    -0.000003073977
      16        0.000000014357    -0.000003252305     0.000002334571
      17       -0.000013302279    -0.000008671249    -0.000009181814
      18       -0.000003171784    -0.000007381525    -0.000001704079
      19        0.000003995031     0.000004374439    -0.000007949551
      20        0.000001569679     0.000015634617     0.000014528412
      21       -0.000000124785     0.000000380647    -0.000007056008
      22       -0.000003436544    -0.000005951501    -0.000001319299
      23       -0.000002208390     0.000002842565     0.000006908835
      24       -0.000003634623    -0.000005413027     0.000001729197
      25        0.000003463650     0.000004025245    -0.000005235202
      26        0.000001285727    -0.000002218684     0.000003821494
      27        0.000000221766    -0.000000170193    -0.000000194271
      28        0.000001210390    -0.000000473186    -0.000000433740
      29        0.000000341460    -0.000000302530    -0.000000224217

  **** Optimization is complete! (in 8 steps) ****
    Final optimized geometry and variables:
    Molecular point group: c1

    Geometry (in Angstrom), charge = 0, multiplicity = 1:

    O            3.128297295318    -0.294354249035    -0.929818419880
    C            2.625870043004    -1.167579451276    -0.298842566743
    C            1.201380977697    -1.183482158681     0.199653604568
    O            3.272348014314    -2.270347624345     0.057874861179
    C            0.408537165021     0.060790132337    -0.189474602474
    H            0.732666630741    -2.085310937603    -0.184641505064
    H            1.236931344621    -1.306086328934     1.278769902461
    C           -1.031879310684     0.013814026212     0.322976380891
    H            0.412255433297     0.161423798279    -1.270294212658
    H            0.911111371378     0.941011692877     0.198763025544
    C           -1.830230473357     1.271629614796    -0.024311536168
    H           -1.028533502756    -0.120683082211     1.403584511652
    H           -1.535745451243    -0.858525765740    -0.090163532504
    C           -3.273876400958     1.229105689057     0.479468237887
    H           -1.328000356066     2.141643316434     0.394659494382
    H           -1.829506432829     1.410796173773    -1.103896274326
    C           -4.072408685850     2.487843689909     0.135685414177
    H           -3.274871952040     1.088011546543     1.559184541362
    H           -3.776965304023     0.359756568371     0.059014324778
    C           -5.512776965476     2.439444519797     0.644315074943
    H           -3.571048011027     3.357616649557     0.554846925587
    H           -4.075410996554     2.628591985381    -0.943083757081
    H           -6.052208989217     3.345565263993     0.386251316330
    H           -5.543658598757     2.332752451949     1.725048780377
    H           -6.052260584095     1.599879330934     0.214895301912
    C            4.624493593821    -2.382130394472    -0.347299402154
    H            4.701465097474    -2.359834973629    -1.424842475198
    H            4.968921527705    -3.331351108371     0.032607227542
    H            5.213415399464    -1.576772738341     0.067546025344

  Mulliken Charges: (a.u.)
   Center  Symbol    Alpha    Beta     Spin     Total
       1     O     4.28612  4.28612  0.00000 -0.57223
       2     C     2.60470  2.60470  0.00000  0.79059
       3     C     3.20838  3.20838  0.00000 -0.41676
       4     O     4.30747  4.30747  0.00000 -0.61494
       5     C     3.15230  3.15230  0.00000 -0.30459
       6     H     0.40071  0.40071  0.00000  0.19858
       7     H     0.40069  0.40069  0.00000  0.19863
       8     C     3.15446  3.15446  0.00000 -0.30892
       9     H     0.41174  0.41174  0.00000  0.17651
      10     H     0.41173  0.41173  0.00000  0.17654
      11     C     3.15195  3.15195  0.00000 -0.30389
      12     H     0.42391  0.42391  0.00000  0.15217
      13     H     0.42359  0.42359  0.00000  0.15282
      14     C     3.15076  3.15076  0.00000 -0.30152
      15     H     0.42218  0.42218  0.00000  0.15564
      16     H     0.42214  0.42214  0.00000  0.15572
      17     C     3.15150  3.15150  0.00000 -0.30300
      18     H     0.42433  0.42433  0.00000  0.15135
      19     H     0.42428  0.42428  0.00000  0.15145
      20     C     3.23929  3.23929  0.00000 -0.47858
      21     H     0.42277  0.42277  0.00000  0.15445
      22     H     0.42273  0.42273  0.00000  0.15453
      23     H     0.41924  0.41924  0.00000  0.16151
      24     H     0.42198  0.42198  0.00000  0.15603
      25     H     0.42197  0.42197  0.00000  0.15605
      26     C     3.09243  3.09243  0.00000 -0.18485
      27     H     0.40909  0.40909  0.00000  0.18182
      28     H     0.40845  0.40845  0.00000  0.18309
      29     H     0.40911  0.40911  0.00000  0.18179

   Total alpha = 44.00000, Total beta = 44.00000, Total charge = -0.00000
