  ==> Input File <==

--------------------------------------------------------------------------
set {
	reference rhf
	basis 6-31G*
}

set_num_threads( 4 )
memory 2 gb

molecule MOL {
0 1

H	 -0.105673	 -0.556577	 -2.619728
C	 -0.690447	 0.209150	 -2.118866
O	 -0.774054	 0.001095	 -0.743181
H	 -1.702424	 0.165443	 -2.498763
H	 -0.275539	 1.181490	 -2.367057
C	 0.406953	 0.000033	 0.038965
C	 1.527284	 -0.003667	 -0.998752
C	 0.498933	 1.262172	 0.902524
C	 0.494271	 -1.259566	 0.906664
H	 1.452513	 0.873252	 -1.631882
H	 1.448863	 -0.881882	 -1.629595
H	 2.502020	 -0.005104	 -0.521731
H	 0.364280	 2.147110	 0.289513
H	 1.472180	 1.321775	 1.378800
H	 -0.247853	 1.275162	 1.689097
H	 0.356778	 -2.146106	 0.296587
H	 1.467182	 -1.320941	 1.383330
H	 -0.252763	 -1.267328	 1.693119

	symmetry c1
}
set optking {
	frozen_dihedral = ("
		2 3 6 7
	")
}

ee = optimize('scf')
oeprop('DIPOLE', 'QUADRUPOLE', 'MULLIKEN_CHARGES')
f=open( 'psi4out.xyz', 'w' )
f.write( "18  " )
f.write( str(ee) + "\n" )
f.write( MOL.save_string_xyz() )
f.close()
--------------------------------------------------------------------------

    Molecular point group: c1
  Charge       = 0
  Multiplicity = 1
  Basis Set: 6-31G*
  Basis Set:
  @DF-RHF Final Energy:  -271.15497926319028
    Total Energy =                       -271.1549792631903415
    Molecular point group: c1
  Basis Set: 6-31G*
  Basis Set:
  Basis Set: 6-31G*
  Basis Set:
  @DF-RHF Final Energy:  -271.16159971938612
    Total Energy =                       -271.1615997193862313
  Basis Set: 6-31G*
  Basis Set:
  Basis Set: 6-31G*
  Basis Set:
  @DF-RHF Final Energy:  -271.16789510272059
    Total Energy =                       -271.1678951027206494
  Basis Set: 6-31G*
  Basis Set:
  Basis Set: 6-31G*
  Basis Set:
  @DF-RHF Final Energy:  -271.17081003291042
    Total Energy =                       -271.1708100329104809
  Basis Set: 6-31G*
  Basis Set:
  @DF-RHF Final Energy:  -271.17129503465412
    Total Energy =                       -271.1712950346542925
  Basis Set: 6-31G*
  Basis Set:
  @DF-RHF Final Energy:  -271.17127141075059
    Total Energy =                       -271.1712714107502507
  Basis Set: 6-31G*
  Basis Set:
  Basis Set: 6-31G*
  Basis Set:
  @DF-RHF Final Energy:  -271.17145686317269
    Total Energy =                       -271.1714568631728639
  Basis Set: 6-31G*
  Basis Set:
  Basis Set: 6-31G*
  Basis Set:
  @DF-RHF Final Energy:  -271.17146174430866
    Total Energy =                       -271.1714617443087718
  Basis Set: 6-31G*
  Basis Set:
  Charge       = 0
  Multiplicity = 1
  Basis Set: 6-31G*
  Basis Set:

    Orbital Energies (a.u.)
    -----------------------

    Doubly Occupied:

       1A    -20.543641     2A    -11.281784     3A    -11.262183
       4A    -11.213779     5A    -11.203497     6A    -11.203367
       7A     -1.366242     8A     -1.073972     9A     -0.950806
      10A     -0.934359    11A     -0.911647    12A     -0.751241
      13A     -0.656377    14A     -0.645920    15A     -0.636616
      16A     -0.582236    17A     -0.576873    18A     -0.548286
      19A     -0.542070    20A     -0.525919    21A     -0.514855
      22A     -0.490435    23A     -0.482666    24A     -0.441659
      25A     -0.395926

  @DF-RHF Final Energy:  -271.17146174811796

   => Energetics <=

    Nuclear Repulsion Energy =            271.7190755160490880
    One-Electron Energy =                -906.3083627125860176
    Two-Electron Energy =                 363.4178254484190802
    DFT Exchange-Correlation Energy =       0.0000000000000000
    Empirical Dispersion Energy =           0.0000000000000000
    PCM Polarization Energy =               0.0000000000000000
    EFP Energy =                            0.0000000000000000
    Total Energy =                       -271.1714617481178493
    Molecular point group: c1
  Basis Set: 6-31G*
  Basis Set:

  -Total Gradient:
     Atom            X                  Y                   Z
    ------   -----------------  -----------------  -----------------
       1        0.000009308728    -0.000006676127    -0.000007597254
       2        0.000162282938    -0.001857849178    -0.000230015280
       3       -0.000249675404     0.003553740383     0.000486048897
       4        0.000002151512    -0.000001847355     0.000009092047
       5       -0.000002292381    -0.000000039126    -0.000006806479
       6       -0.000002216985    -0.003280865974    -0.000334216792
       7        0.000062614251     0.001587747479     0.000084260359
       8        0.000017772536    -0.000007369253    -0.000015135085
       9       -0.000025200034     0.000018958561     0.000008834727
      10       -0.000001675565    -0.000004566230     0.000011147285
      11        0.000000867183    -0.000025448051     0.000008536498
      12       -0.000000959502     0.000014780293    -0.000020377001
      13       -0.000023625068     0.000023083451     0.000018166851
      14        0.000037535904     0.000022068582    -0.000022958925
      15        0.000025144592    -0.000052377549    -0.000005759282
      16        0.000023316261     0.000050948530    -0.000019627012
      17       -0.000011839695     0.000016874391     0.000035768666
      18       -0.000023509272    -0.000051162826     0.000000637782

  **** Optimization is complete! (in 9 steps) ****
    Final optimized geometry and variables:
    Molecular point group: c1

    Geometry (in Angstrom), charge = 0, multiplicity = 1:

    H           -0.597424061430    -0.605319245971    -2.280432847471
    C           -1.106400022662     0.165933138958    -1.710539508779
    O           -1.015914517337    -0.034241599102    -0.335741470320
    H           -2.159982470869     0.127799753332    -1.953946708401
    H           -0.722892776005     1.135352782556    -2.018559720885
    C            0.235916048970    -0.035260452444     0.340565391548
    C            1.451531858209    -0.042739855728    -0.591421495433
    C            0.262264072221     1.222689318535     1.211525070068
    C            0.233593352152    -1.291702694314     1.209289833196
    H            1.489551948501     0.839079765165    -1.220704238554
    H            1.467998169264    -0.921066170665    -1.227480799726
    H            2.355834602972    -0.055711461220     0.007199270840
    H            0.219937192760     2.113671925264     0.592673120676
    H            1.164186406351     1.269916322541     1.814496777607
    H           -0.596317332866     1.233836346344     1.873266189180
    H            0.206040109494    -2.180421375690     0.587456294679
    H            1.117495192765    -1.338283422650     1.838211888640
    H           -0.643653381317    -1.300686902297     1.846054761810

  Mulliken Charges: (a.u.)
   Center  Symbol    Alpha    Beta     Spin     Total
       1     H     0.42977  0.42977  0.00000  0.14045
       2     C     3.07495  3.07495  0.00000 -0.14990
       3     O     4.32556  4.32556  0.00000 -0.65111
       4     H     0.41246  0.41246  0.00000  0.17509
       5     H     0.43154  0.43154  0.00000  0.13691
       6     C     2.83926  2.83926  0.00000  0.32148
       7     C     3.25828  3.25828  0.00000 -0.51657
       8     C     3.23209  3.23209  0.00000 -0.46418
       9     C     3.23144  3.23144  0.00000 -0.46288
      10     H     0.41612  0.41612  0.00000  0.16776
      11     H     0.41529  0.41529  0.00000  0.16943
      12     H     0.41421  0.41421  0.00000  0.17159
      13     H     0.42101  0.42101  0.00000  0.15797
      14     H     0.42610  0.42610  0.00000  0.14779
      15     H     0.41363  0.41363  0.00000  0.17275
      16     H     0.41931  0.41931  0.00000  0.16137
      17     H     0.42600  0.42600  0.00000  0.14799
      18     H     0.41298  0.41298  0.00000  0.17405

   Total alpha = 25.00000, Total beta = 25.00000, Total charge =  0.00000
