  ==> Input File <==

--------------------------------------------------------------------------
set {
	reference rhf
	basis 6-31G*
}

set_num_threads( 1 )
memory 2 gb

molecule MOL {
0 1

H	 -3.135461	 -1.215070	 0.001379
O	 -2.310168	 -0.871793	 -0.309793
C	 -2.026376	 0.340750	 0.341611
C	 -0.673256	 0.843270	 -0.132153
H	 -2.792215	 1.080697	 0.115987
H	 -2.013526	 0.200402	 1.421792
C	 0.486613	 -0.083066	 0.235839
H	 -0.715586	 0.970948	 -1.210718
H	 -0.508072	 1.829858	 0.297090
C	 1.385394	 0.493553	 1.331064
H	 1.076884	 -0.283884	 -0.652286
H	 0.088581	 -1.041695	 0.566657
C	 2.541110	 -0.434726	 1.702938
H	 1.784277	 1.450672	 1.001622
H	 0.789927	 0.700692	 2.218169
H	 3.175341	 -0.632991	 0.843675
H	 3.162441	 0.000751	 2.479631
H	 2.174689	 -1.389751	 2.069237

	symmetry c1
}
set optking {
	frozen_dihedral = ("
		14 10 7 11,
		2 3 4 8,
		1 2 3 4
	")
}

ee = energy('scf')
oeprop('DIPOLE', 'QUADRUPOLE', 'MULLIKEN_CHARGES')
f=open( 'psi4out.xyz', 'w' )
f.write( "18  " )
f.write( str(ee) + "\n" )
f.write( MOL.save_string_xyz() )
f.close()
--------------------------------------------------------------------------

    Molecular point group: c1

    Geometry (in Angstrom), charge = 0, multiplicity = 1:

       Center              X                  Y                   Z               Mass
    ------------   -----------------  -----------------  -----------------  -----------------
           H         -2.984730378284    -1.233878507351    -0.521051991328     1.007825032070
           O         -2.159437378284    -0.890601507351    -0.832223991328    15.994914619560
           C         -1.875645378284     0.321941492649    -0.180819991328    12.000000000000
           C         -0.522525378284     0.824461492649    -0.654583991328    12.000000000000
           H         -2.641484378284     1.061888492649    -0.406443991328     1.007825032070
           H         -1.862795378284     0.181593492649     0.899361008672     1.007825032070
           C          0.637343621716    -0.101874507351    -0.286591991328    12.000000000000
           H         -0.564855378284     0.952139492649    -1.733148991328     1.007825032070
           H         -0.357341378284     1.811049492649    -0.225340991328     1.007825032070
           C          1.536124621716     0.474744492649     0.808633008672    12.000000000000
           H          1.227614621716    -0.302692507351    -1.174716991328     1.007825032070
           H          0.239311621716    -1.060503507351     0.044226008672     1.007825032070
           C          2.691840621716    -0.453534507351     1.180507008672    12.000000000000
           H          1.935007621716     1.431863492649     0.479191008672     1.007825032070
           H          0.940657621716     0.681883492649     1.695738008672     1.007825032070
           H          3.326071621716    -0.651799507351     0.321244008672     1.007825032070
           H          3.313171621716    -0.018057507351     1.957200008672     1.007825032070
           H          2.325419621716    -1.408559507351     1.546806008672     1.007825032070

  Charge       = 0
  Multiplicity = 1
  Basis Set: 6-31G*
  Basis Set:

    Orbital Energies (a.u.)
    -----------------------

    Doubly Occupied:

       1A    -20.553336     2A    -11.268175     3A    -11.211979
       4A    -11.210621     5A    -11.205168     6A    -11.204997
       7A     -1.360078     8A     -1.075687     9A     -1.008005
      10A     -0.913043    11A     -0.823077    12A     -0.780348
      13A     -0.702063    14A     -0.651732    15A     -0.618047
      16A     -0.580408    17A     -0.569847    18A     -0.557981
      19A     -0.525649    20A     -0.505907    21A     -0.484264
      22A     -0.468253    23A     -0.453980    24A     -0.448895
      25A     -0.428244

  @DF-RHF Final Energy:  -271.17499645807038

   => Energetics <=

    Nuclear Repulsion Energy =            250.5567493592766084
    One-Electron Energy =                -864.2439938332208840
    Two-Electron Energy =                 342.5122480158743770
    DFT Exchange-Correlation Energy =       0.0000000000000000
    Empirical Dispersion Energy =           0.0000000000000000
    PCM Polarization Energy =               0.0000000000000000
    EFP Energy =                            0.0000000000000000
    Total Energy =                       -271.1749964580698702

  Mulliken Charges: (a.u.)
   Center  Symbol    Alpha    Beta     Spin     Total
       1     H     0.28064  0.28064  0.00000  0.43873
       2     O     4.36906  4.36906  0.00000 -0.73812
       3     C     2.99981  2.99981  0.00000  0.00039
       4     C     3.16204  3.16204  0.00000 -0.32409
       5     H     0.42949  0.42949  0.00000  0.14101
       6     H     0.43301  0.43301  0.00000  0.13397
       7     C     3.15469  3.15469  0.00000 -0.30938
       8     H     0.41259  0.41259  0.00000  0.17483
       9     H     0.42166  0.42166  0.00000  0.15668
      10     C     3.15442  3.15442  0.00000 -0.30884
      11     H     0.41968  0.41968  0.00000  0.16064
      12     H     0.41030  0.41030  0.00000  0.17941
      13     C     3.23919  3.23919  0.00000 -0.47838
      14     H     0.42399  0.42399  0.00000  0.15202
      15     H     0.42566  0.42566  0.00000  0.14868
      16     H     0.42143  0.42143  0.00000  0.15715
      17     H     0.42069  0.42069  0.00000  0.15861
      18     H     0.42166  0.42166  0.00000  0.15669

   Total alpha = 25.00000, Total beta = 25.00000, Total charge = -0.00000
