                              Psi4 1.0.54 Driver

  ==> Input File <==

--------------------------------------------------------------------------
set {
	reference rhf
	basis cc-pvtz
}

set_num_threads( 4 )
memory 2 gb

molecule MOL {
0 1

H	 2.544187	 -0.310944	 -0.656047
O	 1.675515	 -0.612943	 -0.465627
C	 1.135873	 0.113391	 0.608264
C	 0.027642	 1.012027	 0.090274
H	 1.902972	 0.727968	 1.072615
H	 0.756163	 -0.561896	 1.370018
C	 -1.138737	 0.285728	 -0.581921
H	 0.464661	 1.708096	 -0.618252
H	 -0.340737	 1.603071	 0.925246
C	 -1.933983	 -0.631436	 0.343653
H	 -0.763151	 -0.285569	 -1.422081
H	 -1.808359	 1.035291	 -0.992333
H	 -2.789188	 -1.049673	 -0.174718
H	 -1.335629	 -1.461368	 0.700418
H	 -2.305435	 -0.092167	 1.209725

	symmetry c1
}
set optking {
	frozen_dihedral = ("
		1 2 3 4
	")
}

ee,wfn = optimize('scf', return_wfn=True)
oeprop( wfn, 'DIPOLE', 'QUADRUPOLE', 'MULLIKEN_CHARGES')
f=open( 'psi4out.xyz', 'w' )
f.write( "15  " )
f.write( str(ee) + "\n" )
f.write( MOL.save_string_xyz() )
f.close()
--------------------------------------------------------------------------

    Molecular point group: c1
  Charge       = 0
  Multiplicity = 1
  Basis Set: CC-PVTZ
  Basis Set:
  @DF-RHF Final Energy:  -232.23522137016903
    Total Energy =                       -232.2352213701691426
    Molecular point group: c1
  Basis Set: CC-PVTZ
  Basis Set:
  Basis Set: CC-PVTZ
  Basis Set:
  @DF-RHF Final Energy:  -232.21415838438153
    Total Energy =                       -232.2141583843815624
  Basis Set: CC-PVTZ
  Basis Set:
  Basis Set: CC-PVTZ
  Basis Set:
  @DF-RHF Final Energy:  -232.23559546898775
    Total Energy =                       -232.2355954689876967
  Basis Set: CC-PVTZ
  Basis Set:
  Basis Set: CC-PVTZ
  Basis Set:
  @DF-RHF Final Energy:  -232.23591123473079
    Total Energy =                       -232.2359112347307359
  Basis Set: CC-PVTZ
  Basis Set:
  Basis Set: CC-PVTZ
  Basis Set:
  @DF-RHF Final Energy:  -232.23591592560661
    Total Energy =                       -232.2359159256065482
  Basis Set: CC-PVTZ
  Basis Set:
  Charge       = 0
  Multiplicity = 1
  Basis Set: CC-PVTZ
  Basis Set:

    Orbital Energies (a.u.)
    -----------------------

    Doubly Occupied:

       1A    -20.545384     2A    -11.265757     3A    -11.211176
       4A    -11.207762     5A    -11.202306     6A     -1.362801
       7A     -1.065235     8A     -0.970707     9A     -0.871770
      10A     -0.781385    11A     -0.698703    12A     -0.643151
      13A     -0.618736    14A     -0.575865    15A     -0.562770
      16A     -0.534094    17A     -0.508673    18A     -0.484836
      19A     -0.468010    20A     -0.452961    21A     -0.427887

  @DF-RHF Final Energy:  -232.23591607578510

   => Energetics <=

    Nuclear Repulsion Energy =            191.5406760448768182
    One-Electron Energy =                -694.6332471576389480
    Two-Electron Energy =                 270.8566550369771448
    DFT Exchange-Correlation Energy =       0.0000000000000000
    Empirical Dispersion Energy =           0.0000000000000000
    PCM Polarization Energy =               0.0000000000000000
    EFP Energy =                            0.0000000000000000
    Total Energy =                       -232.2359160757849850
    Molecular point group: c1
  Basis Set: CC-PVTZ
  Basis Set:

  -Total Gradient:
     Atom            X                  Y                   Z
    ------   -----------------  -----------------  -----------------
       1        0.000188285348    -0.000398337329     0.000600892264
       2       -0.000376382963     0.000371936617    -0.000741096668
       3        0.000560687957     0.000298446137    -0.000022896636
       4       -0.000361860586    -0.000289675361     0.000171665242
       5        0.000006814375     0.000006404882    -0.000005529144
       6       -0.000006531519     0.000032109803     0.000008820127
       7        0.000012955203     0.000006450931    -0.000000747775
       8        0.000010854205     0.000001880289     0.000001971692
       9        0.000000624349     0.000000351190     0.000013150324
      10       -0.000017399414    -0.000022005404    -0.000010845988
      11        0.000000600873    -0.000021846960    -0.000005370012
      12       -0.000002081344    -0.000001510821    -0.000018263563
      13       -0.000001847675     0.000006623588     0.000004839378
      14       -0.000015547756    -0.000001835641    -0.000007266730
      15        0.000000828946     0.000011008079     0.000010677487

  **** Optimization is complete! (in 6 steps) ****
    Final optimized geometry and variables:
    Molecular point group: c1

    Geometry (in Angstrom), charge = 0, multiplicity = 1:

    H            2.479889138614    -0.868755569601    -0.401441607338
    O            1.571996092305    -0.978569528379    -0.195106825815
    C            1.122936619209     0.070037583123     0.629789132325
    C            0.171568598302     0.998743011325    -0.109381289230
    H            1.963112030503     0.642933844247     1.009396502119
    H            0.631705741740    -0.373506098519     1.487277305922
    C           -1.068823488462     0.318844689229    -0.691196599785
    H            0.719557667027     1.478660592853    -0.915305755111
    H           -0.130448948984     1.787954217158     0.576056437095
    C           -2.025194687445    -0.254636719896     0.351507855152
    H           -0.755338842226    -0.468492708866    -1.366315072620
    H           -1.602597947540     1.047953991124    -1.292950574437
    H           -2.913727148762    -0.654031176492    -0.123765025851
    H           -1.571189085723    -1.060306885045     0.915798234383
    H           -2.343188849290     0.507897609395     1.055945121807

  Mulliken Charges: (a.u.)
   Center  Symbol    Alpha    Beta     Spin     Total
       1     H     0.39298  0.39298  0.00000  0.21403
       2     O     4.20480  4.20480  0.00000 -0.40961
       3     C     2.98139  2.98139  0.00000  0.03723
       4     C     3.08967  3.08967  0.00000 -0.17934
       5     H     0.46095  0.46095  0.00000  0.07810
       6     H     0.46261  0.46261  0.00000  0.07477
       7     C     3.08722  3.08722  0.00000 -0.17445
       8     H     0.45450  0.45450  0.00000  0.09099
       9     H     0.45740  0.45740  0.00000  0.08521
      10     C     3.15423  3.15423  0.00000 -0.30846
      11     H     0.44759  0.44759  0.00000  0.10482
      12     H     0.45076  0.45076  0.00000  0.09847
      13     H     0.44702  0.44702  0.00000  0.10596
      14     H     0.45156  0.45156  0.00000  0.09688
      15     H     0.45730  0.45730  0.00000  0.08539

   Total alpha = 21.00000, Total beta = 21.00000, Total charge = -0.00000

*** Psi4 exiting successfully. Buy a developer a beer!
