  ==> Input File <==

--------------------------------------------------------------------------
set {
	reference rhf
	basis 6-31G*
}

set_num_threads( 4 )
memory 2 gb

molecule MOL {
0 1

H	 -2.365627	 -1.312883	 -0.379134
C	 -1.358347	 -1.274295	 0.019669
C	 -0.681945	 0.000119	 -0.470601
H	 -0.826096	 -2.155117	 -0.321105
H	 -1.409554	 -1.292283	 1.100109
C	 -1.357790	 1.274691	 0.020220
N	 0.739525	 -0.000142	 0.006128
H	 -0.594190	 0.000341	 -1.545128
H	 -2.364980	 1.313977	 -0.378631
H	 -0.825080	 2.155361	 -0.320114
H	 -1.409060	 1.292170	 1.100671
O	 1.552174	 -0.528755	 -0.687234
O	 0.967074	 0.530061	 1.051359

	symmetry c1
}
set optking {
	frozen_dihedral = ("
		12 7 3 8
	")
}

ee = optimize('scf')
oeprop('DIPOLE', 'QUADRUPOLE', 'MULLIKEN_CHARGES')
f=open( 'psi4out.xyz', 'w' )
f.write( "13  " )
f.write( str(ee) + "\n" )
f.write( MOL.save_string_xyz() )
f.close()
--------------------------------------------------------------------------

    Molecular point group: c1
  Charge       = 0
  Multiplicity = 1
  Basis Set: 6-31G*
  Basis Set:
  @DF-RHF Final Energy:  -321.73825251640994
    Total Energy =                       -321.7382525164098297
    Molecular point group: c1
  Basis Set: 6-31G*
  Basis Set:
  Basis Set: 6-31G*
  Basis Set:
  @DF-RHF Final Energy:  -321.73393703316231
    Total Energy =                       -321.7339370331623059
  Basis Set: 6-31G*
  Basis Set:
  Basis Set: 6-31G*
  Basis Set:
  @DF-RHF Final Energy:  -321.73826470071276
    Total Energy =                       -321.7382647007128753
  Basis Set: 6-31G*
  Basis Set:
  Basis Set: 6-31G*
  Basis Set:
  @DF-RHF Final Energy:  -321.73883707153726
    Total Energy =                       -321.7388370715371479
  Basis Set: 6-31G*
  Basis Set:
  Basis Set: 6-31G*
  Basis Set:
  @DF-RHF Final Energy:  -321.73884337289002
    Total Energy =                       -321.7388433728899031
  Basis Set: 6-31G*
  Basis Set:
  Basis Set: 6-31G*
  Basis Set:
  @DF-RHF Final Energy:  -321.73884500859140
    Total Energy =                       -321.7388450085913405
  Basis Set: 6-31G*
  Basis Set:
  Charge       = 0
  Multiplicity = 1
  Basis Set: 6-31G*
  Basis Set:

    Orbital Energies (a.u.)
    -----------------------

    Doubly Occupied:

       1A    -20.600100     2A    -20.598665     3A    -15.843151
       4A    -11.306373     5A    -11.248644     6A    -11.242149
       7A     -1.628701     8A     -1.414108     9A     -1.143689
      10A     -0.973630    11A     -0.958010    12A     -0.813689
      13A     -0.752815    14A     -0.726965    15A     -0.722030
      16A     -0.648278    17A     -0.594175    18A     -0.587636
      19A     -0.572111    20A     -0.529855    21A     -0.522426
      22A     -0.481847    23A     -0.469675    24A     -0.446988

  @DF-RHF Final Energy:  -321.73884506991777

   => Energetics <=

    Nuclear Repulsion Energy =            256.8368827002565808
    One-Electron Energy =                -947.5000370506181753
    Two-Electron Energy =                 368.9243092804437083
    DFT Exchange-Correlation Energy =       0.0000000000000000
    Empirical Dispersion Energy =           0.0000000000000000
    PCM Polarization Energy =               0.0000000000000000
    EFP Energy =                            0.0000000000000000
    Total Energy =                       -321.7388450699178293
    Molecular point group: c1
  Basis Set: 6-31G*
  Basis Set:

  -Total Gradient:
     Atom            X                  Y                   Z
    ------   -----------------  -----------------  -----------------
       1       -0.000003426144    -0.000003277501     0.000002238270
       2       -0.000006530237     0.000003649217    -0.000003678770
       3       -0.000048457039    -0.000877417616     0.000100496676
       4       -0.000001624589     0.000005094117    -0.000004564472
       5        0.000002428160    -0.000000884075     0.000001604604
       6        0.000000336489    -0.000006996748    -0.000001201703
       7        0.000160124466     0.000784315121    -0.000378628180
       8        0.000010903232     0.000594010933    -0.000011049122
       9        0.000002960021    -0.000003203152     0.000001457223
      10       -0.000000281577    -0.000003725547    -0.000002072619
      11       -0.000000643538     0.000005130346     0.000004336768
      12       -0.000116545056    -0.000501857641     0.000282154216
      13        0.000000755810     0.000005162542     0.000008907107

  **** Optimization is complete! (in 7 steps) ****
    Final optimized geometry and variables:
    Molecular point group: c1

    Geometry (in Angstrom), charge = 0, multiplicity = 1:

    H           -2.360350381576    -1.293888821480    -0.351933777118
    C           -1.344332116612    -1.253512961783     0.022823842059
    C           -0.681808698676     0.032459723426    -0.466198296137
    H           -0.810359179699    -2.124218239152    -0.336481618363
    H           -1.375160123856    -1.278929856904     1.105862695527
    C           -1.376694485944     1.297046554341     0.010941814522
    N            0.742076425831     0.001046050679     0.006499314928
    H           -0.592655354762     0.021914067141    -1.541405434787
    H           -2.371102516284     1.326943038112    -0.420768551830
    H           -0.842565377732     2.184328877639    -0.306862725277
    H           -1.463410616623     1.315733676680     1.088330475180
    O            1.526841206587    -0.557222278401    -0.697612724518
    O            0.994903012069     0.489723390665     1.064442613183

  Mulliken Charges: (a.u.)
   Center  Symbol    Alpha    Beta     Spin     Total
       1     H     0.40597  0.40597  0.00000  0.18806
       2     C     3.25040  3.25040  0.00000 -0.50079
       3     C     3.02275  3.02275  0.00000 -0.04549
       4     H     0.39678  0.39678  0.00000  0.20644
       5     H     0.40140  0.40140  0.00000  0.19720
       6     C     3.24565  3.24565  0.00000 -0.49130
       7     N     3.21775  3.21775  0.00000  0.56449
       8     H     0.38651  0.38651  0.00000  0.22698
       9     H     0.41134  0.41134  0.00000  0.17732
      10     H     0.40394  0.40394  0.00000  0.19213
      11     H     0.39797  0.39797  0.00000  0.20405
      12     O     4.23007  4.23007  0.00000 -0.46015
      13     O     4.22946  4.22946  0.00000 -0.45892

   Total alpha = 24.00000, Total beta = 24.00000, Total charge =  0.00000
