  ==> Input File <==

--------------------------------------------------------------------------
set {
	reference rhf
	basis 6-31G*
}

set_num_threads( 1 )
memory 2 gb

molecule MOL {
0 1

H	 -1.805692	 1.093629	 0.299860
N	 -1.852125	 0.165761	 -0.074816
C	 -0.563778	 -0.502042	 0.037919
H	 -2.118615	 0.254924	 -1.036995
C	 0.575259	 0.508231	 -0.048326
H	 -0.482092	 -1.204004	 -0.786564
H	 -0.460411	 -1.085169	 0.956626
C	 1.954651	 -0.143624	 0.035137
H	 0.475158	 1.060484	 -0.977307
H	 0.469181	 1.234488	 0.755973
H	 2.103292	 -0.853109	 -0.774172
H	 2.742821	 0.599562	 -0.030094
H	 2.083613	 -0.679371	 0.971560

	symmetry c1
}
set optking {
	frozen_dihedral = ("
		6 3 5 9
	")
}

ee = energy('scf')
oeprop('DIPOLE', 'QUADRUPOLE', 'MULLIKEN_CHARGES')
f=open( 'psi4out.xyz', 'w' )
f.write( "13  " )
f.write( str(ee) + "\n" )
f.write( MOL.save_string_xyz() )
f.close()
--------------------------------------------------------------------------

    Molecular point group: c1

    Geometry (in Angstrom), charge = 0, multiplicity = 1:

       Center              X                  Y                   Z               Mass
    ------------   -----------------  -----------------  -----------------  -----------------
           H         -1.817354207825     1.075064410162     0.323167696858     1.007825032070
           N         -1.863787207825     0.147196410162    -0.051508303142    14.003074004780
           C         -0.575440207825    -0.520606589838     0.061226696858    12.000000000000
           H         -2.130277207825     0.236359410162    -1.013687303142     1.007825032070
           C          0.563596792175     0.489666410162    -0.025018303142    12.000000000000
           H         -0.493754207825    -1.222568589838    -0.763256303142     1.007825032070
           H         -0.472073207825    -1.103733589838     0.979933696858     1.007825032070
           C          1.942988792175    -0.162188589838     0.058444696858    12.000000000000
           H          0.463495792175     1.041919410162    -0.953999303142     1.007825032070
           H          0.457518792175     1.215923410162     0.779280696858     1.007825032070
           H          2.091629792175    -0.871673589838    -0.750864303142     1.007825032070
           H          2.731158792175     0.580997410162    -0.006786303142     1.007825032070
           H          2.071950792175    -0.697935589838     0.994867696858     1.007825032070

  Charge       = 0
  Multiplicity = 1
  Basis Set: 6-31G*
  Basis Set:

    Orbital Energies (a.u.)
    -----------------------

    Doubly Occupied:

       1A    -15.531010     2A    -11.241142     3A    -11.216293
       4A    -11.211835     5A     -1.178752     6A     -1.036708
       7A     -0.899197     8A     -0.808752     9A     -0.674176
      10A     -0.611215    11A     -0.606000    12A     -0.562349
      13A     -0.532593    14A     -0.507401    15A     -0.488211
      16A     -0.473141    17A     -0.374253

  @DF-RHF Final Energy:  -173.27868548441262

   => Energetics <=

    Nuclear Repulsion Energy =            132.2211784351190431
    One-Electron Energy =                -495.0936608880700760
    Two-Electron Energy =                 189.5937969685382427
    DFT Exchange-Correlation Energy =       0.0000000000000000
    Empirical Dispersion Energy =           0.0000000000000000
    PCM Polarization Energy =               0.0000000000000000
    EFP Energy =                            0.0000000000000000
    Total Energy =                       -173.2786854844127902

  Mulliken Charges: (a.u.)
   Center  Symbol    Alpha    Beta     Spin     Total
       1     H     0.33374  0.33374  0.00000  0.33252
       2     N     3.92164  3.92164  0.00000 -0.84329
       3     C     3.05478  3.05478  0.00000 -0.10955
       4     H     0.33302  0.33302  0.00000  0.33397
       5     C     3.16156  3.16156  0.00000 -0.32312
       6     H     0.42276  0.42276  0.00000  0.15449
       7     H     0.41986  0.41986  0.00000  0.16027
       8     C     3.24388  3.24388  0.00000 -0.48775
       9     H     0.42476  0.42476  0.00000  0.15049
      10     H     0.42454  0.42454  0.00000  0.15092
      11     H     0.42127  0.42127  0.00000  0.15746
      12     H     0.41823  0.41823  0.00000  0.16354
      13     H     0.41997  0.41997  0.00000  0.16006

   Total alpha = 17.00000, Total beta = 17.00000, Total charge = -0.00000
