  ==> Input File <==

--------------------------------------------------------------------------
set {
	reference rhf
	basis cc-pvtz
}

set_num_threads( 4 )
memory 2 gb

molecule MOL {
0 1

O	 1.349677	 0.859691	 0.897228
C	 0.860843	 0.273204	 -0.013120
C	 -0.623368	 -0.117453	 -0.005652
C	 1.714021	 -0.106920	 -1.207112
C	 -0.892588	 -1.253841	 -1.002900
C	 -1.473463	 1.100646	 -0.372896
C	 -0.981836	 -0.579025	 1.418506
H	 -0.609333	 -0.970024	 -2.010649
H	 -1.950451	 -1.487353	 -1.013175
H	 -0.360848	 -2.161259	 -0.746463
H	 -1.232203	 1.461623	 -1.364827
H	 -2.524364	 0.834451	 -0.354500
H	 -1.312381	 1.914833	 0.318657
H	 -2.035706	 -0.826342	 1.468082
H	 -0.425078	 -1.458934	 1.716857
H	 -0.788494	 0.205047	 2.140903
H	 1.523128	 0.588420	 -2.016942
H	 2.753783	 -0.035844	 -0.927271
H	 1.496754	 -1.100994	 -1.572961

	symmetry c1
}
set optking {
	frozen_dihedral = ("
		1 2 3 5
	")
}

ee = optimize('scf')
oeprop('DIPOLE', 'QUADRUPOLE', 'MULLIKEN_CHARGES')
f=open( 'psi4out.xyz', 'w' )
f.write( "19  " )
f.write( str(ee) + "\n" )
f.write( MOL.save_string_xyz() )
f.close()
--------------------------------------------------------------------------

    Molecular point group: c1
  Charge       = 0
  Multiplicity = 1
  Basis Set: CC-PVTZ
  Basis Set:
  @DF-RHF Final Energy:  -309.17061697579845
    Total Energy =                       -309.1706169757984526
    Molecular point group: c1
  Basis Set: CC-PVTZ
  Basis Set:
  Basis Set: CC-PVTZ
  Basis Set:
  @DF-RHF Final Energy:  -309.17140028551910
    Total Energy =                       -309.1714002855191552
  Basis Set: CC-PVTZ
  Basis Set:
  Basis Set: CC-PVTZ
  Basis Set:
  @DF-RHF Final Energy:  -309.17278015616017
    Total Energy =                       -309.1727801561603428
  Basis Set: CC-PVTZ
  Basis Set:
  Basis Set: CC-PVTZ
  Basis Set:
  @DF-RHF Final Energy:  -309.17307932404873
    Total Energy =                       -309.1730793240489561
  Basis Set: CC-PVTZ
  Basis Set:
  @DF-RHF Final Energy:  -309.17317676326746
    Total Energy =                       -309.1731767632674064
  @DF-RHF Final Energy:  -309.17326310688617
    Total Energy =                       -309.1732631068861679
  @DF-RHF Final Energy:  -309.17330413653355
    Total Energy =                       -309.1733041365332610
  @DF-RHF Final Energy:  -309.17340180545654
    Total Energy =                       -309.1734018054563649
  @DF-RHF Final Energy:  -309.17347838472233
    Total Energy =                       -309.1734783847220456
  @DF-RHF Final Energy:  -309.17353467304730
    Total Energy =                       -309.1735346730472429
  @DF-RHF Final Energy:  -309.17356960128797
    Total Energy =                       -309.1735696012880226
  Basis Set: CC-PVTZ
  Basis Set:
  @DF-RHF Final Energy:  -309.17358212066580
    Total Energy =                       -309.1735821206658557
  Basis Set: CC-PVTZ
  Basis Set:
  Basis Set: CC-PVTZ
  Basis Set:
  @DF-RHF Final Energy:  -309.17356897019636
    Total Energy =                       -309.1735689701969250
  Basis Set: CC-PVTZ
  Basis Set:
  Basis Set: CC-PVTZ
  Basis Set:
  @DF-RHF Final Energy:  -309.17358282121472
    Total Energy =                       -309.1735828212143247
  Basis Set: CC-PVTZ
  Basis Set:
  Charge       = 0
  Multiplicity = 1
  Basis Set: CC-PVTZ
  Basis Set:

    Orbital Energies (a.u.)
    -----------------------

    Doubly Occupied:

       1A    -20.536623     2A    -11.318295     3A    -11.245617
       4A    -11.225859     5A    -11.220447     6A    -11.219763
       7A    -11.209223     8A     -1.398251     9A     -1.109844
      10A     -1.004285    11A     -0.945077    12A     -0.937956
      13A     -0.834638    14A     -0.705615    15A     -0.666861
      16A     -0.634032    17A     -0.623322    18A     -0.592454
      19A     -0.588715    20A     -0.570543    21A     -0.549939
      22A     -0.546685    23A     -0.524924    24A     -0.514275
      25A     -0.503192    26A     -0.473189    27A     -0.464243
      28A     -0.393912

  @DF-RHF Final Energy:  -309.17358279813413

   => Energetics <=

    Nuclear Repulsion Energy =            326.8938981722757262
    One-Electron Energy =               -1067.0194019362361360
    Two-Electron Energy =                 430.9519209658261616
    DFT Exchange-Correlation Energy =       0.0000000000000000
    Empirical Dispersion Energy =           0.0000000000000000
    PCM Polarization Energy =               0.0000000000000000
    EFP Energy =                            0.0000000000000000
    Total Energy =                       -309.1735827981342482
    Molecular point group: c1
  Basis Set: CC-PVTZ
  Basis Set:

  -Total Gradient:
     Atom            X                  Y                   Z
    ------   -----------------  -----------------  -----------------
       1       -0.000306791153     0.001225393272    -0.000582537096
       2        0.000369213206    -0.001428419469     0.000520436070
       3        0.000123199983    -0.000501739345     0.000757536634
       4        0.000001770739    -0.000006967245     0.000004142457
       5       -0.000182221407     0.000701705545    -0.000709621737
       6        0.000001101592     0.000004588482    -0.000000779439
       7       -0.000002458034     0.000007033096     0.000003869016
       8       -0.000000033230    -0.000000745139     0.000001341515
       9       -0.000003411615    -0.000000549781    -0.000000760217
      10       -0.000002232266     0.000000371896     0.000002386581
      11        0.000007436652    -0.000000299693     0.000003178139
      12       -0.000000301019    -0.000001232257    -0.000006603213
      13       -0.000012409395    -0.000003553726     0.000009663614
      14        0.000004335301    -0.000002523256    -0.000001256666
      15        0.000002381960    -0.000000162507    -0.000000124741
      16       -0.000003040008     0.000001511373     0.000000208698
      17       -0.000000103471     0.000002214475     0.000000684304
      18        0.000000576533     0.000000709947    -0.000001426382
      19        0.000002985632     0.000002664330    -0.000000337540

  **** Optimization is complete! (in 15 steps) ****
    Final optimized geometry and variables:
    Molecular point group: c1

    Geometry (in Angstrom), charge = 0, multiplicity = 1:

    O            1.350281973898     0.777680215156     0.976221840104
    C            0.878586564082     0.215354056293     0.041428472812
    C           -0.611426721306    -0.165951783382     0.037801915538
    C            1.727747214563    -0.066178919178    -1.179153739875
    C           -0.943535730449    -1.274365047116    -0.968146808563
    C           -1.378319358946     1.113979863774    -0.342586288343
    C           -1.017966943805    -0.609510850781     1.446827036590
    H           -0.726647612730    -0.984564122495    -1.988326319528
    H           -2.000353452889    -1.506739751117    -0.914643641720
    H           -0.399239991950    -2.187409784579    -0.753772662312
    H           -1.095810981285     1.472757805192    -1.326771174448
    H           -2.443841973756     0.916049382981    -0.358319244907
    H           -1.187098303817     1.903150292257     0.372366315300
    H           -2.080582309714    -0.822756827335     1.475263164212
    H           -0.488871205315    -1.509134084355     1.741161966794
    H           -0.798730071283     0.157456919670     2.174161869374
    H            1.274798456215     0.351605137313    -2.070336870021
    H            2.704404528305     0.367393645151    -1.030898873825
    H            1.825690328685    -1.133381140293    -1.337081870996

  Mulliken Charges: (a.u.)
   Center  Symbol    Alpha    Beta     Spin     Total
       1     O     4.18018  4.18018  0.00000 -0.36036
       2     C     2.84793  2.84793  0.00000  0.30414
       3     C     3.00621  3.00621  0.00000 -0.01242
       4     C     3.16435  3.16435  0.00000 -0.32869
       5     C     3.16550  3.16550  0.00000 -0.33101
       6     C     3.15451  3.15451  0.00000 -0.30901
       7     C     3.15277  3.15277  0.00000 -0.30554
       8     H     0.44559  0.44559  0.00000  0.10883
       9     H     0.44261  0.44261  0.00000  0.11479
      10     H     0.44472  0.44472  0.00000  0.11057
      11     H     0.44852  0.44852  0.00000  0.10296
      12     H     0.44781  0.44781  0.00000  0.10439
      13     H     0.43848  0.43848  0.00000  0.12304
      14     H     0.45127  0.45127  0.00000  0.09746
      15     H     0.44983  0.44983  0.00000  0.10034
      16     H     0.43506  0.43506  0.00000  0.12989
      17     H     0.44641  0.44641  0.00000  0.10718
      18     H     0.43172  0.43172  0.00000  0.13655
      19     H     0.44655  0.44655  0.00000  0.10691

   Total alpha = 28.00000, Total beta = 28.00000, Total charge = -0.00000
