  ==> Input File <==

--------------------------------------------------------------------------
set {
	reference rhf
	basis 6-31G*
}

set_num_threads( 1 )
memory 2 gb

molecule MOL {
0 1

H	 -4.156742	 0.825964	 -0.386776
O	 -3.438663	 0.258271	 -0.627591
C	 -2.265892	 0.679409	 0.020359
C	 -1.137955	 -0.251707	 -0.387720
H	 -2.022134	 1.704216	 -0.256517
H	 -2.395957	 0.655945	 1.101504
C	 0.198102	 0.111031	 0.262842
H	 -1.046944	 -0.224564	 -1.470175
H	 -1.420346	 -1.267081	 -0.123622
C	 1.331804	 -0.827780	 -0.158768
H	 0.452836	 1.136862	 0.007978
H	 0.094822	 0.080649	 1.346783
C	 2.723619	 -0.410569	 0.329459
H	 1.342964	 -0.912588	 -1.244120
H	 1.116806	 -1.824343	 0.220779
C	 3.243875	 0.895854	 -0.272975
H	 3.424222	 -1.207124	 0.091250
H	 2.714788	 -0.329854	 1.414619
H	 3.251977	 0.848779	 -1.358681
H	 2.637085	 1.747371	 0.016682
H	 4.259473	 1.094070	 0.055697

	symmetry c1
}
set optking {
	frozen_dihedral = ("
		2 3 4 8,
		8 4 7 10,
		16 13 10 14,
		1 2 3 5
	")
}

ee = energy('scf')
oeprop('DIPOLE', 'QUADRUPOLE', 'MULLIKEN_CHARGES')
f=open( 'psi4out.xyz', 'w' )
f.write( "21  " )
f.write( str(ee) + "\n" )
f.write( MOL.save_string_xyz() )
f.close()
--------------------------------------------------------------------------

    Molecular point group: c1

    Geometry (in Angstrom), charge = 0, multiplicity = 1:

       Center              X                  Y                   Z               Mass
    ------------   -----------------  -----------------  -----------------  -----------------
           H         -4.180628748967     0.739460440870    -0.258387158649     1.007825032070
           O         -3.462549748967     0.171767440870    -0.499202158649    15.994914619560
           C         -2.289778748967     0.592905440870     0.148747841351    12.000000000000
           C         -1.161841748967    -0.338210559130    -0.259331158649    12.000000000000
           H         -2.046020748967     1.617712440870    -0.128128158649     1.007825032070
           H         -2.419843748967     0.569441440870     1.229892841351     1.007825032070
           C          0.174215251033     0.024527440870     0.391230841351    12.000000000000
           H         -1.070830748967    -0.311067559130    -1.341786158649     1.007825032070
           H         -1.444232748967    -1.353584559130     0.004766841351     1.007825032070
           C          1.307917251033    -0.914283559130    -0.030379158649    12.000000000000
           H          0.428949251033     1.050358440870     0.136366841351     1.007825032070
           H          0.070935251033    -0.005854559130     1.475171841351     1.007825032070
           C          2.699732251033    -0.497072559130     0.457847841351    12.000000000000
           H          1.319077251033    -0.999091559130    -1.115731158649     1.007825032070
           H          1.092919251033    -1.910846559130     0.349167841351     1.007825032070
           C          3.219988251033     0.809350440870    -0.144586158649    12.000000000000
           H          3.400335251033    -1.293627559130     0.219638841351     1.007825032070
           H          2.690901251033    -0.416357559130     1.543007841351     1.007825032070
           H          3.228090251033     0.762275440870    -1.230292158649     1.007825032070
           H          2.613198251033     1.660867440870     0.145070841351     1.007825032070
           H          4.235586251033     1.007566440870     0.184085841351     1.007825032070

  Charge       = 0
  Multiplicity = 1
  Basis Set: 6-31G*
  Basis Set:

    Orbital Energies (a.u.)
    -----------------------

    Doubly Occupied:

       1A    -20.551793     2A    -11.266989     3A    -11.215505
       4A    -11.215208     5A    -11.213549     6A    -11.210602
       7A    -11.208221     8A     -1.358618     9A     -1.086274
      10A     -1.033136    11A     -0.954430    12A     -0.875811
      13A     -0.806976    14A     -0.779050    15A     -0.692435
      16A     -0.661560    17A     -0.620801    18A     -0.609709
      19A     -0.586321    20A     -0.567861    21A     -0.537883
      22A     -0.520724    23A     -0.508754    24A     -0.486950
      25A     -0.479970    26A     -0.460825    27A     -0.455373
      28A     -0.443039    29A     -0.433948

  @DF-RHF Final Energy:  -310.21241076016952

   => Energetics <=

    Nuclear Repulsion Energy =            312.7502506033652026
    One-Electron Energy =               -1040.2410716604515528
    Two-Electron Energy =                 417.2784102969174000
    DFT Exchange-Correlation Energy =       0.0000000000000000
    Empirical Dispersion Energy =           0.0000000000000000
    PCM Polarization Energy =               0.0000000000000000
    EFP Energy =                            0.0000000000000000
    Total Energy =                       -310.2124107601689502

  Mulliken Charges: (a.u.)
   Center  Symbol    Alpha    Beta     Spin     Total
       1     H     0.28119  0.28119  0.00000  0.43763
       2     O     4.37179  4.37179  0.00000 -0.74358
       3     C     2.98975  2.98975  0.00000  0.02050
       4     C     3.15895  3.15895  0.00000 -0.31790
       5     H     0.43293  0.43293  0.00000  0.13414
       6     H     0.43291  0.43291  0.00000  0.13419
       7     C     3.16214  3.16214  0.00000 -0.32429
       8     H     0.41473  0.41473  0.00000  0.17054
       9     H     0.41489  0.41489  0.00000  0.17022
      10     C     3.15191  3.15191  0.00000 -0.30381
      11     H     0.42166  0.42166  0.00000  0.15669
      12     H     0.42361  0.42361  0.00000  0.15277
      13     C     3.15260  3.15260  0.00000 -0.30520
      14     H     0.42303  0.42303  0.00000  0.15393
      15     H     0.42083  0.42083  0.00000  0.15834
      16     C     3.24117  3.24117  0.00000 -0.48233
      17     H     0.42052  0.42052  0.00000  0.15896
      18     H     0.42368  0.42368  0.00000  0.15264
      19     H     0.42182  0.42182  0.00000  0.15636
      20     H     0.42080  0.42080  0.00000  0.15840
      21     H     0.41910  0.41910  0.00000  0.16179

   Total alpha = 29.00000, Total beta = 29.00000, Total charge = -0.00000
