  ==> Input File <==

--------------------------------------------------------------------------
set {
	reference rhf
	basis 6-31G*
}

set_num_threads( 4 )
memory 2 gb

molecule MOL {
0 1

H	 1.830345	 -0.846749	 0.904779
O	 1.586534	 -0.678666	 -0.000226
C	 0.489431	 0.077273	 0.000046
C	 -0.764129	 -0.759190	 0.000191
O	 0.537743	 1.263962	 0.000257
C	 -2.038368	 0.075731	 -0.000248
H	 -0.717284	 -1.412404	 -0.866059
H	 -0.717458	 -1.411724	 0.866967
H	 -2.086483	 0.712501	 -0.875098
H	 -2.908485	 -0.571682	 -0.000042
H	 -2.086576	 0.713280	 0.874068

	symmetry c1
}
set optking {
	frozen_dihedral = ("
		1 2 3 5
	")
}

ee = optimize('scf')
oeprop('DIPOLE', 'QUADRUPOLE', 'MULLIKEN_CHARGES')
f=open( 'psi4out.xyz', 'w' )
f.write( "11  " )
f.write( str(ee) + "\n" )
f.write( MOL.save_string_xyz() )
f.close()
--------------------------------------------------------------------------

    Molecular point group: c1
  Charge       = 0
  Multiplicity = 1
  Basis Set: 6-31G*
  Basis Set:
  @DF-RHF Final Energy:  -266.82298895289875
    Total Energy =                       -266.8229889528986973
    Molecular point group: c1
  Basis Set: 6-31G*
  Basis Set:
  Basis Set: 6-31G*
  Basis Set:
  @DF-RHF Final Energy:  -266.82357774162813
    Total Energy =                       -266.8235777416283554
  Basis Set: 6-31G*
  Basis Set:
  Basis Set: 6-31G*
  Basis Set:
  @DF-RHF Final Energy:  -266.82328736964541
    Total Energy =                       -266.8232873696454703
  Basis Set: 6-31G*
  Basis Set:
  Basis Set: 6-31G*
  Basis Set:
  @DF-RHF Final Energy:  -266.82475334105311
    Total Energy =                       -266.8247533410531105
  Basis Set: 6-31G*
  Basis Set:
  Basis Set: 6-31G*
  Basis Set:
  @DF-RHF Final Energy:  -266.82476548939394
    Total Energy =                       -266.8247654893939398
  Basis Set: 6-31G*
  Basis Set:
  Charge       = 0
  Multiplicity = 1
  Basis Set: 6-31G*
  Basis Set:

    Orbital Energies (a.u.)
    -----------------------

    Doubly Occupied:

       1A    -20.594790     2A    -20.563770     3A    -11.382324
       4A    -11.246382     5A    -11.221952     6A     -1.460946
       7A     -1.368280     8A     -1.064272     9A     -0.909909
      10A     -0.806727    11A     -0.711799    12A     -0.674402
      13A     -0.658433    14A     -0.613750    15A     -0.567631
      16A     -0.529132    17A     -0.520863    18A     -0.498122
      19A     -0.493389    20A     -0.446229

  @DF-RHF Final Energy:  -266.82476631967222

   => Energetics <=

    Nuclear Repulsion Energy =            178.9420523538596797
    One-Electron Energy =                -718.8674351311959754
    Two-Electron Energy =                 273.1006164576643300
    DFT Exchange-Correlation Energy =       0.0000000000000000
    Empirical Dispersion Energy =           0.0000000000000000
    PCM Polarization Energy =               0.0000000000000000
    EFP Energy =                            0.0000000000000000
    Total Energy =                       -266.8247663196719373
    Molecular point group: c1
  Basis Set: 6-31G*
  Basis Set:

  -Total Gradient:
     Atom            X                  Y                   Z
    ------   -----------------  -----------------  -----------------
       1       -0.001473514003    -0.002230759493     0.000081597401
       2        0.001688812711     0.002885886165    -0.001149160921
       3       -0.000130397796    -0.000579964468     0.003386553760
       4        0.000003483153     0.000027696976    -0.000001155456
       5       -0.000058544083    -0.000059051377    -0.002331126467
       6       -0.000008861802    -0.000011171577     0.000004851618
       7       -0.000009240671    -0.000010100417     0.000005475886
       8       -0.000016015290    -0.000013806509     0.000005955209
       9        0.000003760725    -0.000002310679     0.000000417311
      10       -0.000005675752    -0.000000373983     0.000000731394
      11        0.000006192804    -0.000006044637    -0.000004139734

  **** Optimization is complete! (in 6 steps) ****
    Final optimized geometry and variables:
    Molecular point group: c1

    Geometry (in Angstrom), charge = 0, multiplicity = 1:

    H            1.949416707901    -0.840526962301     0.866086852066
    O            1.625584277357    -0.670594395493    -0.010197868964
    C            0.492240026426     0.085856598828     0.009640219121
    C           -0.770151562423    -0.740529413466    -0.005867046756
    O            0.533157612318     1.264018054249    -0.025055322358
    C           -2.044976700732     0.092807731752    -0.021598827243
    H           -0.709261138859    -1.392156321445    -0.872912702113
    H           -0.741080146600    -1.402263234930     0.856812103352
    H           -2.078174134446     0.732941142481    -0.894598803898
    H           -2.915735206119    -0.553653998464    -0.037821804276
    H           -2.107734145315     0.727626558529     0.854175102568

  Mulliken Charges: (a.u.)
   Center  Symbol    Alpha    Beta     Spin     Total
       1     H     0.26605  0.26605  0.00000  0.46789
       2     O     4.36933  4.36933  0.00000 -0.73866
       3     C     2.63245  2.63245  0.00000  0.73510
       4     C     3.20756  3.20756  0.00000 -0.41512
       5     O     4.24449  4.24449  0.00000 -0.48898
       6     C     3.23966  3.23966  0.00000 -0.47933
       7     H     0.39612  0.39612  0.00000  0.20775
       8     H     0.40930  0.40930  0.00000  0.18140
       9     H     0.40732  0.40732  0.00000  0.18536
      10     H     0.41679  0.41679  0.00000  0.16642
      11     H     0.41092  0.41092  0.00000  0.17817

   Total alpha = 20.00000, Total beta = 20.00000, Total charge =  0.00000
