  ==> Input File <==

--------------------------------------------------------------------------
set {
	reference rhf
	basis 6-31G*
}

set_num_threads( 1 )
memory 2 gb

molecule MOL {
0 1

O	 1.214711	 1.306902	 -0.000018
C	 1.122059	 0.121804	 -0.000188
C	 -0.170150	 -0.657997	 -0.000612
O	 2.172624	 -0.688929	 0.000216
C	 -1.412532	 0.227344	 -0.000452
H	 -0.153702	 -1.313099	 -0.867402
H	 -0.153924	 -1.313811	 0.865644
C	 -1.099602	 1.668208	 0.406183
H	 -2.152103	 -0.193065	 0.673933
H	 -1.862753	 0.213222	 -0.988179
C	 -2.338639	 2.562518	 0.407769
H	 -0.647990	 1.676552	 1.396160
H	 -0.356220	 2.083729	 -0.271162
H	 -3.087718	 2.192334	 1.101670
H	 -2.089470	 3.577898	 0.699650
H	 -2.793493	 2.602912	 -0.577683
C	 3.452279	 -0.082609	 0.000533
H	 3.583069	 0.529321	 -0.880332
H	 4.163299	 -0.894027	 0.001117
H	 3.582335	 0.529955	 0.881077

	symmetry c1
}
set optking {
	frozen_dihedral = ("
		9 5 8 12,
		1 2 3 6,
		1 2 4 17
	")
}

ee = energy('scf')
oeprop('DIPOLE', 'QUADRUPOLE', 'MULLIKEN_CHARGES')
f=open( 'psi4out.xyz', 'w' )
f.write( "20  " )
f.write( str(ee) + "\n" )
f.write( MOL.save_string_xyz() )
f.close()
--------------------------------------------------------------------------

    Molecular point group: c1

    Geometry (in Angstrom), charge = 0, multiplicity = 1:

       Center              X                  Y                   Z               Mass
    ------------   -----------------  -----------------  -----------------  -----------------
           O          0.811234652723     0.740729615827    -0.101775378095    15.994914619560
           C          0.718582652723    -0.444368384173    -0.101945378095    12.000000000000
           C         -0.573626347277    -1.224169384173    -0.102369378095    12.000000000000
           O          1.769147652723    -1.255101384173    -0.101541378095    15.994914619560
           C         -1.816008347277    -0.338828384173    -0.102209378095    12.000000000000
           H         -0.557178347277    -1.879271384173    -0.969159378095     1.007825032070
           H         -0.557400347277    -1.879983384173     0.763886621905     1.007825032070
           C         -1.503078347277     1.102035615827     0.304425621905    12.000000000000
           H         -2.555579347277    -0.759237384173     0.572175621905     1.007825032070
           H         -2.266229347277    -0.352950384173    -1.089936378095     1.007825032070
           C         -2.742115347277     1.996345615827     0.306011621905    12.000000000000
           H         -1.051466347277     1.110379615827     1.294402621905     1.007825032070
           H         -0.759696347277     1.517556615827    -0.372919378095     1.007825032070
           H         -3.491194347277     1.626161615827     0.999912621905     1.007825032070
           H         -2.492946347277     3.011725615827     0.597892621905     1.007825032070
           H         -3.196969347277     2.036739615827    -0.679440378095     1.007825032070
           C          3.048802652723    -0.648781384173    -0.101224378095    12.000000000000
           H          3.179592652723    -0.036851384173    -0.982089378095     1.007825032070
           H          3.759822652723    -1.460199384173    -0.100640378095     1.007825032070
           H          3.178858652723    -0.036217384173     0.779319621905     1.007825032070

  Charge       = 0
  Multiplicity = 1
  Basis Set: 6-31G*
  Basis Set:

    Orbital Energies (a.u.)
    -----------------------

    Doubly Occupied:

       1A    -20.606706     2A    -20.543340     3A    -11.377348
       4A    -11.283159     5A    -11.236592     6A    -11.216520
       7A    -11.192160     8A    -11.188188     9A     -1.474149
      10A     -1.370675    11A     -1.083222    12A     -1.016899
      13A     -0.965744    14A     -0.879087    15A     -0.800886
      16A     -0.774997    17A     -0.697845    18A     -0.687394
      19A     -0.669970    20A     -0.637998    21A     -0.602796
      22A     -0.579192    23A     -0.568244    24A     -0.544550
      25A     -0.537101    26A     -0.518977    27A     -0.499463
      28A     -0.493838    29A     -0.467282    30A     -0.455520
      31A     -0.444234    32A     -0.397552

  @DF-RHF Final Energy:  -383.90491400812181

   => Energetics <=

    Nuclear Repulsion Energy =            397.8703135421196180
    One-Electron Energy =               -1311.9273201988555684
    Two-Electron Energy =                 530.1520926486152803
    DFT Exchange-Correlation Energy =       0.0000000000000000
    Empirical Dispersion Energy =           0.0000000000000000
    PCM Polarization Energy =               0.0000000000000000
    EFP Energy =                            0.0000000000000000
    Total Energy =                       -383.9049140081206133

  Mulliken Charges: (a.u.)
   Center  Symbol    Alpha    Beta     Spin     Total
       1     O     4.28641  4.28641  0.00000 -0.57282
       2     C     2.60407  2.60407  0.00000  0.79186
       3     C     3.21193  3.21193  0.00000 -0.42386
       4     O     4.30713  4.30713  0.00000 -0.61425
       5     C     3.15616  3.15616  0.00000 -0.31233
       6     H     0.39648  0.39648  0.00000  0.20705
       7     H     0.39711  0.39711  0.00000  0.20579
       8     C     3.15845  3.15845  0.00000 -0.31690
       9     H     0.41834  0.41834  0.00000  0.16331
      10     H     0.41863  0.41863  0.00000  0.16275
      11     C     3.23648  3.23648  0.00000 -0.47295
      12     H     0.42702  0.42702  0.00000  0.14595
      13     H     0.38466  0.38466  0.00000  0.23069
      14     H     0.43024  0.43024  0.00000  0.13952
      15     H     0.42108  0.42108  0.00000  0.15783
      16     H     0.42722  0.42722  0.00000  0.14557
      17     C     3.09269  3.09269  0.00000 -0.18538
      18     H     0.40914  0.40914  0.00000  0.18172
      19     H     0.40786  0.40786  0.00000  0.18427
      20     H     0.40891  0.40891  0.00000  0.18219

   Total alpha = 32.00000, Total beta = 32.00000, Total charge = -0.00000
