  ==> Input File <==

--------------------------------------------------------------------------
set {
	reference rhf
	basis 6-31G*
}

set_num_threads( 4 )
memory 2 gb

molecule MOL {
0 1

H	 -3.161837	 0.500524	 -0.000234
C	 -2.367097	 -0.232926	 -0.000000
O	 -1.158440	 0.455814	 -0.000122
H	 -2.468853	 -0.861886	 -0.882833
H	 -2.468942	 -0.861421	 0.883154
C	 -0.029776	 -0.365156	 0.000148
C	 1.212217	 0.508981	 0.000007
H	 -0.036772	 -1.013236	 -0.877259
H	 -0.036869	 -1.012778	 0.877897
C	 2.177999	 0.152341	 1.129145
H	 1.705420	 0.406137	 -0.961677
H	 0.903154	 1.546325	 0.084256
H	 2.518889	 -0.876166	 1.049205
H	 3.054281	 0.791415	 1.105478
H	 1.710669	 0.271447	 2.102706

	symmetry c1
}
set optking {
	frozen_dihedral = ("
		11 7 6 8
	")
}

ee = optimize('scf')
oeprop('DIPOLE', 'QUADRUPOLE', 'MULLIKEN_CHARGES')
f=open( 'psi4out.xyz', 'w' )
f.write( "15  " )
f.write( str(ee) + "\n" )
f.write( MOL.save_string_xyz() )
f.close()
--------------------------------------------------------------------------

    Molecular point group: c1
  Charge       = 0
  Multiplicity = 1
  Basis Set: 6-31G*
  Basis Set:
  @DF-RHF Final Energy:  -232.13326118249805
    Total Energy =                       -232.1332611824980177
    Molecular point group: c1
  Basis Set: 6-31G*
  Basis Set:
  Basis Set: 6-31G*
  Basis Set:
  @DF-RHF Final Energy:  -232.13360825713090
    Total Energy =                       -232.1336082571311863
  Basis Set: 6-31G*
  Basis Set:
  Basis Set: 6-31G*
  Basis Set:
  @DF-RHF Final Energy:  -232.13373770408580
    Total Energy =                       -232.1337377040857746
  Basis Set: 6-31G*
  Basis Set:
  Charge       = 0
  Multiplicity = 1
  Basis Set: 6-31G*
  Basis Set:

    Orbital Energies (a.u.)
    -----------------------

    Doubly Occupied:

       1A    -20.552949     2A    -11.266617     3A    -11.263419
       4A    -11.214074     5A    -11.210998     6A     -1.377096
       7A     -1.053265     8A     -0.953821     9A     -0.878030
      10A     -0.808748    11A     -0.670404    12A     -0.656029
      13A     -0.631334    14A     -0.595755    15A     -0.571523
      16A     -0.545161    17A     -0.493345    18A     -0.488724
      19A     -0.479960    20A     -0.460929    21A     -0.411335

  @DF-RHF Final Energy:  -232.13373857847444

   => Energetics <=

    Nuclear Repulsion Energy =            189.8654290581696387
    One-Electron Energy =                -690.8313053700468345
    Two-Electron Energy =                 268.8321377334028739
    DFT Exchange-Correlation Energy =       0.0000000000000000
    Empirical Dispersion Energy =           0.0000000000000000
    PCM Polarization Energy =               0.0000000000000000
    EFP Energy =                            0.0000000000000000
    Total Energy =                       -232.1337385784743219
    Molecular point group: c1
  Basis Set: 6-31G*
  Basis Set:

  -Total Gradient:
     Atom            X                  Y                   Z
    ------   -----------------  -----------------  -----------------
       1       -0.000040770682    -0.000029527026     0.000001016842
       2       -0.000099533685     0.000043067053     0.000000151633
       3        0.000184555048    -0.000168170912    -0.000011818821
       4        0.000002018429    -0.000000450921     0.000012669412
       5        0.000000099165    -0.000001992981    -0.000011473227
       6        0.001172017559    -0.001746191530     0.001347508646
       7       -0.001254806472     0.002039706627    -0.001035280306
       8       -0.000920658055     0.001274867828    -0.000932853875
       9       -0.000006613541    -0.000014968058     0.000014163530
      10       -0.000001868699     0.000039656120     0.000009133881
      11        0.000969289197    -0.001410658670     0.000634386961
      12       -0.000001136667    -0.000000779272    -0.000018823384
      13        0.000038736539     0.000012026569    -0.000022769557
      14       -0.000011051398     0.000020443831     0.000014588555
      15       -0.000030276736    -0.000057028658    -0.000000600291

  **** Optimization is complete! (in 4 steps) ****
    Final optimized geometry and variables:
    Molecular point group: c1

    Geometry (in Angstrom), charge = 0, multiplicity = 1:

    H           -3.108533816644     0.402859756868    -0.248783718037
    C           -2.311577166388    -0.328296286636    -0.243263230521
    O           -1.104854754234     0.362826226456    -0.226643075397
    H           -2.402119745095    -0.953688408565    -1.130025596744
    H           -2.421948731489    -0.961774615304     0.635530653224
    C            0.025652140046    -0.461835784011    -0.215166362803
    C            1.285643455362     0.414311942167    -0.222507002154
    H            0.000145699256    -1.114018458973    -1.087201893509
    H            0.002234435826    -1.099840581491     0.668142378141
    C            2.271187603629     0.063158667422     0.893032311029
    H            1.792041174833     0.324868723566    -1.178801738733
    H            0.968461122863     1.445479528302    -0.123793662817
    H            2.613655277846    -0.964926659798     0.810201568105
    H            3.146220345141     0.704153713041     0.856104767391
    H            1.812230556676     0.181377944813     1.870229970741

  Mulliken Charges: (a.u.)
   Center  Symbol    Alpha    Beta     Spin     Total
       1     H     0.41231  0.41231  0.00000  0.17538
       2     C     3.07974  3.07974  0.00000 -0.15948
       3     O     4.30552  4.30552  0.00000 -0.61105
       4     H     0.43068  0.43068  0.00000  0.13865
       5     H     0.43073  0.43073  0.00000  0.13854
       6     C     2.98780  2.98780  0.00000  0.02439
       7     C     3.16627  3.16627  0.00000 -0.33254
       8     H     0.43059  0.43059  0.00000  0.13882
       9     H     0.42959  0.42959  0.00000  0.14082
      10     C     3.24543  3.24543  0.00000 -0.49086
      11     H     0.41912  0.41912  0.00000  0.16176
      12     H     0.40278  0.40278  0.00000  0.19444
      13     H     0.42277  0.42277  0.00000  0.15445
      14     H     0.41828  0.41828  0.00000  0.16345
      15     H     0.41839  0.41839  0.00000  0.16322

   Total alpha = 21.00000, Total beta = 21.00000, Total charge = -0.00000
