  ==> Input File <==

--------------------------------------------------------------------------
set {
	reference rhf
	basis 6-31G*
}

set_num_threads( 1 )
memory 2 gb

molecule MOL {
0 1

H	 -3.547944	 0.182291	 2.683557
O	 -2.833291	 -0.375302	 2.411039
C	 -1.957494	 0.348848	 1.585704
C	 -0.826153	 -0.574280	 1.168992
H	 -2.479873	 0.719710	 0.704858
H	 -1.557933	 1.212552	 2.115520
C	 0.198102	 0.111031	 0.262842
H	 -1.255789	 -1.435313	 0.664253
H	 -0.341830	 -0.948348	 2.066757
C	 1.331804	 -0.827780	 -0.158768
H	 -0.307404	 0.499818	 -0.617772
H	 0.621580	 0.971845	 0.778774
C	 2.723619	 -0.410569	 0.329459
H	 1.342964	 -0.912588	 -1.244120
H	 1.116806	 -1.824343	 0.220779
C	 3.243875	 0.895854	 -0.272975
H	 3.424222	 -1.207124	 0.091250
H	 2.714788	 -0.329854	 1.414619
H	 3.251977	 0.848779	 -1.358681
H	 2.637085	 1.747371	 0.016682
H	 4.259473	 1.094070	 0.055697

	symmetry c1
}
set optking {
	frozen_dihedral = ("
		2 3 4 8,
		8 4 7 10,
		16 13 10 14,
		1 2 3 5
	")
}

ee = energy('scf')
oeprop('DIPOLE', 'QUADRUPOLE', 'MULLIKEN_CHARGES')
f=open( 'psi4out.xyz', 'w' )
f.write( "21  " )
f.write( str(ee) + "\n" )
f.write( MOL.save_string_xyz() )
f.close()
--------------------------------------------------------------------------

    Molecular point group: c1

    Geometry (in Angstrom), charge = 0, multiplicity = 1:

       Center              X                  Y                   Z               Mass
    ------------   -----------------  -----------------  -----------------  -----------------
           H         -3.755596103851     0.288671918728     1.888302914959     1.007825032070
           O         -3.040943103851    -0.268921081272     1.615784914959    15.994914619560
           C         -2.165146103851     0.455228918728     0.790449914959    12.000000000000
           C         -1.033805103851    -0.467899081272     0.373737914959    12.000000000000
           H         -2.687525103851     0.826090918728    -0.090396085041     1.007825032070
           H         -1.765585103851     1.318932918728     1.320265914959     1.007825032070
           C         -0.009550103851     0.217411918728    -0.532412085041    12.000000000000
           H         -1.463441103851    -1.328932081272    -0.131001085041     1.007825032070
           H         -0.549482103851    -0.841967081272     1.271502914959     1.007825032070
           C          1.124151896149    -0.721399081272    -0.954022085041    12.000000000000
           H         -0.515056103851     0.606198918728    -1.413026085041     1.007825032070
           H          0.413927896149     1.078225918728    -0.016480085041     1.007825032070
           C          2.515966896149    -0.304188081272    -0.465795085041    12.000000000000
           H          1.135311896149    -0.806207081272    -2.039374085041     1.007825032070
           H          0.909153896149    -1.717962081272    -0.574475085041     1.007825032070
           C          3.036222896149     1.002234918728    -1.068229085041    12.000000000000
           H          3.216569896149    -1.100743081272    -0.704004085041     1.007825032070
           H          2.507135896149    -0.223473081272     0.619364914959     1.007825032070
           H          3.044324896149     0.955159918728    -2.153935085041     1.007825032070
           H          2.429432896149     1.853751918728    -0.778572085041     1.007825032070
           H          4.051820896149     1.200450918728    -0.739557085041     1.007825032070

  Charge       = 0
  Multiplicity = 1
  Basis Set: 6-31G*
  Basis Set:

    Orbital Energies (a.u.)
    -----------------------

    Doubly Occupied:

       1A    -20.551645     2A    -11.266496     3A    -11.215195
       4A    -11.214206     5A    -11.211955     6A    -11.210862
       7A    -11.208311     8A     -1.358462     9A     -1.086589
      10A     -1.032401    11A     -0.954315    12A     -0.875083
      13A     -0.811290    14A     -0.775723    15A     -0.691849
      16A     -0.659136    17A     -0.626677    18A     -0.607448
      19A     -0.577965    20A     -0.572764    21A     -0.541304
      22A     -0.523593    23A     -0.501825    24A     -0.490726
      25A     -0.482384    26A     -0.456287    27A     -0.451525
      28A     -0.443577    29A     -0.433993

  @DF-RHF Final Energy:  -310.20729521694051

   => Energetics <=

    Nuclear Repulsion Energy =            313.8020436714459152
    One-Electron Energy =               -1042.3515252113709266
    Two-Electron Energy =                 418.3421863229846736
    DFT Exchange-Correlation Energy =       0.0000000000000000
    Empirical Dispersion Energy =           0.0000000000000000
    PCM Polarization Energy =               0.0000000000000000
    EFP Energy =                            0.0000000000000000
    Total Energy =                       -310.2072952169402811

  Mulliken Charges: (a.u.)
   Center  Symbol    Alpha    Beta     Spin     Total
       1     H     0.28123  0.28123  0.00000  0.43755
       2     O     4.37179  4.37179  0.00000 -0.74358
       3     C     2.99036  2.99036  0.00000  0.01929
       4     C     3.16195  3.16195  0.00000 -0.32390
       5     H     0.43291  0.43291  0.00000  0.13418
       6     H     0.43296  0.43296  0.00000  0.13408
       7     C     3.16279  3.16279  0.00000 -0.32559
       8     H     0.41426  0.41426  0.00000  0.17147
       9     H     0.41469  0.41469  0.00000  0.17061
      10     C     3.15537  3.15537  0.00000 -0.31075
      11     H     0.42071  0.42071  0.00000  0.15858
      12     H     0.42099  0.42099  0.00000  0.15801
      13     C     3.15441  3.15441  0.00000 -0.30882
      14     H     0.42156  0.42156  0.00000  0.15687
      15     H     0.41729  0.41729  0.00000  0.16543
      16     C     3.24052  3.24052  0.00000 -0.48104
      17     H     0.42116  0.42116  0.00000  0.15769
      18     H     0.42310  0.42310  0.00000  0.15380
      19     H     0.42209  0.42209  0.00000  0.15581
      20     H     0.42075  0.42075  0.00000  0.15850
      21     H     0.41910  0.41910  0.00000  0.16180

   Total alpha = 29.00000, Total beta = 29.00000, Total charge =  0.00000
