  ==> Input File <==

--------------------------------------------------------------------------
set {
	reference rhf
	basis 6-31G*
}

set_num_threads( 1 )
memory 2 gb

molecule MOL {
0 1

H	 -2.330117	 -0.733506	 -1.245878
O	 -2.310168	 -0.871793	 -0.309793
C	 -2.026376	 0.340750	 0.341611
C	 -0.673256	 0.843270	 -0.132153
H	 -2.792215	 1.080697	 0.115987
H	 -2.013526	 0.200402	 1.421792
C	 0.486613	 -0.083066	 0.235839
H	 -0.715586	 0.970948	 -1.210718
H	 -0.508072	 1.829858	 0.297090
C	 1.840406	 0.433480	 -0.254303
H	 0.300215	 -1.068318	 -0.178947
H	 0.519509	 -0.203625	 1.318070
C	 3.000220	 -0.489290	 0.118523
H	 1.809207	 0.553576	 -1.335192
H	 2.021860	 1.424500	 0.157276
H	 2.864959	 -1.479103	 -0.307933
H	 3.946603	 -0.099227	 -0.243630
H	 3.080049	 -0.602997	 1.196117

	symmetry c1
}
set optking {
	frozen_dihedral = ("
		14 10 7 11,
		10 7 4 8,
		2 3 4 8
	")
}

ee = energy('scf')
oeprop('DIPOLE', 'QUADRUPOLE', 'MULLIKEN_CHARGES')
f=open( 'psi4out.xyz', 'w' )
f.write( "18  " )
f.write( str(ee) + "\n" )
f.write( MOL.save_string_xyz() )
f.close()
--------------------------------------------------------------------------

    Molecular point group: c1

    Geometry (in Angstrom), charge = 0, multiplicity = 1:

       Center              X                  Y                   Z               Mass
    ------------   -----------------  -----------------  -----------------  -----------------
           H         -2.339330557525    -0.739015624443    -1.231608316396     1.007825032070
           O         -2.319381557525    -0.877302624443    -0.295523316396    15.994914619560
           C         -2.035589557525     0.335240375557     0.355880683604    12.000000000000
           C         -0.682469557525     0.837760375557    -0.117883316396    12.000000000000
           H         -2.801428557525     1.075187375557     0.130256683604     1.007825032070
           H         -2.022739557525     0.194892375557     1.436061683604     1.007825032070
           C          0.477399442475    -0.088575624443     0.250108683604    12.000000000000
           H         -0.724799557525     0.965438375557    -1.196448316396     1.007825032070
           H         -0.517285557525     1.824348375557     0.311359683604     1.007825032070
           C          1.831192442475     0.427970375557    -0.240033316396    12.000000000000
           H          0.291001442475    -1.073827624443    -0.164677316396     1.007825032070
           H          0.510295442475    -0.209134624443     1.332339683604     1.007825032070
           C          2.991006442475    -0.494799624443     0.132792683604    12.000000000000
           H          1.799993442475     0.548066375557    -1.320922316396     1.007825032070
           H          2.012646442475     1.418990375557     0.171545683604     1.007825032070
           H          2.855745442475    -1.484612624443    -0.293663316396     1.007825032070
           H          3.937389442475    -0.104736624443    -0.229360316396     1.007825032070
           H          3.070835442475    -0.608506624443     1.210386683604     1.007825032070

  Charge       = 0
  Multiplicity = 1
  Basis Set: 6-31G*
  Basis Set:

    Orbital Energies (a.u.)
    -----------------------

    Doubly Occupied:

       1A    -20.552144     2A    -11.269200     3A    -11.216165
       4A    -11.214979     5A    -11.211296     6A    -11.207746
       7A     -1.360624     8A     -1.078593     9A     -1.010863
      10A     -0.916809    11A     -0.828550    12A     -0.792400
      13A     -0.678381    14A     -0.654117    15A     -0.616273
      16A     -0.612344    17A     -0.573840    18A     -0.554127
      19A     -0.537438    20A     -0.494141    21A     -0.486745
      22A     -0.475569    23A     -0.464022    24A     -0.456930
      25A     -0.422683

  @DF-RHF Final Energy:  -271.17781383839696

   => Energetics <=

    Nuclear Repulsion Energy =            249.7735366968966559
    One-Electron Energy =                -862.5308632708588448
    Two-Electron Energy =                 341.5795127355652312
    DFT Exchange-Correlation Energy =       0.0000000000000000
    Empirical Dispersion Energy =           0.0000000000000000
    PCM Polarization Energy =               0.0000000000000000
    EFP Energy =                            0.0000000000000000
    Total Energy =                       -271.1778138383970145

  Mulliken Charges: (a.u.)
   Center  Symbol    Alpha    Beta     Spin     Total
       1     H     0.28203  0.28203  0.00000  0.43593
       2     O     4.36878  4.36878  0.00000 -0.73756
       3     C     2.99604  2.99604  0.00000  0.00792
       4     C     3.16859  3.16859  0.00000 -0.33719
       5     H     0.42765  0.42765  0.00000  0.14470
       6     H     0.41584  0.41584  0.00000  0.16832
       7     C     3.15036  3.15036  0.00000 -0.30072
       8     H     0.42918  0.42918  0.00000  0.14164
       9     H     0.42400  0.42400  0.00000  0.15200
      10     C     3.15135  3.15135  0.00000 -0.30271
      11     H     0.41185  0.41185  0.00000  0.17629
      12     H     0.42429  0.42429  0.00000  0.15143
      13     C     3.23899  3.23899  0.00000 -0.47798
      14     H     0.42449  0.42449  0.00000  0.15103
      15     H     0.42414  0.42414  0.00000  0.15173
      16     H     0.42103  0.42103  0.00000  0.15794
      17     H     0.41987  0.41987  0.00000  0.16025
      18     H     0.42151  0.42151  0.00000  0.15698

   Total alpha = 25.00000, Total beta = 25.00000, Total charge = -0.00000
