  ==> Input File <==

--------------------------------------------------------------------------
set {
	reference rhf
	basis 6-31G*
}

set_num_threads( 4 )
memory 2 gb

molecule MOL {
0 1

H	 2.571221	 -0.629743	 0.475806
O	 2.064459	 -0.086912	 -0.111827
C	 0.745630	 0.005118	 0.354752
H	 0.739005	 0.037656	 1.444976
C	 -0.064159	 -1.194875	 -0.122754
C	 -0.046302	 1.193543	 -0.190431
H	 0.197384	 -1.376065	 -1.160690
H	 0.162855	 -2.097978	 0.431858
C	 -1.535782	 -0.752177	 0.006642
H	 0.154512	 1.271315	 -1.255561
H	 0.226209	 2.140461	 0.267302
C	 -1.509193	 0.801505	 0.065617
H	 -2.127797	 -1.112194	 -0.826847
H	 -1.986849	 -1.158408	 0.905561
H	 -2.183670	 1.254107	 -0.651985
H	 -1.821727	 1.144320	 1.047089

	symmetry c1
}
set optking {
	frozen_dihedral = ("
		1 2 3 6
	")
}

ee = optimize('scf')
oeprop('DIPOLE', 'QUADRUPOLE', 'MULLIKEN_CHARGES')
f=open( 'psi4out.xyz', 'w' )
f.write( "16  " )
f.write( str(ee) + "\n" )
f.write( MOL.save_string_xyz() )
f.close()
--------------------------------------------------------------------------

    Molecular point group: c1
  Charge       = 0
  Multiplicity = 1
  Basis Set: 6-31G*
  Basis Set:
  @DF-RHF Final Energy:  -270.01245250566365
    Total Energy =                       -270.0124525056635321
    Molecular point group: c1
  Basis Set: 6-31G*
  Basis Set:
  Basis Set: 6-31G*
  Basis Set:
  @DF-RHF Final Energy:  -270.01391487377560
    Total Energy =                       -270.0139148737756614
  Basis Set: 6-31G*
  Basis Set:
  Basis Set: 6-31G*
  Basis Set:
  @DF-RHF Final Energy:  -270.01404132475778
    Total Energy =                       -270.0140413247577271
  Basis Set: 6-31G*
  Basis Set:
  Basis Set: 6-31G*
  Basis Set:
  @DF-RHF Final Energy:  -270.01404714252857
    Total Energy =                       -270.0140471425287387
  Basis Set: 6-31G*
  Basis Set:
  @DF-RHF Final Energy:  -270.01404992048907
    Total Energy =                       -270.0140499204890148
  @DF-RHF Final Energy:  -270.01405725590354
    Total Energy =                       -270.0140572559036514
  @DF-RHF Final Energy:  -270.01406489968190
    Total Energy =                       -270.0140648996820119
  @DF-RHF Final Energy:  -270.01407200794483
    Total Energy =                       -270.0140720079450602
  @DF-RHF Final Energy:  -270.01407792882003
    Total Energy =                       -270.0140779288199155
  Basis Set: 6-31G*
  Basis Set:
  @DF-RHF Final Energy:  -270.01408339674214
    Total Energy =                       -270.0140833967420804
  Basis Set: 6-31G*
  Basis Set:
  Basis Set: 6-31G*
  Basis Set:
  @DF-RHF Final Energy:  -270.01408471636296
    Total Energy =                       -270.0140847163630156
  Basis Set: 6-31G*
  Basis Set:
  Basis Set: 6-31G*
  Basis Set:
  @DF-RHF Final Energy:  -270.01408592423343
    Total Energy =                       -270.0140859242337115
  Basis Set: 6-31G*
  Basis Set:
  Charge       = 0
  Multiplicity = 1
  Basis Set: 6-31G*
  Basis Set:

    Orbital Energies (a.u.)
    -----------------------

    Doubly Occupied:

       1A    -20.552080     2A    -11.268880     3A    -11.215594
       4A    -11.214374     5A    -11.209172     6A    -11.207737
       7A     -1.360832     8A     -1.112166     9A     -0.964387
      10A     -0.947668    11A     -0.784124    12A     -0.776564
      13A     -0.708457    14A     -0.653660    15A     -0.619149
      16A     -0.581865    17A     -0.560373    18A     -0.522528
      19A     -0.512401    20A     -0.480422    21A     -0.469310
      22A     -0.455288    23A     -0.451108    24A     -0.414147

  @DF-RHF Final Energy:  -270.01408622238534

   => Energetics <=

    Nuclear Repulsion Energy =            255.0074919316688522
    One-Electron Energy =                -871.9585893441179678
    Two-Electron Energy =                 346.9370111900636857
    DFT Exchange-Correlation Energy =       0.0000000000000000
    Empirical Dispersion Energy =           0.0000000000000000
    PCM Polarization Energy =               0.0000000000000000
    EFP Energy =                            0.0000000000000000
    Total Energy =                       -270.0140862223854583
    Molecular point group: c1
  Basis Set: 6-31G*
  Basis Set:

  -Total Gradient:
     Atom            X                  Y                   Z
    ------   -----------------  -----------------  -----------------
       1        0.000286098211     0.001141536806     0.000879428315
       2       -0.000254022339    -0.001219245854    -0.000796880160
       3       -0.000281907727    -0.000387632600    -0.000827997183
       4       -0.000003637746     0.000000002459     0.000000140640
       5        0.000001312963     0.000003567346     0.000003358212
       6        0.000252828069     0.000474105745     0.000746533116
       7       -0.000002032855    -0.000010223994     0.000000986335
       8        0.000001540958     0.000004235417     0.000008462424
       9        0.000003629813     0.000000916728     0.000002789312
      10       -0.000000516970    -0.000013593909    -0.000001441833
      11        0.000000424882     0.000006534550    -0.000011597785
      12       -0.000001762460     0.000000575295    -0.000006013854
      13        0.000010477432     0.000006898626    -0.000014242666
      14       -0.000014771111    -0.000007087662    -0.000009018218
      15       -0.000012754920     0.000009164506     0.000014206749
      16        0.000015093799    -0.000009753460     0.000011286598

  **** Optimization is complete! (in 13 steps) ****
    Final optimized geometry and variables:
    Molecular point group: c1

    Geometry (in Angstrom), charge = 0, multiplicity = 1:

    H            2.607412228355    -0.551962268818     0.434692845152
    O            2.066930543902     0.002602135512    -0.108939770248
    C            0.742774328266    -0.022413719649     0.354680436266
    H            0.731536300171    -0.020426250933     1.444975878596
    C           -0.086628807040    -1.198685617608    -0.159824639577
    C           -0.023752988616     1.191899692922    -0.155800718522
    H            0.134234763559    -1.323853181161    -1.215967734803
    H            0.143185063879    -2.136830499725     0.336694070249
    C           -1.541549550056    -0.746768286948     0.049153445078
    H            0.230671405678     1.326865232751    -1.202940916732
    H            0.245281642828     2.104011684491     0.364416278218
    C           -1.506448439805     0.808412964114     0.006837765437
    H           -2.204133875639    -1.162641229320    -0.701048709694
    H           -1.909252766422    -1.087498704108     1.011849191537
    H           -2.109847142848     1.205139159258    -0.801426108172
    H           -1.910574938956     1.219580831110     0.926008538762

  Mulliken Charges: (a.u.)
   Center  Symbol    Alpha    Beta     Spin     Total
       1     H     0.28124  0.28124  0.00000  0.43752
       2     O     4.37633  4.37633  0.00000 -0.75267
       3     C     2.90981  2.90981  0.00000  0.18039
       4     H     0.43148  0.43148  0.00000  0.13705
       5     C     3.17191  3.17191  0.00000 -0.34383
       6     C     3.16598  3.16598  0.00000 -0.33196
       7     H     0.41318  0.41318  0.00000  0.17363
       8     H     0.42091  0.42091  0.00000  0.15818
       9     C     3.16935  3.16935  0.00000 -0.33870
      10     H     0.41164  0.41164  0.00000  0.17673
      11     H     0.41386  0.41386  0.00000  0.17228
      12     C     3.16948  3.16948  0.00000 -0.33896
      13     H     0.41418  0.41418  0.00000  0.17164
      14     H     0.41845  0.41845  0.00000  0.16310
      15     H     0.41449  0.41449  0.00000  0.17101
      16     H     0.41770  0.41770  0.00000  0.16459

   Total alpha = 24.00000, Total beta = 24.00000, Total charge = -0.00000
