  ==> Input File <==

--------------------------------------------------------------------------
set {
	reference rhf
	basis 6-31G*
}

set_num_threads( 4 )
memory 2 gb

molecule MOL {
0 1

H	 3.300686	 -0.424974	 -0.019734
C	 2.240608	 -0.244311	 -0.015492
C	 1.495484	 -0.535789	 1.120594
C	 1.626680	 0.277256	 -1.142007
H	 1.979279	 -0.940430	 1.991073
C	 0.133897	 -0.304995	 1.129436
H	 2.206316	 0.501471	 -2.018931
C	 0.260640	 0.508339	 -1.131874
H	 -0.459777	 -0.523410	 1.997190
C	 -0.488460	 0.219100	 0.000000
H	 -0.222326	 0.913622	 -2.004477
C	 -1.949954	 0.470334	 0.000000
O	 -2.781584	 -0.381627	 0.000000
H	 -2.238022	 1.526388	 0.000000

	symmetry c1
}
set optking {
	frozen_dihedral = ("
		8 10 12 14
	")
}

ee = optimize('scf')
oeprop('DIPOLE', 'QUADRUPOLE', 'MULLIKEN_CHARGES')
f=open( 'psi4out.xyz', 'w' )
f.write( "14  " )
f.write( str(ee) + "\n" )
f.write( MOL.save_string_xyz() )
f.close()
--------------------------------------------------------------------------

    Molecular point group: c1
  Charge       = 0
  Multiplicity = 1
  Basis Set: 6-31G*
  Basis Set:
  @DF-RHF Final Energy:  -343.42024583651840
    Total Energy =                       -343.4202458365182338
    Molecular point group: c1
  Basis Set: 6-31G*
  Basis Set:
  Basis Set: 6-31G*
  Basis Set:
  @DF-RHF Final Energy:  -343.41874852900531
    Total Energy =                       -343.4187485290053701
  Basis Set: 6-31G*
  Basis Set:
  Basis Set: 6-31G*
  Basis Set:
  @DF-RHF Final Energy:  -343.42087994980506
    Total Energy =                       -343.4208799498049984
  Basis Set: 6-31G*
  Basis Set:
  Basis Set: 6-31G*
  Basis Set:
  @DF-RHF Final Energy:  -343.42097598979558
    Total Energy =                       -343.4209759897956360
  Basis Set: 6-31G*
  Basis Set:
  Basis Set: 6-31G*
  Basis Set:
  @DF-RHF Final Energy:  -343.42097722426433
    Total Energy =                       -343.4209772242643339
  Basis Set: 6-31G*
  Basis Set:
  Charge       = 0
  Multiplicity = 1
  Basis Set: 6-31G*
  Basis Set:

    Orbital Energies (a.u.)
    -----------------------

    Doubly Occupied:

       1A    -20.571135     2A    -11.335281     3A    -11.250514
       4A    -11.248562     5A    -11.246375     6A    -11.244548
       7A    -11.243353     8A    -11.242399     9A     -1.410262
      10A     -1.168883    11A     -1.044537    12A     -1.028943
      13A     -0.886880    14A     -0.840780    15A     -0.794171
      16A     -0.720454    17A     -0.676514    18A     -0.651582
      19A     -0.636354    20A     -0.616406    21A     -0.600566
      22A     -0.535808    23A     -0.527489    24A     -0.509702
      25A     -0.501909    26A     -0.422062    27A     -0.346667
      28A     -0.345749

  @DF-RHF Final Energy:  -343.42097750142085

   => Energetics <=

    Nuclear Repulsion Energy =            322.6720806525294734
    One-Electron Energy =               -1104.8903472805036472
    Two-Electron Energy =                 438.7972891265531530
    DFT Exchange-Correlation Energy =       0.0000000000000000
    Empirical Dispersion Energy =           0.0000000000000000
    PCM Polarization Energy =               0.0000000000000000
    EFP Energy =                            0.0000000000000000
    Total Energy =                       -343.4209775014209640
    Molecular point group: c1
  Basis Set: 6-31G*
  Basis Set:

  -Total Gradient:
     Atom            X                  Y                   Z
    ------   -----------------  -----------------  -----------------
       1        0.000000643186    -0.000008990525     0.000003145124
       2       -0.000002611432     0.000019388837    -0.000033410146
       3       -0.000022910748     0.000002157781     0.000014130013
       4        0.000051383755    -0.000009897618     0.000019689066
       5        0.000007034319    -0.000001586874    -0.000005818499
       6        0.000036895370     0.000008495558     0.000020854084
       7       -0.000000517479    -0.000000026471     0.000002421356
       8       -0.000722749890    -0.004779431241    -0.001571716672
       9       -0.000000906261     0.000006768524    -0.000009197945
      10        0.000947310245     0.007047520648     0.004323972530
      11       -0.000001449968     0.000002417047     0.000002017803
      12       -0.000284359837    -0.002498332423    -0.008983631665
      13        0.000010593719     0.000028519235    -0.000001300760
      14       -0.000018354982     0.000182997524     0.006218845710

  **** Optimization is complete! (in 6 steps) ****
    Final optimized geometry and variables:
    Molecular point group: c1

    Geometry (in Angstrom), charge = 0, multiplicity = 1:

    H            3.297653079110    -0.447669655634    -0.022104514720
    C            2.240388006847    -0.252137764858    -0.018946478214
    C            1.486869507528    -0.534316884056     1.109785859384
    C            1.630205485754     0.275242958190    -1.145517728242
    H            1.957714789128    -0.951714514757     1.981493809412
    C            0.123441171998    -0.293742906377     1.111922508827
    H            2.210052415965     0.481918581910    -2.026874400916
    C            0.269590490758     0.534586374422    -1.138039273812
    H           -0.467758567676    -0.535925706078     1.976469599693
    C           -0.485272097401     0.261971089923    -0.005510175473
    H           -0.201217362893     0.947786230051    -2.013455421194
    C           -1.968489729113     0.472291921800    -0.016066086430
    O           -2.756096208355    -0.411413824773     0.086461672675
    H           -2.308830575893     1.511525238894    -0.048820149462

  Mulliken Charges: (a.u.)
   Center  Symbol    Alpha    Beta     Spin     Total
       1     H     0.39568  0.39568  0.00000  0.20864
       2     C     3.09695  3.09695  0.00000 -0.19390
       3     C     3.09977  3.09977  0.00000 -0.19955
       4     C     3.09911  3.09911  0.00000 -0.19821
       5     H     0.39503  0.39503  0.00000  0.20995
       6     C     3.09791  3.09791  0.00000 -0.19582
       7     H     0.39540  0.39540  0.00000  0.20921
       8     C     3.10430  3.10430  0.00000 -0.20860
       9     H     0.38828  0.38828  0.00000  0.22345
      10     C     3.03364  3.03364  0.00000 -0.06727
      11     H     0.39394  0.39394  0.00000  0.21213
      12     C     2.85250  2.85250  0.00000  0.29500
      13     O     4.22439  4.22439  0.00000 -0.44879
      14     H     0.42311  0.42311  0.00000  0.15377

   Total alpha = 28.00000, Total beta = 28.00000, Total charge =  0.00000
