  ==> Input File <==

--------------------------------------------------------------------------
set {
	reference rhf
	basis cc-pvtz
}

set_num_threads( 4 )
memory 2 gb

molecule MOL {
0 1

H	 3.721907	 -0.933076	 -0.066039
O	 2.824271	 -1.154299	 0.131461
C	 2.076458	 -0.067370	 -0.038225
C	 0.626018	 -0.337582	 0.258241
O	 2.538288	 0.965419	 -0.381593
C	 -0.267326	 0.883135	 0.076490
H	 0.325620	 -1.161483	 -0.378003
H	 0.574537	 -0.713685	 1.275261
C	 -1.726822	 0.642622	 0.463839
H	 -0.210803	 1.217591	 -0.953497
H	 0.129920	 1.693110	 0.675679
C	 -2.480891	 -0.340606	 -0.429852
H	 -2.243098	 1.597649	 0.438609
H	 -1.776542	 0.301208	 1.495542
C	 -2.546729	 -1.744285	 0.163299
H	 -3.489776	 0.028551	 -0.593886
H	 -2.012134	 -0.394067	 -1.407279
H	 -3.087843	 -2.420717	 -0.488098
H	 -3.047821	 -1.739161	 1.125369
H	 -1.552718	 -2.152944	 0.311944

	symmetry c1
}
set optking {
	frozen_dihedral = ("
		16 12 9 6
	")
}

ee = optimize('scf')
oeprop('DIPOLE', 'QUADRUPOLE', 'MULLIKEN_CHARGES')
f=open( 'psi4out.xyz', 'w' )
f.write( "20  " )
f.write( str(ee) + "\n" )
f.write( MOL.save_string_xyz() )
f.close()
--------------------------------------------------------------------------

    Molecular point group: c1
  Charge       = 0
  Multiplicity = 1
  Basis Set: CC-PVTZ
  Basis Set:
  @DF-RHF Final Energy:  -384.08958656685081
    Total Energy =                       -384.0895865668506985
    Molecular point group: c1
  Basis Set: CC-PVTZ
  Basis Set:
  Basis Set: CC-PVTZ
  Basis Set:
  @DF-RHF Final Energy:  -384.09014452445240
    Total Energy =                       -384.0901445244526258
  Basis Set: CC-PVTZ
  Basis Set:
  Basis Set: CC-PVTZ
  Basis Set:
  @DF-RHF Final Energy:  -384.09022668005849
    Total Energy =                       -384.0902266800582083
  Basis Set: CC-PVTZ
  Basis Set:
  Basis Set: CC-PVTZ
  Basis Set:
  @DF-RHF Final Energy:  -384.08999407545639
    Total Energy =                       -384.0899940754562749
  Basis Set: CC-PVTZ
  Basis Set:
  Basis Set: CC-PVTZ
  Basis Set:
  @DF-RHF Final Energy:  -384.09025302648627
    Total Energy =                       -384.0902530264854704
  Basis Set: CC-PVTZ
  Basis Set:
  Charge       = 0
  Multiplicity = 1
  Basis Set: CC-PVTZ
  Basis Set:

    Orbital Energies (a.u.)
    -----------------------

    Doubly Occupied:

       1A    -20.603977     2A    -20.540645     3A    -11.373465
       4A    -11.238746     5A    -11.221145     6A    -11.219094
       7A    -11.218321     8A    -11.211809     9A     -1.477570
      10A     -1.369114    11A     -1.096356    12A     -1.039586
      13A     -0.964625    14A     -0.874738    15A     -0.814465
      16A     -0.777487    17A     -0.703829    18A     -0.693503
      19A     -0.667571    20A     -0.625472    21A     -0.613782
      22A     -0.598711    23A     -0.580787    24A     -0.555582
      25A     -0.536199    26A     -0.517724    27A     -0.500686
      28A     -0.484529    29A     -0.470390    30A     -0.464810
      31A     -0.457340    32A     -0.444266

  @DF-RHF Final Energy:  -384.09025416000674

   => Energetics <=

    Nuclear Repulsion Energy =            382.1055017064654180
    One-Electron Energy =               -1280.4788470943356060
    Two-Electron Energy =                 514.2830912278631104
    DFT Exchange-Correlation Energy =       0.0000000000000000
    Empirical Dispersion Energy =           0.0000000000000000
    PCM Polarization Energy =               0.0000000000000000
    EFP Energy =                            0.0000000000000000
    Total Energy =                       -384.0902541600070208
    Molecular point group: c1
  Basis Set: CC-PVTZ
  Basis Set:

  -Total Gradient:
     Atom            X                  Y                   Z
    ------   -----------------  -----------------  -----------------
       1       -0.000007058955     0.000008245036    -0.000000394133
       2       -0.000022905064    -0.000019781309     0.000000096929
       3        0.000014528604     0.000025370685     0.000020182494
       4        0.000004971502    -0.000027977392    -0.000022570233
       5       -0.000014579390     0.000007444044    -0.000004556613
       6       -0.000116741878     0.000327420502    -0.000255234229
       7       -0.000001187054    -0.000006437005     0.000002208884
       8       -0.000002134220     0.000005140215     0.000003600701
       9        0.000235181298    -0.000403601717     0.000259527451
      10       -0.000009316148    -0.000007171149     0.000009983502
      11        0.000007741800     0.000013054465     0.000005136653
      12       -0.000269057624    -0.000177381975     0.000456518380
      13        0.000003178989     0.000011765252    -0.000001139334
      14        0.000013655969    -0.000004711411    -0.000007984994
      15       -0.000011935018    -0.000004558227    -0.000016516006
      16        0.000156831390     0.000276394430    -0.000462280893
      17        0.000000476257    -0.000030697960     0.000025178588
      18       -0.000001985104    -0.000010443858    -0.000003412083
      19       -0.000001935741     0.000014685299    -0.000008544064
      20        0.000022270395     0.000003242075     0.000000198999

  **** Optimization is complete! (in 6 steps) ****
    Final optimized geometry and variables:
    Molecular point group: c1

    Geometry (in Angstrom), charge = 0, multiplicity = 1:

    H            3.558184566570    -0.741667396659    -0.110656640935
    O            2.661039481994    -0.973261194403     0.077021146694
    C            1.906998910925     0.112845017173    -0.069073169948
    C            0.456774134528    -0.174877566487     0.213627158805
    O            2.363208345678     1.156872057070    -0.384858704472
    C           -0.441462927464     1.044896875812     0.056059439028
    H            0.165094935152    -0.982367325067    -0.447312150797
    H            0.403200658790    -0.578560222078     1.219629810972
    C           -1.907555439941     0.810301875116     0.427844342773
    H           -0.381321392933     1.398733191042    -0.967119876816
    H           -0.047680092350     1.844694537676     0.671465857911
    C           -2.669002331233    -0.201370750462    -0.448922697624
    H           -2.404873734610     1.771660258470     0.363306848022
    H           -1.975492384861     0.510865904146     1.470685794325
    C           -2.782041061735    -1.604911606760     0.143554019286
    H           -3.671776893263     0.172127234724    -0.625314998951
    H           -2.201771516842    -0.256456762279    -1.428311166929
    H           -3.325195911919    -2.264182913508    -0.524068904859
    H           -3.315190692693    -1.580746369457     1.087927951535
    H           -1.812678169348    -2.051965952834     0.328406438832

  Mulliken Charges: (a.u.)
   Center  Symbol    Alpha    Beta     Spin     Total
       1     H     0.38225  0.38225  0.00000  0.23550
       2     O     4.16034  4.16034  0.00000 -0.32068
       3     C     2.80473  2.80473  0.00000  0.39055
       4     C     3.11627  3.11627  0.00000 -0.23253
       5     O     4.19058  4.19058  0.00000 -0.38116
       6     C     3.08991  3.08991  0.00000 -0.17981
       7     H     0.43610  0.43610  0.00000  0.12781
       8     H     0.43560  0.43560  0.00000  0.12880
       9     C     3.10401  3.10401  0.00000 -0.20801
      10     H     0.44589  0.44589  0.00000  0.10821
      11     H     0.43973  0.43973  0.00000  0.12053
      12     C     3.10076  3.10076  0.00000 -0.20152
      13     H     0.44068  0.44068  0.00000  0.11864
      14     H     0.45445  0.45445  0.00000  0.09110
      15     C     3.14792  3.14792  0.00000 -0.29584
      16     H     0.44386  0.44386  0.00000  0.11229
      17     H     0.45140  0.45140  0.00000  0.09721
      18     H     0.44716  0.44716  0.00000  0.10569
      19     H     0.45341  0.45341  0.00000  0.09319
      20     H     0.45498  0.45498  0.00000  0.09004

   Total alpha = 32.00000, Total beta = 32.00000, Total charge =  0.00000
