  ==> Input File <==

--------------------------------------------------------------------------
set {
	reference rhf
	basis 6-31G*
}

set_num_threads( 4 )
memory 2 gb

molecule MOL {
0 1

H	 2.779714	 0.758689	 -0.330059
N	 2.332695	 -0.069570	 0.000000
C	 0.936681	 -0.007078	 0.000000
H	 2.706562	 -0.875455	 -0.453375
C	 0.227108	 -0.002120	 -1.198267
C	 0.227108	 -0.002120	 1.198267
H	 0.761569	 -0.014657	 -2.132680
C	 -1.156334	 0.010459	 -1.192360
H	 0.761569	 -0.014657	 2.132680
C	 -1.156334	 0.010459	 1.192360
H	 -1.684791	 0.014915	 -2.129421
C	 -1.862085	 0.017996	 0.000000
H	 -1.684791	 0.014915	 2.129421
H	 -2.936703	 0.028387	 0.000000

	symmetry c1
}
set optking {
	frozen_dihedral = ("
		1 2 3 5
	")
}

ee = optimize('scf')
oeprop('DIPOLE', 'QUADRUPOLE', 'MULLIKEN_CHARGES')
f=open( 'psi4out.xyz', 'w' )
f.write( "14  " )
f.write( str(ee) + "\n" )
f.write( MOL.save_string_xyz() )
f.close()
--------------------------------------------------------------------------

    Molecular point group: c1
  Charge       = 0
  Multiplicity = 1
  Basis Set: 6-31G*
  Basis Set:
  @DF-RHF Final Energy:  -285.72240579411948
    Total Energy =                       -285.7224057941194815
    Molecular point group: c1
  Basis Set: 6-31G*
  Basis Set:
  Basis Set: 6-31G*
  Basis Set:
  @DF-RHF Final Energy:  -285.72420476826977
    Total Energy =                       -285.7242047682700559
  Basis Set: 6-31G*
  Basis Set:
  Basis Set: 6-31G*
  Basis Set:
  @DF-RHF Final Energy:  -285.72455572013428
    Total Energy =                       -285.7245557201343331
  Basis Set: 6-31G*
  Basis Set:
  Basis Set: 6-31G*
  Basis Set:
  @DF-RHF Final Energy:  -285.72457531041209
    Total Energy =                       -285.7245753104120922
  Basis Set: 6-31G*
  Basis Set:
  Charge       = 0
  Multiplicity = 1
  Basis Set: 6-31G*
  Basis Set:

    Orbital Energies (a.u.)
    -----------------------

    Doubly Occupied:

       1A    -15.547189     2A    -11.259171     3A    -11.229902
       4A    -11.227921     5A    -11.225898     6A    -11.225653
       7A    -11.220495     8A     -1.205256     9A     -1.126396
      10A     -1.011503    11A     -0.985726    12A     -0.826307
      13A     -0.806317    14A     -0.700864    15A     -0.659111
      16A     -0.645472    17A     -0.625004    18A     -0.589517
      19A     -0.582250    20A     -0.505268    21A     -0.495009
      22A     -0.491861    23A     -0.408600    24A     -0.330978
      25A     -0.323083

  @DF-RHF Final Energy:  -285.72457701147391

   => Energetics <=

    Nuclear Repulsion Energy =            272.3077686681185696
    One-Electron Energy =                -925.5551885636539282
    Two-Electron Energy =                 367.5228428840612196
    DFT Exchange-Correlation Energy =       0.0000000000000000
    Empirical Dispersion Energy =           0.0000000000000000
    PCM Polarization Energy =               0.0000000000000000
    EFP Energy =                            0.0000000000000000
    Total Energy =                       -285.7245770114741390
    Molecular point group: c1
  Basis Set: 6-31G*
  Basis Set:

  -Total Gradient:
     Atom            X                  Y                   Z
    ------   -----------------  -----------------  -----------------
       1        0.000024249045    -0.000396552501    -0.001160299847
       2        0.000009520913     0.000964352239     0.001475997463
       3       -0.000114801755    -0.001491823974    -0.000155107102
       4        0.000019902132     0.000003346540    -0.000033140323
       5       -0.000006795267     0.000958684159    -0.000074032696
       6        0.000109541474    -0.000019130847    -0.000011700013
       7       -0.000006206391     0.000000259030     0.000015300238
       8        0.000037688140    -0.000051348401    -0.000010335787
       9        0.000015725594     0.000001548506    -0.000002464439
      10       -0.000057290309    -0.000040231113    -0.000061553958
      11       -0.000025775774     0.000004612409     0.000007050846
      12       -0.000005834002     0.000067715553     0.000045686953
      13        0.000007015872     0.000005496460    -0.000012004837
      14       -0.000006939669    -0.000006928060    -0.000023396500

  **** Optimization is complete! (in 5 steps) ****
    Final optimized geometry and variables:
    Molecular point group: c1

    Geometry (in Angstrom), charge = 0, multiplicity = 1:

    H            2.748282216001     0.803898935196    -0.254471259071
    N            2.358876535208    -0.066703879810     0.054171461084
    C            0.927067290464    -0.032439460389     0.001773295518
    H            2.721506094983    -0.777911791615    -0.551157901112
    C            0.221372803696    -0.017589314986    -1.195865990636
    C            0.224689327639    -0.001283284235     1.197041011943
    H            0.758901764760    -0.036948074084    -2.128806225337
    C           -1.163159193271     0.019205391050    -1.196733294346
    H            0.777217349682    -0.017278811701     2.118211164142
    C           -1.160785627541     0.044357743708     1.197500296736
    H           -1.696706692409     0.026173925990    -2.130686087562
    C           -1.859091862251     0.052943956809     0.001410658025
    H           -1.693170722157     0.068403948422     2.131757227140
    H           -2.934002453848     0.084202861599     0.001441694131

  Mulliken Charges: (a.u.)
   Center  Symbol    Alpha    Beta     Spin     Total
       1     H     0.32462  0.32462  0.00000  0.35076
       2     N     3.93710  3.93710  0.00000 -0.87420
       3     C     2.90568  2.90568  0.00000  0.18864
       4     H     0.32638  0.32638  0.00000  0.34724
       5     C     3.11063  3.11063  0.00000 -0.22127
       6     C     3.09770  3.09770  0.00000 -0.19539
       7     H     0.40331  0.40331  0.00000  0.19339
       8     C     3.09937  3.09937  0.00000 -0.19873
       9     H     0.39286  0.39286  0.00000  0.21428
      10     C     3.09977  3.09977  0.00000 -0.19955
      11     H     0.39999  0.39999  0.00000  0.20002
      12     C     3.10263  3.10263  0.00000 -0.20527
      13     H     0.39960  0.39960  0.00000  0.20080
      14     H     0.40036  0.40036  0.00000  0.19928

   Total alpha = 25.00000, Total beta = 25.00000, Total charge =  0.00000
