  ==> Input File <==

--------------------------------------------------------------------------
set {
	reference rhf
	basis 6-31G*
}

set_num_threads( 4 )
memory 2 gb

molecule MOL {
0 1

H	 -1.836216	 1.387520	 -0.000064
C	 -1.301823	 0.443321	 -0.000031
O	 -0.003969	 0.658512	 0.000451
O	 -1.829879	 -0.616434	 -0.000857
C	 0.539806	 1.391798	 -1.096721
C	 2.031660	 1.507813	 -0.870377
H	 0.063102	 2.361509	 -1.138335
H	 0.312025	 0.867084	 -2.014373
H	 2.240852	 2.028813	 0.056894
H	 2.485608	 2.061495	 -1.685607
H	 2.491135	 0.527222	 -0.823358

	symmetry c1
}
set optking {
	frozen_dihedral = ("
		5 3 2 4
	")
}

ee = optimize('scf')
oeprop('DIPOLE', 'QUADRUPOLE', 'MULLIKEN_CHARGES')
f=open( 'psi4out.xyz', 'w' )
f.write( "11  " )
f.write( str(ee) + "\n" )
f.write( MOL.save_string_xyz() )
f.close()
--------------------------------------------------------------------------

    Molecular point group: c1
  Charge       = 0
  Multiplicity = 1
  Basis Set: 6-31G*
  Basis Set:
  @DF-RHF Final Energy:  -266.81068640862054
    Total Energy =                       -266.8106864086205405
    Molecular point group: c1
  Basis Set: 6-31G*
  Basis Set:
  Basis Set: 6-31G*
  Basis Set:
  @DF-RHF Final Energy:  -266.81167229892924
    Total Energy =                       -266.8116722989294090
  Basis Set: 6-31G*
  Basis Set:
  Basis Set: 6-31G*
  Basis Set:
  @DF-RHF Final Energy:  -266.81011762474054
    Total Energy =                       -266.8101176247404283
  Basis Set: 6-31G*
  Basis Set:
  Basis Set: 6-31G*
  Basis Set:
  @DF-RHF Final Energy:  -266.81197402482167
    Total Energy =                       -266.8119740248217795
  Basis Set: 6-31G*
  Basis Set:
  Basis Set: 6-31G*
  Basis Set:
  @DF-RHF Final Energy:  -266.81197635719548
    Total Energy =                       -266.8119763571955332
  Basis Set: 6-31G*
  Basis Set:
  Basis Set: 6-31G*
  Basis Set:
  @DF-RHF Final Energy:  -266.81200272087898
    Total Energy =                       -266.8120027208791498
  Basis Set: 6-31G*
  Basis Set:
  Charge       = 0
  Multiplicity = 1
  Basis Set: 6-31G*
  Basis Set:

    Orbital Energies (a.u.)
    -----------------------

    Doubly Occupied:

       1A    -20.599446     2A    -20.567445     3A    -11.381165
       4A    -11.305163     5A    -11.231395     6A     -1.468962
       7A     -1.381590     8A     -1.051657     9A     -0.886756
      10A     -0.839013    11A     -0.741120    12A     -0.690514
      13A     -0.655237    14A     -0.629921    15A     -0.566852
      16A     -0.546020    17A     -0.537498    18A     -0.507432
      19A     -0.464605    20A     -0.452837

  @DF-RHF Final Energy:  -266.81200334648167

   => Energetics <=

    Nuclear Repulsion Energy =            176.5447602170976040
    One-Electron Energy =                -713.7042704284082220
    Two-Electron Energy =                 270.3475068648291426
    DFT Exchange-Correlation Energy =       0.0000000000000000
    Empirical Dispersion Energy =           0.0000000000000000
    PCM Polarization Energy =               0.0000000000000000
    EFP Energy =                            0.0000000000000000
    Total Energy =                       -266.8120033464814469
    Molecular point group: c1
  Basis Set: 6-31G*
  Basis Set:

  -Total Gradient:
     Atom            X                  Y                   Z
    ------   -----------------  -----------------  -----------------
       1       -0.000009555920    -0.000016924390    -0.000006659662
       2        0.000502974901    -0.002246280324     0.006851435069
       3       -0.000419322198     0.005178283850     0.000776155978
       4       -0.000291792064     0.000425112722    -0.005313876997
       5        0.000201728848    -0.003344442148    -0.002285931503
       6        0.000015496599     0.000002262136    -0.000016280742
       7       -0.000001475724     0.000012671994    -0.000010350615
       8        0.000000656316    -0.000007866523     0.000012460469
       9       -0.000008998918    -0.000003273670    -0.000006478428
      10        0.000008275808     0.000000034731    -0.000002106994
      11        0.000002012354     0.000000421621     0.000001633425

  **** Optimization is complete! (in 7 steps) ****
    Final optimized geometry and variables:
    Molecular point group: c1

    Geometry (in Angstrom), charge = 0, multiplicity = 1:

    H           -1.701370251206     0.754030760717     0.506772577538
    C           -1.191141097994    -0.205735893099     0.422778021038
    O            0.138014834968    -0.093121431287     0.372970974855
    O           -1.767869985286    -1.230147194776     0.369666792112
    C            0.666942033427     0.676171618529    -0.697375189340
    C            2.150680566112     0.853400467004    -0.458071583707
    H            0.163024823448     1.638575393051    -0.740615778408
    H            0.480210927282     0.153189817646    -1.628080861390
    H            2.325014848785     1.379750612094     0.472936236043
    H            2.592596484363     1.423911129770    -1.268276192827
    H            2.641270563510    -0.110915093867    -0.405174949599

  Mulliken Charges: (a.u.)
   Center  Symbol    Alpha    Beta     Spin     Total
       1     H     0.42853  0.42853  0.00000  0.14294
       2     C     2.73033  2.73033  0.00000  0.53934
       3     O     4.29511  4.29511  0.00000 -0.59021
       4     O     4.22983  4.22983  0.00000 -0.45967
       5     C     3.00704  3.00704  0.00000 -0.01409
       6     C     3.24672  3.24672  0.00000 -0.49345
       7     H     0.42162  0.42162  0.00000  0.15676
       8     H     0.41100  0.41100  0.00000  0.17799
       9     H     0.40922  0.40922  0.00000  0.18157
      10     H     0.41583  0.41583  0.00000  0.16835
      11     H     0.40477  0.40477  0.00000  0.19046

   Total alpha = 20.00000, Total beta = 20.00000, Total charge = -0.00000
