  ==> Input File <==

--------------------------------------------------------------------------
set {
	reference rhf
	basis cc-pvtz
}

set_num_threads( 4 )
memory 2 gb

molecule MOL {
0 1

H	 3.273419	 0.176595	 -0.102789
N	 2.433987	 -0.362316	 -0.080024
C	 1.263552	 0.494993	 0.021953
H	 2.497638	 -0.973615	 0.707122
C	 -0.016533	 -0.325589	 -0.026925
H	 1.280915	 1.180773	 -0.818522
H	 1.263064	 1.106893	 0.925038
C	 -1.280353	 0.525521	 0.047747
H	 -0.016686	 -0.912532	 -0.939714
H	 -0.014099	 -1.037598	 0.796369
C	 -2.415326	 -0.014567	 -0.816042
H	 -1.047586	 1.541341	 -0.260304
H	 -1.614282	 0.589750	 1.079852
H	 -2.124350	 -0.059459	 -1.860096
H	 -3.296360	 0.612837	 -0.744676
H	 -2.697201	 -1.016528	 -0.509770

	symmetry c1
}
set optking {
	frozen_dihedral = ("
		12 8 5 9
	")
}

ee = optimize('scf')
oeprop('DIPOLE', 'QUADRUPOLE', 'MULLIKEN_CHARGES')
f=open( 'psi4out.xyz', 'w' )
f.write( "16  " )
f.write( str(ee) + "\n" )
f.write( MOL.save_string_xyz() )
f.close()
--------------------------------------------------------------------------

    Molecular point group: c1
  Charge       = 0
  Multiplicity = 1
  Basis Set: CC-PVTZ
  Basis Set:
  @DF-RHF Final Energy:  -212.39675064404543
    Total Energy =                       -212.3967506440453690
    Molecular point group: c1
  Basis Set: CC-PVTZ
  Basis Set:
  Basis Set: CC-PVTZ
  Basis Set:
  @DF-RHF Final Energy:  -212.39703535410561
    Total Energy =                       -212.3970353541055260
  Basis Set: CC-PVTZ
  Basis Set:
  Basis Set: CC-PVTZ
  Basis Set:
  @DF-RHF Final Energy:  -212.39707772570227
    Total Energy =                       -212.3970777257022178
  Basis Set: CC-PVTZ
  Basis Set:
  Basis Set: CC-PVTZ
  Basis Set:
  @DF-RHF Final Energy:  -212.39707877952753
    Total Energy =                       -212.3970787795275328
  Basis Set: CC-PVTZ
  Basis Set:
  Charge       = 0
  Multiplicity = 1
  Basis Set: CC-PVTZ
  Basis Set:

    Orbital Energies (a.u.)
    -----------------------

    Doubly Occupied:

       1A    -15.526684     2A    -11.238749     3A    -11.212864
       4A    -11.207742     5A    -11.206098     6A     -1.178628
       7A     -1.059048     8A     -0.959956     9A     -0.845365
      10A     -0.792850    11A     -0.664659    12A     -0.630305
      13A     -0.615506    14A     -0.576702    15A     -0.561998
      16A     -0.529785    17A     -0.498444    18A     -0.473550
      19A     -0.464437    20A     -0.456874    21A     -0.384112

  @DF-RHF Final Energy:  -212.39707884718362

   => Energetics <=

    Nuclear Repulsion Energy =            186.5382738661033670
    One-Electron Energy =                -655.7019926318243961
    Two-Electron Energy =                 256.7666399185375212
    DFT Exchange-Correlation Energy =       0.0000000000000000
    Empirical Dispersion Energy =           0.0000000000000000
    PCM Polarization Energy =               0.0000000000000000
    EFP Energy =                            0.0000000000000000
    Total Energy =                       -212.3970788471834794
    Molecular point group: c1
  Basis Set: CC-PVTZ
  Basis Set:

  -Total Gradient:
     Atom            X                  Y                   Z
    ------   -----------------  -----------------  -----------------
       1        0.000002501896    -0.000000996078     0.000002942201
       2        0.000007789599     0.000002580437    -0.000002436786
       3       -0.000013967559    -0.000007347132    -0.000001760824
       4       -0.000000403499     0.000000289856     0.000001628051
       5        0.002566758332     0.004017750875    -0.001503538966
       6       -0.000002631465    -0.000006569406     0.000001605096
       7        0.000001139721    -0.000004848227    -0.000002712129
       8       -0.001584202414    -0.001917927655    -0.004241838639
       9       -0.001874706149    -0.003023555227     0.001917553050
      10        0.000001500318    -0.000001639060     0.000007599912
      11       -0.000003012359     0.000006853731     0.000002153829
      12        0.000898727267     0.000932079400     0.003802444820
      13       -0.000009927874    -0.000000568880     0.000006827395
      14        0.000005585877    -0.000000911686     0.000009661369
      15        0.000000802067     0.000000995169    -0.000004553933
      16        0.000004046241     0.000003813886     0.000004425556

  **** Optimization is complete! (in 5 steps) ****
    Final optimized geometry and variables:
    Molecular point group: c1

    Geometry (in Angstrom), charge = 0, multiplicity = 1:

    H            3.256317870304     0.108371504199     0.133724473125
    N            2.414179563615    -0.426809954183     0.130422481724
    C            1.244755539484     0.435046208968     0.182116397775
    H            2.446481776436    -1.032527136301     0.923725956515
    C           -0.036190411278    -0.378366275478     0.093242586563
    H            1.293861137801     1.114259200350    -0.662362284921
    H            1.211787452156     1.054975605403     1.079689482840
    C           -1.309857446829     0.473347714836     0.186952280216
    H           -0.033935258419    -0.962049100227    -0.821074280988
    H           -0.040730166642    -1.112933924427     0.895916634350
    C           -2.473744377231    -0.078020208277    -0.627446601023
    H           -1.092291343729     1.494589956875    -0.113806732036
    H           -1.610856543261     0.549470520140     1.227884425494
    H           -2.232342358738    -0.103582920390    -1.684573165186
    H           -3.363967463390     0.528025002546    -0.503315683217
    H           -2.717260778291    -1.090326859146    -0.321706308959

  Mulliken Charges: (a.u.)
   Center  Symbol    Alpha    Beta     Spin     Total
       1     H     0.43021  0.43021  0.00000  0.13959
       2     N     3.68960  3.68960  0.00000 -0.37920
       3     C     3.02597  3.02597  0.00000 -0.05193
       4     H     0.43076  0.43076  0.00000  0.13847
       5     C     3.08216  3.08216  0.00000 -0.16433
       6     H     0.45683  0.45683  0.00000  0.08634
       7     H     0.46776  0.46776  0.00000  0.06449
       8     C     3.09108  3.09108  0.00000 -0.18217
       9     H     0.45006  0.45006  0.00000  0.09989
      10     H     0.45932  0.45932  0.00000  0.08136
      11     C     3.14702  3.14702  0.00000 -0.29403
      12     H     0.45608  0.45608  0.00000  0.08784
      13     H     0.45451  0.45451  0.00000  0.09097
      14     H     0.45448  0.45448  0.00000  0.09104
      15     H     0.44982  0.44982  0.00000  0.10037
      16     H     0.45434  0.45434  0.00000  0.09132

   Total alpha = 21.00000, Total beta = 21.00000, Total charge =  0.00000
