                              Psi4 1.0.54 Driver

  ==> Input File <==

--------------------------------------------------------------------------
set {
	reference rhf
	basis cc-pvtz
}

set_num_threads( 4 )
memory 2 gb

molecule MOL {
0 1

H	 0.836978	 -0.586888	 2.242330
C	 -0.118569	 -0.646375	 1.742227
O	 0.000000	 0.000000	 0.518769
H	 -0.382768	 -1.694218	 1.615428
H	 -0.872306	 -0.175829	 2.370178
C	 -1.165153	 0.000000	 -0.236961
H	 -1.229451	 0.882440	 -0.870223
H	 -2.002557	 0.000000	 0.445289
H	 -1.229451	 -0.882440	 -0.870223

	symmetry c1
}
set optking {
	frozen_dihedral = ("
		2 3 6 7
	")
}

ee,wfn = optimize('scf', return_wfn=True)
oeprop( wfn, 'DIPOLE', 'QUADRUPOLE', 'MULLIKEN_CHARGES')
f=open( 'psi4out.xyz', 'w' )
f.write( "9  " )
f.write( str(ee) + "\n" )
f.write( MOL.save_string_xyz() )
f.close()
--------------------------------------------------------------------------

    Molecular point group: c1
  Charge       = 0
  Multiplicity = 1
  Basis Set: CC-PVTZ
  Basis Set:
  @DF-RHF Final Energy:  -154.12435802074799
    Total Energy =                       -154.1243580207479624
    Molecular point group: c1
  Basis Set: CC-PVTZ
  Basis Set:
  Basis Set: CC-PVTZ
  Basis Set:
  @DF-RHF Final Energy:  -154.12514757042555
    Total Energy =                       -154.1251475704254119
  Basis Set: CC-PVTZ
  Basis Set:
  Basis Set: CC-PVTZ
  Basis Set:
  @DF-RHF Final Energy:  -154.12535136413470
    Total Energy =                       -154.1253513641347297
  Basis Set: CC-PVTZ
  Basis Set:
  Charge       = 0
  Multiplicity = 1
  Basis Set: CC-PVTZ
  Basis Set:

    Orbital Energies (a.u.)
    -----------------------

    Doubly Occupied:

       1A    -20.548581     2A    -11.263418     3A    -11.262868
       4A     -1.380441     5A     -0.975866     6A     -0.872710
       7A     -0.662202     8A     -0.654787     9A     -0.645947
      10A     -0.556493    11A     -0.527506    12A     -0.475765
      13A     -0.418123

  @DF-RHF Final Energy:  -154.12535264780627

   => Energetics <=

    Nuclear Repulsion Energy =             84.7306696415785581
    One-Electron Energy =                -377.2226334280968558
    Two-Electron Energy =                 138.3666111387119884
    DFT Exchange-Correlation Energy =       0.0000000000000000
    Empirical Dispersion Energy =           0.0000000000000000
    PCM Polarization Energy =               0.0000000000000000
    EFP Energy =                            0.0000000000000000
    Total Energy =                       -154.1253526478062952
    Molecular point group: c1
  Basis Set: CC-PVTZ
  Basis Set:

  -Total Gradient:
     Atom            X                  Y                   Z
    ------   -----------------  -----------------  -----------------
       1        0.000008753111     0.000038269880    -0.000067090118
       2       -0.000800754657     0.001988906267     0.000998163114
       3        0.000567820884    -0.002514573023    -0.001064647594
       4        0.000011504024     0.000018671604    -0.000010603783
       5       -0.000004568416     0.000015858064    -0.000010999600
       6        0.001483983090    -0.000949759092    -0.002065753369
       7       -0.001310802845     0.001406570138     0.002187736615
       8       -0.000003102000    -0.000004145938     0.000013868675
       9        0.000047166810     0.000000202099     0.000019326058

  **** Optimization is complete! (in 4 steps) ****
    Final optimized geometry and variables:
    Molecular point group: c1

    Geometry (in Angstrom), charge = 0, multiplicity = 1:

    H            1.300160016700    -0.354167717773     1.550192008249
    C            0.336765073412    -0.422107647968     1.065810428928
    O            0.434180867163     0.221209008420    -0.161493368626
    H            0.078915453318    -1.473275126606     0.952007120847
    H           -0.409403819185     0.048125401622     1.702013319137
    C           -0.732428324351     0.218531287508    -0.919996062265
    H           -0.745700555221     1.113728286800    -1.526378198019
    H           -1.617759631058     0.235253666044    -0.289152208494
    H           -0.785882358351    -0.656463153095    -1.561851772246

  Mulliken Charges: (a.u.)
   Center  Symbol    Alpha    Beta     Spin     Total
       1     H     0.44921  0.44921  0.00000  0.10157
       2     C     3.02139  3.02139  0.00000 -0.04278
       3     O     4.17007  4.17007  0.00000 -0.34014
       4     H     0.47369  0.47369  0.00000  0.05263
       5     H     0.47215  0.47215  0.00000  0.05570
       6     C     3.01880  3.01880  0.00000 -0.03760
       7     H     0.45213  0.45213  0.00000  0.09574
       8     H     0.47616  0.47616  0.00000  0.04768
       9     H     0.46640  0.46640  0.00000  0.06720

   Total alpha = 13.00000, Total beta = 13.00000, Total charge =  0.00000

*** Psi4 exiting successfully. Buy a developer a beer!
