                              Psi4 1.0.54 Driver

  ==> Input File <==

--------------------------------------------------------------------------
set {
	reference rhf
	basis cc-pvtz
}

set_num_threads( 4 )
memory 2 gb

molecule MOL {
0 1

H	 -1.660998	 0.311684	 2.263171
C	 -1.218543	 0.150800	 1.302815
C	 -1.931845	 0.415452	 0.090250
C	 0.030824	 -0.308546	 1.197385
H	 -2.938618	 0.785617	 0.140664
C	 -1.355181	 0.205636	 -1.097189
H	 0.628229	 -0.529952	 2.059492
N	 0.640204	 -0.530428	 -0.000115
H	 -1.858000	 0.392339	 -2.023621
C	 0.007216	 -0.295118	 -1.208330
C	 2.006991	 -1.033007	 -0.000020
O	 0.559257	 -0.496064	 -2.255762
H	 2.182444	 -1.636914	 -0.880881
H	 2.678769	 -0.195442	 -0.002236
H	 2.183828	 -1.633244	 0.883082

	symmetry c1
}
set optking {
	frozen_dihedral = ("
		10 8 11 13
	")
}

ee,wfn = optimize('scf', return_wfn=True)
oeprop( wfn, 'DIPOLE', 'QUADRUPOLE', 'MULLIKEN_CHARGES')
f=open( 'psi4out.xyz', 'w' )
f.write( "15  " )
f.write( str(ee) + "\n" )
f.write( MOL.save_string_xyz() )
f.close()
--------------------------------------------------------------------------

    Molecular point group: c1
  Charge       = 0
  Multiplicity = 1
  Basis Set: CC-PVTZ
  Basis Set:
  @DF-RHF Final Energy:  -360.72244252494232
    Total Energy =                       -360.7224425249422666
    Molecular point group: c1
  Basis Set: CC-PVTZ
  Basis Set:
  Basis Set: CC-PVTZ
  Basis Set:
  @DF-RHF Final Energy:  -360.72290646459425
    Total Energy =                       -360.7229064645941889
  Basis Set: CC-PVTZ
  Basis Set:
  Basis Set: CC-PVTZ
  Basis Set:
  @DF-RHF Final Energy:  -360.72294547162483
    Total Energy =                       -360.7229454716248256
  Basis Set: CC-PVTZ
  Basis Set:
  Basis Set: CC-PVTZ
  Basis Set:
  @DF-RHF Final Energy:  -360.72297353863837
    Total Energy =                       -360.7229735386382572
  Basis Set: CC-PVTZ
  Basis Set:
  Basis Set: CC-PVTZ
  Basis Set:
  @DF-RHF Final Energy:  -360.72299258242646
    Total Energy =                       -360.7229925824264001
  Basis Set: CC-PVTZ
  Basis Set:
  Charge       = 0
  Multiplicity = 1
  Basis Set: CC-PVTZ
  Basis Set:

    Orbital Energies (a.u.)
    -----------------------

    Doubly Occupied:

       1A    -20.501881     2A    -15.617197     3A    -11.338608
       4A    -11.293875     5A    -11.264738     6A    -11.258155
       7A    -11.230067     8A    -11.228056     9A     -1.390901
      10A     -1.285841    11A     -1.118808    12A     -1.029072
      13A     -0.972498    14A     -0.876154    15A     -0.838801
      16A     -0.719376    17A     -0.702571    18A     -0.663739
      19A     -0.652843    20A     -0.625734    21A     -0.611912
      22A     -0.575223    23A     -0.554957    24A     -0.550705
      25A     -0.530333    26A     -0.483783    27A     -0.420599
      28A     -0.410422    29A     -0.310500

  @DF-RHF Final Energy:  -360.72299277577946

   => Energetics <=

    Nuclear Repulsion Energy =            358.6505954412584174
    One-Electron Energy =               -1200.6324759573842584
    Two-Electron Energy =                 481.2588877403463812
    DFT Exchange-Correlation Energy =       0.0000000000000000
    Empirical Dispersion Energy =           0.0000000000000000
    PCM Polarization Energy =               0.0000000000000000
    EFP Energy =                            0.0000000000000000
    Total Energy =                       -360.7229927757794030
    Molecular point group: c1
  Basis Set: CC-PVTZ
  Basis Set:

  -Total Gradient:
     Atom            X                  Y                   Z
    ------   -----------------  -----------------  -----------------
       1       -0.000005031422    -0.000007315521     0.000001513232
       2        0.000038797734    -0.000039275813     0.000008559769
       3       -0.000005370107     0.000022437732    -0.000038619396
       4       -0.000023491638     0.000071834202     0.000052922165
       5       -0.000000098272    -0.000005745266     0.000005739723
       6       -0.000021154190     0.000018101130     0.000006528693
       7       -0.000000475284    -0.000015633661    -0.000001159790
       8        0.000406320791     0.001144024833    -0.000200875620
       9        0.000006212664    -0.000007084020    -0.000003993477
      10       -0.000225516257    -0.000721385492     0.000104728125
      11       -0.000426258942    -0.001178032402     0.000546017721
      12        0.000005988617     0.000006837681    -0.000049065781
      13        0.000247598082     0.000712509474    -0.000436874811
      14        0.000009812612    -0.000001413461     0.000003866467
      15       -0.000007334390     0.000000140583     0.000000712984

  **** Optimization is complete! (in 6 steps) ****
    Final optimized geometry and variables:
    Molecular point group: c1

    Geometry (in Angstrom), charge = 0, multiplicity = 1:

    H           -1.568304569657     0.608208108492     2.532568392697
    C           -1.125062951701     0.433294483631     1.575037559177
    C           -1.835089984126     0.686156539302     0.358667863146
    C            0.120702704842    -0.040179788903     1.479115292098
    H           -2.840164923853     1.061664213817     0.403545193641
    C           -1.258722959801     0.458047962475    -0.826118491139
    H            0.711925561747    -0.257502718656     2.345887609998
    N            0.726902511152    -0.284504293647     0.285479931929
    H           -1.758783314393     0.636961273055    -1.755671291915
    C            0.103659826197    -0.041967323200    -0.925616560462
    C            2.092276418662    -0.788311195526     0.263407154662
    O            0.674400847827    -0.237541322724    -1.964078970429
    H            2.235936797911    -1.373912162045    -0.626879455741
    H            2.804154772037     0.027735662949     0.252752969928
    H            2.261776150631    -1.398811120433     1.137990689534

  Mulliken Charges: (a.u.)
   Center  Symbol    Alpha    Beta     Spin     Total
       1     H     0.41389  0.41389  0.00000  0.17222
       2     C     3.10448  3.10448  0.00000 -0.20896
       3     C     3.06105  3.06105  0.00000 -0.12210
       4     C     3.03419  3.03419  0.00000 -0.06839
       5     H     0.41841  0.41841  0.00000  0.16318
       6     C     3.11787  3.11787  0.00000 -0.23574
       7     H     0.42132  0.42132  0.00000  0.15736
       8     N     3.51062  3.51062  0.00000 -0.02123
       9     H     0.40906  0.40906  0.00000  0.18189
      10     C     2.84520  2.84520  0.00000  0.30961
      11     C     3.09941  3.09941  0.00000 -0.19881
      12     O     4.23628  4.23628  0.00000 -0.47255
      13     H     0.42719  0.42719  0.00000  0.14561
      14     H     0.44635  0.44635  0.00000  0.10730
      15     H     0.45470  0.45470  0.00000  0.09060

   Total alpha = 29.00000, Total beta = 29.00000, Total charge = -0.00000

*** Psi4 exiting successfully. Buy a developer a beer!
