  ==> Input File <==

--------------------------------------------------------------------------
set {
	reference rhf
	basis 6-31G*
}

set_num_threads( 1 )
memory 2 gb

molecule MOL {
0 1

O	 -1.310722	 -0.745693	 -2.188594
C	 -1.867954	 -0.959153	 -1.159739
C	 -3.089578	 -1.832388	 -1.031823
O	 -1.481751	 -0.454642	 0.000584
H	 -2.849311	 -2.822829	 -1.399465
H	 -3.435968	 -1.893677	 -0.010698
H	 -3.872746	 -1.429640	 -1.662950
C	 -0.334255	 0.388708	 0.000906
C	 0.891947	 -0.504646	 0.000751
H	 -0.365390	 1.025305	 -0.873475
H	 -0.365484	 1.024911	 0.875569
C	 2.191998	 0.301789	 0.000897
H	 0.855148	 -1.151283	 -0.871571
H	 0.855132	 -1.151660	 0.872805
C	 3.441114	 -0.581407	 0.000108
H	 2.215074	 0.954890	 -0.869742
H	 2.215465	 0.953923	 0.872248
C	 4.739576	 0.224112	 -0.001102
H	 3.419457	 -1.233487	 -0.870178
H	 3.420834	 -1.233096	 0.870717
H	 4.804918	 0.861552	 -0.878265
H	 5.606527	 -0.429058	 -0.001824
H	 4.806469	 0.861674	 0.875853

	symmetry c1
}
set optking {
	frozen_dihedral = ("
		13 9 8 10,
		16 12 9 13,
		19 15 12 16,
		1 2 4 8
	")
}

ee = energy('scf')
oeprop('DIPOLE', 'QUADRUPOLE', 'MULLIKEN_CHARGES')
f=open( 'psi4out.xyz', 'w' )
f.write( "23  " )
f.write( str(ee) + "\n" )
f.write( MOL.save_string_xyz() )
f.close()
--------------------------------------------------------------------------

    Molecular point group: c1

    Geometry (in Angstrom), charge = 0, multiplicity = 1:

       Center              X                  Y                   Z               Mass
    ------------   -----------------  -----------------  -----------------  -----------------
           O         -1.652417603602    -0.280957041740    -1.693802527690    15.994914619560
           C         -2.209649603602    -0.494417041740    -0.664947527690    12.000000000000
           C         -3.431273603602    -1.367652041740    -0.537031527690    12.000000000000
           O         -1.823446603602     0.010093958260     0.495375472310    15.994914619560
           H         -3.191006603602    -2.358093041740    -0.904673527690     1.007825032070
           H         -3.777663603602    -1.428941041740     0.484093472310     1.007825032070
           H         -4.214441603602    -0.964904041740    -1.168158527690     1.007825032070
           C         -0.675950603602     0.853443958260     0.495697472310    12.000000000000
           C          0.550251396398    -0.039910041740     0.495542472310    12.000000000000
           H         -0.707085603602     1.490040958260    -0.378683527690     1.007825032070
           H         -0.707179603602     1.489646958260     1.370360472310     1.007825032070
           C          1.850302396398     0.766524958260     0.495688472310    12.000000000000
           H          0.513452396398    -0.686547041740    -0.376779527690     1.007825032070
           H          0.513436396398    -0.686924041740     1.367596472310     1.007825032070
           C          3.099418396398    -0.116671041740     0.494899472310    12.000000000000
           H          1.873378396398     1.419625958260    -0.374950527690     1.007825032070
           H          1.873769396398     1.418658958260     1.367039472310     1.007825032070
           C          4.397880396398     0.688847958260     0.493689472310    12.000000000000
           H          3.077761396398    -0.768751041740    -0.375386527690     1.007825032070
           H          3.079138396398    -0.768360041740     1.365508472310     1.007825032070
           H          4.463222396398     1.326287958260    -0.383473527690     1.007825032070
           H          5.264831396398     0.035677958260     0.492967472310     1.007825032070
           H          4.464773396398     1.326409958260     1.370644472310     1.007825032070

  Charge       = 0
  Multiplicity = 1
  Basis Set: 6-31G*
  Basis Set:

    Orbital Energies (a.u.)
    -----------------------

    Doubly Occupied:

       1A    -20.603033     2A    -20.541267     3A    -11.376120
       4A    -11.281237     5A    -11.233308     6A    -11.219213
       7A    -11.217654     8A    -11.216921     9A    -11.209850
      10A     -1.469500    11A     -1.361945    12A     -1.089555
      13A     -1.040498    14A     -1.001331    15A     -0.929925
      16A     -0.848832    17A     -0.797656    18A     -0.766808
      19A     -0.701236    20A     -0.680386    21A     -0.655793
      22A     -0.647037    23A     -0.602364    24A     -0.589643
      25A     -0.583773    26A     -0.572043    27A     -0.551032
      28A     -0.536918    29A     -0.520585    30A     -0.514903
      31A     -0.483550    32A     -0.475962    33A     -0.472837
      34A     -0.466354    35A     -0.437594    36A     -0.434496

  @DF-RHF Final Energy:  -422.97697840726897

   => Energetics <=

    Nuclear Repulsion Energy =            459.8188544470359034
    One-Electron Energy =               -1487.3294426754951019
    Two-Electron Energy =                 604.5336098211912486
    DFT Exchange-Correlation Energy =       0.0000000000000000
    Empirical Dispersion Energy =           0.0000000000000000
    PCM Polarization Energy =               0.0000000000000000
    EFP Energy =                            0.0000000000000000
    Total Energy =                       -422.9769784072680068

  Mulliken Charges: (a.u.)
   Center  Symbol    Alpha    Beta     Spin     Total
       1     O     4.28524  4.28524  0.00000 -0.57049
       2     C     2.61551  2.61551  0.00000  0.76898
       3     C     3.28785  3.28785  0.00000 -0.57570
       4     O     4.31074  4.31074  0.00000 -0.62147
       5     H     0.39771  0.39771  0.00000  0.20457
       6     H     0.39918  0.39918  0.00000  0.20164
       7     H     0.39718  0.39718  0.00000  0.20565
       8     C     3.00548  3.00548  0.00000 -0.01096
       9     C     3.16993  3.16993  0.00000 -0.33987
      10     H     0.40287  0.40287  0.00000  0.19426
      11     H     0.40886  0.40886  0.00000  0.18228
      12     C     3.16083  3.16083  0.00000 -0.32165
      13     H     0.40281  0.40281  0.00000  0.19438
      14     H     0.41728  0.41728  0.00000  0.16545
      15     C     3.15141  3.15141  0.00000 -0.30282
      16     H     0.41908  0.41908  0.00000  0.16185
      17     H     0.42450  0.42450  0.00000  0.15099
      18     C     3.23974  3.23974  0.00000 -0.47948
      19     H     0.41989  0.41989  0.00000  0.16022
      20     H     0.42262  0.42262  0.00000  0.15475
      21     H     0.42070  0.42070  0.00000  0.15861
      22     H     0.41856  0.41856  0.00000  0.16289
      23     H     0.42204  0.42204  0.00000  0.15592

   Total alpha = 36.00000, Total beta = 36.00000, Total charge = -0.00000
