                              Psi4 1.0.54 Driver

  ==> Input File <==

--------------------------------------------------------------------------
set {
	reference rhf
	basis cc-pvtz
}

set_num_threads( 4 )
memory 2 gb

molecule MOL {
0 1

O	 -0.988175	 -1.402891	 0.050086
C	 -0.675048	 -0.248293	 -0.009686
C	 -1.742492	 0.826599	 -0.011538
N	 0.622280	 0.144970	 -0.099307
H	 -1.692153	 1.431066	 -0.908439
H	 -2.698310	 0.331559	 0.031353
H	 -1.642148	 1.483784	 0.843455
C	 0.935713	 1.362412	 -0.817320
C	 1.747189	 -0.717517	 0.173545
H	 1.729982	 1.890294	 -0.303804
H	 0.063574	 1.988771	 -0.864542
H	 1.267167	 1.149258	 -1.830402
H	 2.558818	 -0.126448	 0.577937
H	 1.502543	 -1.473871	 0.899475
H	 2.109694	 -1.208971	 -0.726515

	symmetry c1
}
set optking {
	frozen_dihedral = ("
		8 4 2 3
	")
}

ee,wfn = optimize('scf', return_wfn=True)
oeprop( wfn, 'DIPOLE', 'QUADRUPOLE', 'MULLIKEN_CHARGES')
f=open( 'psi4out.xyz', 'w' )
f.write( "15  " )
f.write( str(ee) + "\n" )
f.write( MOL.save_string_xyz() )
f.close()
--------------------------------------------------------------------------

    Molecular point group: c1
  Charge       = 0
  Multiplicity = 1
  Basis Set: CC-PVTZ
  Basis Set:
  @DF-RHF Final Energy:  -286.12719430868663
    Total Energy =                       -286.1271943086862848
    Molecular point group: c1
  Basis Set: CC-PVTZ
  Basis Set:
  Basis Set: CC-PVTZ
  Basis Set:
  @DF-RHF Final Energy:  -286.12502436728374
    Total Energy =                       -286.1250243672836291
  Basis Set: CC-PVTZ
  Basis Set:
  Basis Set: CC-PVTZ
  Basis Set:
  @DF-RHF Final Energy:  -285.60143932724037
    Total Energy =                       -285.6014393272406551
  Basis Set: CC-PVTZ
  Basis Set:
  Basis Set: CC-PVTZ
  Basis Set:
  @DF-RHF Final Energy:  -285.80068671948641
    Total Energy =                       -285.8006867194864640
  Basis Set: CC-PVTZ
  Basis Set:
  @DF-RHF Final Energy:  -286.06401706376357
    Total Energy =                       -286.0640170637636857
  @DF-RHF Final Energy:  -286.12973657710086
    Total Energy =                       -286.1297365771008572
  @DF-RHF Final Energy:  -286.13422660379456
    Total Energy =                       -286.1342266037945024
  @DF-RHF Final Energy:  -286.13452116333417
    Total Energy =                       -286.1345211633340000
  @DF-RHF Final Energy:  -286.13466957975584
    Total Energy =                       -286.1346695797559505
  @DF-RHF Final Energy:  -286.13480272735012
    Total Energy =                       -286.1348027273497792
  Basis Set: CC-PVTZ
  Basis Set:
  @DF-RHF Final Energy:  -286.13481852449735
    Total Energy =                       -286.1348185244974047
  Basis Set: CC-PVTZ
  Basis Set:
  Basis Set: CC-PVTZ
  Basis Set:
  @DF-RHF Final Energy:  -286.13482329366354
    Total Energy =                       -286.1348232936636009
  Basis Set: CC-PVTZ
  Basis Set:
  Basis Set: CC-PVTZ
  Basis Set:
  @DF-RHF Final Energy:  -286.13482480802304
    Total Energy =                       -286.1348248080230974
  Basis Set: CC-PVTZ
  Basis Set:
  Charge       = 0
  Multiplicity = 1
  Basis Set: CC-PVTZ
  Basis Set:

    Orbital Energies (a.u.)
    -----------------------

    Doubly Occupied:

       1A    -20.509813     2A    -15.576873     3A    -11.335455
       4A    -11.263324     5A    -11.245576     6A    -11.226705
       7A     -1.391914     8A     -1.245266     9A     -1.014805
      10A     -0.971504    11A     -0.917683    12A     -0.738121
      13A     -0.683103    14A     -0.660972    15A     -0.653521
      16A     -0.592320    17A     -0.579207    18A     -0.569162
      19A     -0.561334    20A     -0.545426    21A     -0.529164
      22A     -0.504921    23A     -0.417715    24A     -0.374640

  @DF-RHF Final Energy:  -286.13482507047604

   => Energetics <=

    Nuclear Repulsion Energy =            253.1700436293778296
    One-Electron Energy =                -890.3926838552588379
    Two-Electron Energy =                 351.0878151554051669
    DFT Exchange-Correlation Energy =       0.0000000000000000
    Empirical Dispersion Energy =           0.0000000000000000
    PCM Polarization Energy =               0.0000000000000000
    EFP Energy =                            0.0000000000000000
    Total Energy =                       -286.1348250704758698
    Molecular point group: c1
  Basis Set: CC-PVTZ
  Basis Set:

  -Total Gradient:
     Atom            X                  Y                   Z
    ------   -----------------  -----------------  -----------------
       1        0.000017992082    -0.000014568168    -0.000006717537
       2        0.001068452150     0.002488374973    -0.003672345978
       3       -0.000402354296    -0.001449267915     0.001649241020
       4       -0.001448144707    -0.001489856373     0.004274963989
       5        0.000005343734     0.000006357693    -0.000008596057
       6        0.000003525935    -0.000004192878    -0.000007062532
       7       -0.000003561376     0.000006806857     0.000003486243
       8        0.000755108780     0.000456226345    -0.002235415017
       9        0.000003226769    -0.000016712903     0.000000088228
      10        0.000001090662     0.000001675400     0.000002841045
      11        0.000002407196     0.000004198710     0.000004087941
      12       -0.000000983503     0.000012825578    -0.000001159499
      13        0.000001462026    -0.000000259059     0.000004195967
      14       -0.000006899611    -0.000002774220    -0.000002507833
      15        0.000003334161     0.000001165962    -0.000005099980

  **** Optimization is complete! (in 14 steps) ****
    Final optimized geometry and variables:
    Molecular point group: c1

    Geometry (in Angstrom), charge = 0, multiplicity = 1:

    O           -0.917223054892    -1.063852057205    -0.948430739715
    C           -0.664468225372    -0.180725447518    -0.182963072203
    C           -1.768183791975     0.708797408266     0.349616771008
    N            0.597821072828     0.016502383838     0.300008167283
    H           -1.694299349922     1.709130509205    -0.060508102206
    H           -2.707511615628     0.277693574278     0.044626260436
    H           -1.731797070264     0.782179966520     1.428404169086
    C            1.049708976610     1.318525734607     0.739633372831
    C            1.643153480981    -0.833278678015    -0.235992103323
    H            1.883037731395     1.195364241004     1.418064638141
    H            0.274341034011     1.847796265316     1.268027543099
    H            1.382607242036     1.935749332815    -0.092330680069
    H            2.476710619339    -0.837868873175     0.453718910771
    H            1.273889776006    -1.836950437955    -0.354048932643
    H            1.995400609188    -0.483696254444    -1.203175622955

  Mulliken Charges: (a.u.)
   Center  Symbol    Alpha    Beta     Spin     Total
       1     O     4.21315  4.21315  0.00000 -0.42629
       2     C     2.84305  2.84305  0.00000  0.31390
       3     C     3.16028  3.16028  0.00000 -0.32055
       4     N     3.57193  3.57193  0.00000 -0.14385
       5     H     0.44839  0.44839  0.00000  0.10322
       6     H     0.42892  0.42892  0.00000  0.14216
       7     H     0.44794  0.44794  0.00000  0.10412
       8     C     3.09583  3.09583  0.00000 -0.19166
       9     C     3.09469  3.09469  0.00000 -0.18938
      10     H     0.44808  0.44808  0.00000  0.10385
      11     H     0.44564  0.44564  0.00000  0.10872
      12     H     0.45614  0.45614  0.00000  0.08772
      13     H     0.45642  0.45642  0.00000  0.08715
      14     H     0.43161  0.43161  0.00000  0.13679
      15     H     0.45794  0.45794  0.00000  0.08411

   Total alpha = 24.00000, Total beta = 24.00000, Total charge = -0.00000

*** Psi4 exiting successfully. Buy a developer a beer!
