  ==> Input File <==

--------------------------------------------------------------------------
set {
	reference rhf
	basis cc-pvtz
}

set_num_threads( 4 )
memory 2 gb

molecule MOL {
0 1

H	 -4.120677	 0.786598	 -0.590964
O	 -3.449308	 0.129784	 -0.583618
C	 -2.230764	 0.689441	 -0.170878
C	 -1.175688	 -0.398187	 -0.171891
H	 -1.934667	 1.493538	 -0.841346
H	 -2.324978	 1.113075	 0.826864
C	 0.196029	 0.106276	 0.266738
H	 -1.116020	 -0.818173	 -1.171027
H	 -1.506022	 -1.198163	 0.482964
C	 1.330220	 -0.826136	 -0.155230
H	 0.359542	 1.097229	 -0.145561
H	 0.212134	 0.218135	 1.348778
C	 2.719700	 -0.407669	 0.328325
H	 1.339388	 -0.911200	 -1.239363
H	 1.119001	 -1.821953	 0.224128
C	 3.241564	 0.893452	 -0.276737
H	 3.418299	 -1.204729	 0.093035
H	 2.711776	 -0.323368	 1.411960
H	 3.254204	 0.841071	 -1.360784
H	 2.634460	 1.745075	 0.005842
H	 4.254264	 1.092401	 0.054971

	symmetry c1
}
set optking {
	frozen_dihedral = ("
		8 4 7 10
	")
}

ee = optimize('scf')
oeprop('DIPOLE', 'QUADRUPOLE', 'MULLIKEN_CHARGES')
f=open( 'psi4out.xyz', 'w' )
f.write( "21  " )
f.write( str(ee) + "\n" )
f.write( MOL.save_string_xyz() )
f.close()
--------------------------------------------------------------------------

    Molecular point group: c1
  Charge       = 0
  Multiplicity = 1
  Basis Set: CC-PVTZ
  Basis Set:
  @DF-RHF Final Energy:  -310.33197234252469
    Total Energy =                       -310.3319723425248071
    Molecular point group: c1
  Basis Set: CC-PVTZ
  Basis Set:
  Basis Set: CC-PVTZ
  Basis Set:
  @DF-RHF Final Energy:  -310.33209390063911
    Total Energy =                       -310.3320939006393928
  Basis Set: CC-PVTZ
  Basis Set:
  Basis Set: CC-PVTZ
  Basis Set:
  @DF-RHF Final Energy:  -310.33209596426678
    Total Energy =                       -310.3320959642669550
  Basis Set: CC-PVTZ
  Basis Set:
  Basis Set: CC-PVTZ
  Basis Set:
  @DF-RHF Final Energy:  -310.33211845565961
    Total Energy =                       -310.3321184556591561
  Basis Set: CC-PVTZ
  Basis Set:
  Charge       = 0
  Multiplicity = 1
  Basis Set: CC-PVTZ
  Basis Set:

    Orbital Energies (a.u.)
    -----------------------

    Doubly Occupied:

       1A    -20.545520     2A    -11.265265     3A    -11.213167
       4A    -11.213046     5A    -11.211442     6A    -11.208819
       7A    -11.206202     8A     -1.363443     9A     -1.087257
      10A     -1.034247    11A     -0.955584    12A     -0.876615
      13A     -0.808398    14A     -0.779231    15A     -0.696780
      16A     -0.659769    17A     -0.625962    18A     -0.607297
      19A     -0.585614    20A     -0.576365    21A     -0.532761
      22A     -0.523792    23A     -0.512711    24A     -0.484013
      25A     -0.482823    26A     -0.461102    27A     -0.455335
      28A     -0.444429    29A     -0.437023

  @DF-RHF Final Energy:  -310.33211919237112

   => Energetics <=

    Nuclear Repulsion Energy =            313.0811726368750669
    One-Electron Energy =               -1041.1185616716188633
    Two-Electron Energy =                 417.7052698423723314
    DFT Exchange-Correlation Energy =       0.0000000000000000
    Empirical Dispersion Energy =           0.0000000000000000
    PCM Polarization Energy =               0.0000000000000000
    EFP Energy =                            0.0000000000000000
    Total Energy =                       -310.3321191923714650
    Molecular point group: c1
  Basis Set: CC-PVTZ
  Basis Set:

  -Total Gradient:
     Atom            X                  Y                   Z
    ------   -----------------  -----------------  -----------------
       1       -0.000016028400    -0.000001875750     0.000001405498
       2       -0.000012955317     0.000018720916    -0.000024916133
       3        0.000044439724    -0.000034232005     0.000009218808
       4       -0.000622553383     0.003556164837    -0.002087078686
       5       -0.000011519744     0.000008756223    -0.000002497956
       6        0.000006972828    -0.000014243987    -0.000016643147
       7       -0.000117691124    -0.001991897522     0.002700794209
       8        0.000609619502    -0.002520683818     0.001174632698
       9       -0.000031302108    -0.000002844396     0.000034981166
      10        0.000149944489     0.000974494097    -0.001795276084
      11       -0.000001965605     0.000030967346    -0.000000235013
      12       -0.000006465187    -0.000035417283    -0.000006031861
      13        0.000013622135    -0.000021701948     0.000003158929
      14       -0.000006291692     0.000007848728     0.000004893955
      15       -0.000005039422     0.000006558439     0.000000803264
      16       -0.000004323295     0.000015333698     0.000006856555
      17       -0.000001202909    -0.000001100223    -0.000002124781
      18        0.000014495513    -0.000004374164    -0.000000815975
      19        0.000008956993    -0.000003986869     0.000001125343
      20       -0.000005246783     0.000006227147    -0.000007721588
      21       -0.000005466216     0.000007286533     0.000005470798

  **** Optimization is complete! (in 5 steps) ****
    Final optimized geometry and variables:
    Molecular point group: c1

    Geometry (in Angstrom), charge = 0, multiplicity = 1:

    H           -4.168211936615     0.707937974812    -0.395205998605
    O           -3.492104745158     0.056031350961    -0.389248519958
    C           -2.259468660245     0.641296301019    -0.064270787678
    C           -1.194772922590    -0.435352704140    -0.072894613217
    H           -2.005272937367     1.417731777462    -0.782644435178
    H           -2.305607420159     1.107189262593     0.918209133623
    C            0.182894520984     0.081419622177     0.341077822153
    H           -1.147094619411    -0.885512477866    -1.059246510100
    H           -1.506520236231    -1.228969875541     0.599085047740
    C            1.313038387967    -0.864277932764    -0.061760013522
    H            0.350976433201     1.053448720437    -0.113923394578
    H            0.204457487347     0.240990602719     1.415959149496
    C            2.698703847281    -0.465100542223     0.447751855387
    H            1.338204643319    -0.943576961537    -1.145747299806
    H            1.083945125685    -1.859951660827     0.308769902835
    C            3.237392859426     0.843089780334    -0.126508528679
    H            3.394810805004    -1.262887367953     0.207626618011
    H            2.676595770536    -0.399949709179     1.532424162463
    H            3.263413813070     0.810801088026    -1.211130317177
    H            2.632555434286     1.693527951367     0.164396673027
    H            4.247143454085     1.028534033539     0.221510127893

  Mulliken Charges: (a.u.)
   Center  Symbol    Alpha    Beta     Spin     Total
       1     H     0.39755  0.39755  0.00000  0.20491
       2     O     4.19439  4.19439  0.00000 -0.38879
       3     C     2.96268  2.96268  0.00000  0.07464
       4     C     3.08411  3.08411  0.00000 -0.16822
       5     H     0.47471  0.47471  0.00000  0.05057
       6     H     0.47503  0.47503  0.00000  0.04995
       7     C     3.10396  3.10396  0.00000 -0.20791
       8     H     0.45172  0.45172  0.00000  0.09655
       9     H     0.44984  0.44984  0.00000  0.10031
      10     C     3.09423  3.09423  0.00000 -0.18846
      11     H     0.45601  0.45601  0.00000  0.08797
      12     H     0.45284  0.45284  0.00000  0.09432
      13     C     3.08980  3.08980  0.00000 -0.17961
      14     H     0.45324  0.45324  0.00000  0.09351
      15     H     0.44871  0.44871  0.00000  0.10258
      16     C     3.15285  3.15285  0.00000 -0.30570
      17     H     0.44853  0.44853  0.00000  0.10293
      18     H     0.45471  0.45471  0.00000  0.09057
      19     H     0.45475  0.45475  0.00000  0.09050
      20     H     0.45404  0.45404  0.00000  0.09193
      21     H     0.44628  0.44628  0.00000  0.10743

   Total alpha = 29.00000, Total beta = 29.00000, Total charge =  0.00000
