  ==> Input File <==

--------------------------------------------------------------------------
set {
	reference rhf
	basis 6-31G*
}

set_num_threads( 4 )
memory 2 gb

molecule MOL {
0 1

H	 2.866480	 -0.465706	 0.876907
C	 2.405773	 -0.024801	 0.000000
N	 0.988830	 -0.304158	 0.000000
H	 2.866480	 -0.465706	 -0.876907
H	 2.629928	 1.045948	 0.000000
C	 0.316200	 0.246925	 1.161829
C	 0.704186	 -1.720999	 -0.132320
H	 0.701527	 -0.183230	 2.091877
H	 0.489301	 1.317921	 1.197153
C	 -1.176409	 -0.023577	 1.067298
H	 1.161387	 -2.091004	 -1.044629
H	 1.117784	 -2.294555	 0.703424
C	 -0.798712	 -1.939313	 -0.192531
H	 -1.682396	 0.301638	 1.966870
H	 -1.592429	 0.518123	 0.219679
O	 -1.429264	 -1.393886	 0.932132
H	 -1.032270	 -2.995904	 -0.201665
H	 -1.196962	 -1.487746	 -1.099424

	symmetry c1
}
set optking {
	frozen_dihedral = ("
		6 3 2 5
	")
}

ee = optimize('scf')
oeprop('DIPOLE', 'QUADRUPOLE', 'MULLIKEN_CHARGES')
f=open( 'psi4out.xyz', 'w' )
f.write( "18  " )
f.write( str(ee) + "\n" )
f.write( MOL.save_string_xyz() )
f.close()
--------------------------------------------------------------------------

    Molecular point group: c1
  Charge       = 0
  Multiplicity = 1
  Basis Set: 6-31G*
  Basis Set:
  @DF-RHF Final Energy:  -325.02780874646879
    Total Energy =                       -325.0278087464684518
    Molecular point group: c1
  Basis Set: 6-31G*
  Basis Set:
  Basis Set: 6-31G*
  Basis Set:
  @DF-RHF Final Energy:  -325.02854697555085
    Total Energy =                       -325.0285469755509666
  Basis Set: 6-31G*
  Basis Set:
  Basis Set: 6-31G*
  Basis Set:
  @DF-RHF Final Energy:  -325.02865575088134
    Total Energy =                       -325.0286557508809437
  Basis Set: 6-31G*
  Basis Set:
  Charge       = 0
  Multiplicity = 1
  Basis Set: 6-31G*
  Basis Set:

    Orbital Energies (a.u.)
    -----------------------

    Doubly Occupied:

       1A    -20.554091     2A    -15.549535     3A    -11.266335
       4A    -11.266302     5A    -11.244148     6A    -11.244128
       7A    -11.241116     8A     -1.383485     9A     -1.232572
      10A     -1.038559    11A     -0.981343    12A     -0.882931
      13A     -0.868958    14A     -0.774767    15A     -0.683613
      16A     -0.645643    17A     -0.643479    18A     -0.634268
      19A     -0.629173    20A     -0.571843    21A     -0.557219
      22A     -0.540287    23A     -0.527384    24A     -0.502068
      25A     -0.484130    26A     -0.452443    27A     -0.407985
      28A     -0.353761

  @DF-RHF Final Energy:  -325.02865635592326

   => Energetics <=

    Nuclear Repulsion Energy =            341.5178264271548301
    One-Electron Energy =               -1118.7698358698094125
    Two-Electron Energy =                 452.2233530867309810
    DFT Exchange-Correlation Energy =       0.0000000000000000
    Empirical Dispersion Energy =           0.0000000000000000
    PCM Polarization Energy =               0.0000000000000000
    EFP Energy =                            0.0000000000000000
    Total Energy =                       -325.0286563559235447
    Molecular point group: c1
  Basis Set: 6-31G*
  Basis Set:

  -Total Gradient:
     Atom            X                  Y                   Z
    ------   -----------------  -----------------  -----------------
       1       -0.000015809186    -0.000009405574     0.000006051548
       2        0.000004757689    -0.000180364787     0.000686116874
       3       -0.000103717316     0.000390075231    -0.000361256444
       4       -0.000029765525    -0.000009742731    -0.000004992883
       5       -0.000034669761     0.000007003396    -0.000492050515
       6        0.000076069329    -0.000269983293     0.000121105452
       7        0.000107979308    -0.000058534086    -0.000022296757
       8       -0.000015452596    -0.000005269177    -0.000013965119
       9       -0.000010716000     0.000015513304     0.000027332657
      10       -0.000010661895    -0.000003275694     0.000048197321
      11        0.000016022132    -0.000016744932    -0.000012384378
      12        0.000002168039     0.000016145689     0.000007000095
      13        0.000009724690     0.000135658114    -0.000004486270
      14       -0.000014241232    -0.000002661742     0.000003739529
      15        0.000015119678    -0.000000971054     0.000003497395
      16       -0.000028529798    -0.000014737723     0.000033111369
      17        0.000045901886     0.000019479075     0.000002962228
      18       -0.000014179442    -0.000012184020    -0.000027682106

  **** Optimization is complete! (in 4 steps) ****
    Final optimized geometry and variables:
    Molecular point group: c1

    Geometry (in Angstrom), charge = 0, multiplicity = 1:

    H            2.777256921145     0.279169433253     0.461111518512
    C            2.263487059372     0.707760004206    -0.404225610858
    N            0.845300809713     0.433836025876    -0.411221278399
    H            2.718593527333     0.302757217282    -1.301140261880
    H            2.430196272420     1.779238718376    -0.402354221565
    C            0.171571199781     0.987387583628     0.749028708462
    C            0.556358375158    -0.982656084937    -0.540634834330
    H            0.553332006684     0.555422981519     1.679588322705
    H            0.348857980906     2.057728353898     0.785056805899
    C           -1.321898713827     0.722738094418     0.651811560253
    H            1.015062852380    -1.356446194411    -1.450593065110
    H            0.964850544325    -1.555573863538     0.297971359674
    C           -0.947094088097    -1.195645707488    -0.605397290829
    H           -1.828809580551     1.050816914629     1.549868688727
    H           -1.733638521022     1.265087965245    -0.197366154463
    O           -1.579483222351    -0.646740014198     0.516626034150
    H           -1.184317730447    -2.251424607921    -0.614790638092
    H           -1.340521673260    -0.743097599442    -1.513841757255

  Mulliken Charges: (a.u.)
   Center  Symbol    Alpha    Beta     Spin     Total
       1     H     0.43229  0.43229  0.00000  0.13543
       2     C     3.14034  3.14034  0.00000 -0.28067
       3     N     3.78750  3.78750  0.00000 -0.57499
       4     H     0.41606  0.41606  0.00000  0.16788
       5     H     0.41567  0.41567  0.00000  0.16866
       6     C     3.06840  3.06840  0.00000 -0.13680
       7     C     3.06840  3.06840  0.00000 -0.13680
       8     H     0.42819  0.42819  0.00000  0.14362
       9     H     0.41675  0.41675  0.00000  0.16649
      10     C     2.99758  2.99758  0.00000  0.00485
      11     H     0.41674  0.41674  0.00000  0.16651
      12     H     0.42824  0.42824  0.00000  0.14351
      13     C     2.99762  2.99762  0.00000  0.00475
      14     H     0.41322  0.41322  0.00000  0.17357
      15     H     0.42389  0.42389  0.00000  0.15223
      16     O     4.31201  4.31201  0.00000 -0.62402
      17     H     0.41324  0.41324  0.00000  0.17352
      18     H     0.42387  0.42387  0.00000  0.15226

   Total alpha = 28.00000, Total beta = 28.00000, Total charge =  0.00000
