  ==> Input File <==

--------------------------------------------------------------------------
set {
	reference rhf
	basis 6-31G*
}

set_num_threads( 4 )
memory 2 gb

molecule MOL {
0 1

O	 -2.439739	 -0.935931	 -0.423848
C	 -1.921153	 0.064240	 -0.045697
C	 -2.624470	 1.379923	 0.150949
O	 -0.632575	 0.154573	 0.251549
H	 -2.168117	 2.136577	 -0.476876
H	 -3.669540	 1.273223	 -0.098610
H	 -2.519365	 1.700893	 1.180846
C	 0.160891	 -1.019931	 0.106212
C	 1.589627	 -0.672828	 0.480843
H	 0.089836	 -1.367806	 -0.916050
H	 -0.238459	 -1.792301	 0.749618
C	 1.718126	 0.586725	 1.339570
H	 2.147507	 -0.542527	 -0.444211
H	 2.033053	 -1.520306	 0.996996
C	 3.170754	 0.921450	 1.675474
H	 1.265667	 1.425831	 0.814896
H	 1.153825	 0.454807	 2.256915
H	 3.235115	 1.817063	 2.285202
H	 3.754210	 1.091794	 0.775008
H	 3.642101	 0.112302	 2.226102

	symmetry c1
}
set optking {
	frozen_dihedral = ("
		12 9 8 10
	")
}

ee = optimize('scf')
oeprop('DIPOLE', 'QUADRUPOLE', 'MULLIKEN_CHARGES')
f=open( 'psi4out.xyz', 'w' )
f.write( "20  " )
f.write( str(ee) + "\n" )
f.write( MOL.save_string_xyz() )
f.close()
--------------------------------------------------------------------------

    Molecular point group: c1
  Charge       = 0
  Multiplicity = 1
  Basis Set: 6-31G*
  Basis Set:
  @DF-RHF Final Energy:  -383.93774271731746
    Total Energy =                       -383.9377427173176329
    Molecular point group: c1
  Basis Set: 6-31G*
  Basis Set:
  Basis Set: 6-31G*
  Basis Set:
  @DF-RHF Final Energy:  -383.93810263019094
    Total Energy =                       -383.9381026301909969
  Basis Set: 6-31G*
  Basis Set:
  Basis Set: 6-31G*
  Basis Set:
  @DF-RHF Final Energy:  -383.93897489975870
    Total Energy =                       -383.9389748997583638
  Basis Set: 6-31G*
  Basis Set:
  Basis Set: 6-31G*
  Basis Set:
  @DF-RHF Final Energy:  -383.93828823300862
    Total Energy =                       -383.9382882330087341
  Basis Set: 6-31G*
  Basis Set:
  Basis Set: 6-31G*
  Basis Set:
  @DF-RHF Final Energy:  -383.93910295734230
    Total Energy =                       -383.9391029573424703
  Basis Set: 6-31G*
  Basis Set:
  Basis Set: 6-31G*
  Basis Set:
  @DF-RHF Final Energy:  -383.93907401389697
    Total Energy =                       -383.9390740138971978
  Basis Set: 6-31G*
  Basis Set:
  Basis Set: 6-31G*
  Basis Set:
  @DF-RHF Final Energy:  -383.93912183704902
    Total Energy =                       -383.9391218370489014
  Basis Set: 6-31G*
  Basis Set:
  Charge       = 0
  Multiplicity = 1
  Basis Set: 6-31G*
  Basis Set:

    Orbital Energies (a.u.)
    -----------------------

    Doubly Occupied:

       1A    -20.600897     2A    -20.543730     3A    -11.374163
       4A    -11.283329     5A    -11.233228     6A    -11.226313
       7A    -11.219335     8A    -11.212320     9A     -1.467460
      10A     -1.361606    11A     -1.082300    12A     -1.027576
      13A     -0.979580    14A     -0.880909    15A     -0.817094
      16A     -0.761753    17A     -0.690307    18A     -0.688741
      19A     -0.666284    20A     -0.633589    21A     -0.595636
      22A     -0.592654    23A     -0.573290    24A     -0.547120
      25A     -0.544792    26A     -0.532158    27A     -0.508494
      28A     -0.483292    29A     -0.475744    30A     -0.468836
      31A     -0.445599    32A     -0.438378

  @DF-RHF Final Energy:  -383.93912235143171

   => Energetics <=

    Nuclear Repulsion Energy =            386.5873000151824499
    One-Electron Energy =               -1289.1398316070394685
    Two-Electron Energy =                 518.6134092404254261
    DFT Exchange-Correlation Energy =       0.0000000000000000
    Empirical Dispersion Energy =           0.0000000000000000
    PCM Polarization Energy =               0.0000000000000000
    EFP Energy =                            0.0000000000000000
    Total Energy =                       -383.9391223514315925
    Molecular point group: c1
  Basis Set: 6-31G*
  Basis Set:

  -Total Gradient:
     Atom            X                  Y                   Z
    ------   -----------------  -----------------  -----------------
       1        0.000014343133     0.000029079454    -0.000034761518
       2       -0.000058900702    -0.000050592993     0.000112294686
       3        0.000021245332     0.000004414922    -0.000037005679
       4        0.000017699459     0.000006097348    -0.000035262785
       5       -0.000003373934     0.000009058808    -0.000001437647
       6        0.000002593283    -0.000002402817    -0.000003603318
       7        0.000005588160    -0.000010209206    -0.000002417907
       8        0.001213730614    -0.005550802677     0.000579370272
       9       -0.000539003675    -0.001958276372     0.004334141736
      10       -0.000911389070     0.005243634765    -0.001623280608
      11       -0.000006030467    -0.000010162841     0.000009232615
      12        0.000229016862     0.002292088959    -0.003310097528
      13        0.000034274382    -0.000006873551     0.000000158496
      14       -0.000024220776     0.000017148840    -0.000003090296
      15        0.000004309410     0.000017071920    -0.000029130117
      16        0.000003425748    -0.000020274087     0.000024389522
      17       -0.000002209263    -0.000007629228     0.000020213526
      18        0.000000214873     0.000008373312    -0.000018027528
      19        0.000006454722    -0.000020266745    -0.000002648791
      20       -0.000007768093     0.000010522188     0.000020962869

  **** Optimization is complete! (in 8 steps) ****
    Final optimized geometry and variables:
    Molecular point group: c1

    Geometry (in Angstrom), charge = 0, multiplicity = 1:

    O           -2.318624468250    -1.042969838645    -0.838813802916
    C           -1.824315202846    -0.019382490070    -0.491132706713
    C           -2.563737989136     1.280252998261    -0.319725216914
    O           -0.537920009487     0.114836520399    -0.205213128448
    H           -2.134574547494     2.034144461283    -0.969640511709
    H           -3.607241750508     1.137522979480    -0.557661542237
    H           -2.459703359772     1.628959696401     0.701247832739
    C            0.285996801567    -1.044911495002    -0.326482525881
    C            1.734237757357    -0.679952623805     0.027596475750
    H            0.208731622362    -1.379004238583    -1.350985469879
    H           -0.109777762751    -1.812728557289     0.322507690811
    C            1.913549301000     0.566081981980     0.899967237373
    H            2.293870456646    -0.528028849955    -0.891748207468
    H            2.186558010199    -1.538829742301     0.515835873198
    C            3.379934662577     0.797548707013     1.263379895016
    H            1.525989144845     1.431131614521     0.375847274057
    H            1.325355379605     0.470334370054     1.808989979922
    H            3.495540761043     1.695029884489     1.862906669193
    H            3.992386658136     0.914542558785     0.373502991759
    H            3.782903316317    -0.034749456296     1.833590141612

  Mulliken Charges: (a.u.)
   Center  Symbol    Alpha    Beta     Spin     Total
       1     O     4.28402  4.28402  0.00000 -0.56805
       2     C     2.61879  2.61879  0.00000  0.76242
       3     C     3.28151  3.28151  0.00000 -0.56301
       4     O     4.31101  4.31101  0.00000 -0.62202
       5     H     0.40093  0.40093  0.00000  0.19815
       6     H     0.39695  0.39695  0.00000  0.20610
       7     H     0.40071  0.40071  0.00000  0.19857
       8     C     2.99789  2.99789  0.00000  0.00422
       9     C     3.17560  3.17560  0.00000 -0.35119
      10     H     0.40762  0.40762  0.00000  0.18475
      11     H     0.40888  0.40888  0.00000  0.18224
      12     C     3.14705  3.14705  0.00000 -0.29410
      13     H     0.41682  0.41682  0.00000  0.16637
      14     H     0.41626  0.41626  0.00000  0.16747
      15     C     3.24184  3.24184  0.00000 -0.48368
      16     H     0.41244  0.41244  0.00000  0.17512
      17     H     0.42049  0.42049  0.00000  0.15901
      18     H     0.41772  0.41772  0.00000  0.16457
      19     H     0.42166  0.42166  0.00000  0.15668
      20     H     0.42181  0.42181  0.00000  0.15638

   Total alpha = 32.00000, Total beta = 32.00000, Total charge = -0.00000
