  ==> Input File <==

--------------------------------------------------------------------------
set {
	reference rhf
	basis 6-31G*
}

set_num_threads( 1 )
memory 2 gb

molecule MOL {
0 1

H	 -3.161837	 0.500524	 -0.000234
C	 -2.367097	 -0.232926	 -0.000000
O	 -1.158440	 0.455814	 -0.000122
H	 -2.468853	 -0.861886	 -0.882833
H	 -2.468942	 -0.861421	 0.883154
C	 -0.029776	 -0.365156	 0.000148
C	 1.212217	 0.508981	 0.000007
H	 -0.036772	 -1.013236	 -0.877259
H	 -0.036869	 -1.012778	 0.877897
C	 2.283432	 0.002513	 0.964822
H	 1.606087	 0.547263	 -1.010964
H	 0.920564	 1.521617	 0.261170
H	 2.607246	 -1.001761	 0.705976
H	 3.157519	 0.644707	 0.944684
H	 1.916609	 -0.021174	 1.987213

	symmetry c1
}
set optking {
	frozen_dihedral = ("
		6 3 2 4,
		8 6 3 2
	")
}

ee = energy('scf')
oeprop('DIPOLE', 'QUADRUPOLE', 'MULLIKEN_CHARGES')
f=open( 'psi4out.xyz', 'w' )
f.write( "15  " )
f.write( str(ee) + "\n" )
f.write( MOL.save_string_xyz() )
f.close()
--------------------------------------------------------------------------

    Molecular point group: c1

    Geometry (in Angstrom), charge = 0, multiplicity = 1:

       Center              X                  Y                   Z               Mass
    ------------   -----------------  -----------------  -----------------  -----------------
           H         -3.117378755305     0.437325505895    -0.195840352396     1.007825032070
           C         -2.322638755305    -0.296124494105    -0.195606352396    12.000000000000
           O         -1.113981755305     0.392615505895    -0.195728352396    15.994914619560
           H         -2.424394755305    -0.925084494105    -1.078439352396     1.007825032070
           H         -2.424483755305    -0.924619494105     0.687547647604     1.007825032070
           C          0.014682244695    -0.428354494105    -0.195458352396    12.000000000000
           C          1.256675244695     0.445782505895    -0.195599352396    12.000000000000
           H          0.007686244695    -1.076434494105    -1.072865352396     1.007825032070
           H          0.007589244695    -1.075976494105     0.682290647604     1.007825032070
           C          2.327890244695    -0.060685494105     0.769215647604    12.000000000000
           H          1.650545244695     0.484064505895    -1.206570352396     1.007825032070
           H          0.965022244695     1.458418505895     0.065563647604     1.007825032070
           H          2.651704244695    -1.064959494105     0.510369647604     1.007825032070
           H          3.201977244695     0.581508505895     0.749077647604     1.007825032070
           H          1.961067244695    -0.084372494105     1.791606647604     1.007825032070

  Charge       = 0
  Multiplicity = 1
  Basis Set: 6-31G*
  Basis Set:

    Orbital Energies (a.u.)
    -----------------------

    Doubly Occupied:

       1A    -20.553413     2A    -11.265084     3A    -11.263489
       4A    -11.212482     5A    -11.211378     6A     -1.378345
       7A     -1.056541     8A     -0.954294     9A     -0.878234
      10A     -0.808452    11A     -0.672352    12A     -0.656693
      13A     -0.631342    14A     -0.599080    15A     -0.569849
      16A     -0.543741    17A     -0.496095    18A     -0.488773
      19A     -0.478414    20A     -0.461958    21A     -0.411553

  @DF-RHF Final Energy:  -232.13425238453053

   => Energetics <=

    Nuclear Repulsion Energy =            190.2462950734577873
    One-Electron Energy =                -691.5778931190126286
    Two-Electron Energy =                 269.1973456610249400
    DFT Exchange-Correlation Energy =       0.0000000000000000
    Empirical Dispersion Energy =           0.0000000000000000
    PCM Polarization Energy =               0.0000000000000000
    EFP Energy =                            0.0000000000000000
    Total Energy =                       -232.1342523845299297

  Mulliken Charges: (a.u.)
   Center  Symbol    Alpha    Beta     Spin     Total
       1     H     0.41236  0.41236  0.00000  0.17529
       2     C     3.07972  3.07972  0.00000 -0.15944
       3     O     4.30495  4.30495  0.00000 -0.60991
       4     H     0.43053  0.43053  0.00000  0.13894
       5     H     0.43046  0.43046  0.00000  0.13908
       6     C     2.98584  2.98584  0.00000  0.02832
       7     C     3.16481  3.16481  0.00000 -0.32961
       8     H     0.43143  0.43143  0.00000  0.13714
       9     H     0.43095  0.43095  0.00000  0.13810
      10     C     3.24692  3.24692  0.00000 -0.49385
      11     H     0.41879  0.41879  0.00000  0.16241
      12     H     0.40439  0.40439  0.00000  0.19122
      13     H     0.42245  0.42245  0.00000  0.15510
      14     H     0.41775  0.41775  0.00000  0.16450
      15     H     0.41864  0.41864  0.00000  0.16271

   Total alpha = 21.00000, Total beta = 21.00000, Total charge =  0.00000
