  ==> Input File <==

--------------------------------------------------------------------------
set {
	reference rhf
	basis 6-31G*
}

set_num_threads( 1 )
memory 2 gb

molecule MOL {
0 1

O	 0.749854	 1.307668	 -0.000040
C	 0.576249	 0.131685	 -0.000108
C	 -0.766779	 -0.556801	 -0.000461
O	 1.568443	 -0.749345	 -0.000005
C	 -1.945214	 0.412366	 0.000161
H	 -0.796911	 -1.211249	 -0.867467
H	 -0.796854	 -1.212390	 0.865687
C	 -2.595608	 0.525473	 -1.377795
H	 -1.605979	 1.388243	 0.330594
H	 -2.678075	 0.084300	 0.729449
H	 -1.888458	 0.883138	 -2.121077
H	 -3.429963	 1.218859	 -1.356171
H	 -2.973428	 -0.434978	 -1.717296
C	 2.886820	 -0.232538	 0.000322
H	 3.059106	 0.369571	 -0.880203
H	 3.540187	 -1.091012	 0.000050
H	 3.059019	 0.368956	 0.881266

	symmetry c1
}
set optking {
	frozen_dihedral = ("
		1 2 3 6,
		14 4 2 1
	")
}

ee = energy('scf')
oeprop('DIPOLE', 'QUADRUPOLE', 'MULLIKEN_CHARGES')
f=open( 'psi4out.xyz', 'w' )
f.write( "17  " )
f.write( str(ee) + "\n" )
f.write( MOL.save_string_xyz() )
f.close()
--------------------------------------------------------------------------

    Molecular point group: c1

    Geometry (in Angstrom), charge = 0, multiplicity = 1:

       Center              X                  Y                   Z               Mass
    ------------   -----------------  -----------------  -----------------  -----------------
           O          0.647961996964     1.183644596368     0.202793419446    15.994914619560
           C          0.474356996964     0.007661596368     0.202725419446    12.000000000000
           C         -0.868671003036    -0.680824403632     0.202372419446    12.000000000000
           O          1.466550996964    -0.873368403632     0.202828419446    15.994914619560
           C         -2.047106003036     0.288342596368     0.202994419446    12.000000000000
           H         -0.898803003036    -1.335272403632    -0.664633580554     1.007825032070
           H         -0.898746003036    -1.336413403632     1.068520419446     1.007825032070
           C         -2.697500003036     0.401449596368    -1.174961580554    12.000000000000
           H         -1.707871003036     1.264219596368     0.533427419446     1.007825032070
           H         -2.779967003036    -0.039723403632     0.932282419446     1.007825032070
           H         -1.990350003036     0.759114596368    -1.918243580554     1.007825032070
           H         -3.531855003036     1.094835596368    -1.153337580554     1.007825032070
           H         -3.075320003036    -0.559001403632    -1.514462580554     1.007825032070
           C          2.784927996964    -0.356561403632     0.203155419446    12.000000000000
           H          2.957213996964     0.245547596368    -0.677369580554     1.007825032070
           H          3.438294996964    -1.215035403632     0.202883419446     1.007825032070
           H          2.957126996964     0.244932596368     1.084099419446     1.007825032070

  Charge       = 0
  Multiplicity = 1
  Basis Set: 6-31G*
  Basis Set:

    Orbital Energies (a.u.)
    -----------------------

    Doubly Occupied:

       1A    -20.604740     2A    -20.546792     3A    -11.373408
       4A    -11.281517     5A    -11.234637     6A    -11.218454
       7A    -11.211246     8A     -1.470491     9A     -1.364282
      10A     -1.079603    11A     -1.000162    12A     -0.938380
      13A     -0.828633    14A     -0.766461    15A     -0.704220
      16A     -0.681932    17A     -0.673081    18A     -0.623071
      19A     -0.608557    20A     -0.569072    21A     -0.567674
      22A     -0.533452    23A     -0.524421    24A     -0.487364
      25A     -0.484172    26A     -0.475319    27A     -0.457793
      28A     -0.440689

  @DF-RHF Final Energy:  -344.90281545761894

   => Energetics <=

    Nuclear Repulsion Energy =            315.5857987867142924
    One-Electron Energy =               -1095.4779121505259809
    Two-Electron Energy =                 434.9892979061937126
    DFT Exchange-Correlation Energy =       0.0000000000000000
    Empirical Dispersion Energy =           0.0000000000000000
    PCM Polarization Energy =               0.0000000000000000
    EFP Energy =                            0.0000000000000000
    Total Energy =                       -344.9028154576179190

  Mulliken Charges: (a.u.)
   Center  Symbol    Alpha    Beta     Spin     Total
       1     O     4.28496  4.28496  0.00000 -0.56993
       2     C     2.61049  2.61049  0.00000  0.77902
       3     C     3.20937  3.20937  0.00000 -0.41873
       4     O     4.30567  4.30567  0.00000 -0.61133
       5     C     3.16100  3.16100  0.00000 -0.32199
       6     H     0.39840  0.39840  0.00000  0.20321
       7     H     0.39757  0.39757  0.00000  0.20485
       8     C     3.24294  3.24294  0.00000 -0.48588
       9     H     0.39517  0.39517  0.00000  0.20966
      10     H     0.41874  0.41874  0.00000  0.16252
      11     H     0.41690  0.41690  0.00000  0.16619
      12     H     0.41731  0.41731  0.00000  0.16539
      13     H     0.42287  0.42287  0.00000  0.15426
      14     C     3.09236  3.09236  0.00000 -0.18471
      15     H     0.40899  0.40899  0.00000  0.18202
      16     H     0.40832  0.40832  0.00000  0.18335
      17     H     0.40895  0.40895  0.00000  0.18210

   Total alpha = 28.00000, Total beta = 28.00000, Total charge = -0.00000
