  ==> Input File <==

--------------------------------------------------------------------------
set {
	reference rhf
	basis 6-31G*
}

set_num_threads( 4 )
memory 2 gb

molecule MOL {
0 1

H	 2.332609	 0.878551	 -1.051851
C	 2.357710	 0.000000	 -0.417167
C	 1.175432	 0.000000	 0.532082
H	 3.291263	 0.000000	 0.136880
H	 2.332609	 -0.878551	 -1.051851
O	 0.000000	 0.000000	 -0.221444
H	 1.206604	 0.877321	 1.177902
H	 1.206604	 -0.877321	 1.177902
C	 -1.175432	 0.000000	 0.532082
C	 -1.729891	 1.410859	 0.562172
H	 -0.971957	 -0.350013	 1.543929
H	 -1.901561	 -0.684414	 0.093832
H	 -1.011846	 2.089521	 1.008418
H	 -2.647109	 1.447569	 1.141701
H	 -1.942753	 1.754651	 -0.443712

	symmetry c1
}
set optking {
	frozen_dihedral = ("
		11 9 6 3
	")
}

ee = optimize('scf')
oeprop('DIPOLE', 'QUADRUPOLE', 'MULLIKEN_CHARGES')
f=open( 'psi4out.xyz', 'w' )
f.write( "15  " )
f.write( str(ee) + "\n" )
f.write( MOL.save_string_xyz() )
f.close()
--------------------------------------------------------------------------

    Molecular point group: c1
  Charge       = 0
  Multiplicity = 1
  Basis Set: 6-31G*
  Basis Set:
  @DF-RHF Final Energy:  -232.14050751868703
    Total Energy =                       -232.1405075186870022
    Molecular point group: c1
  Basis Set: 6-31G*
  Basis Set:
  Basis Set: 6-31G*
  Basis Set:
  @DF-RHF Final Energy:  -232.14117384116574
    Total Energy =                       -232.1411738411655961
  Basis Set: 6-31G*
  Basis Set:
  Basis Set: 6-31G*
  Basis Set:
  @DF-RHF Final Energy:  -232.14136876558644
    Total Energy =                       -232.1413687655863214
  Basis Set: 6-31G*
  Basis Set:
  Basis Set: 6-31G*
  Basis Set:
  @DF-RHF Final Energy:  -232.14137037558734
    Total Energy =                       -232.1413703755874280
  Basis Set: 6-31G*
  Basis Set:
  Charge       = 0
  Multiplicity = 1
  Basis Set: 6-31G*
  Basis Set:

    Orbital Energies (a.u.)
    -----------------------

    Doubly Occupied:

       1A    -20.548510     2A    -11.268838     3A    -11.267916
       4A    -11.209198     5A    -11.208540     6A     -1.373427
       7A     -1.041456     8A     -0.984250     9A     -0.855935
      10A     -0.819180    11A     -0.670427    12A     -0.654822
      13A     -0.636513    14A     -0.571879    15A     -0.552675
      16A     -0.540764    17A     -0.522819    18A     -0.501062
      19A     -0.486911    20A     -0.460524    21A     -0.404957

  @DF-RHF Final Energy:  -232.14137046466499

   => Energetics <=

    Nuclear Repulsion Energy =            191.9922997442436099
    One-Electron Energy =                -695.1061361231038518
    Two-Electron Energy =                 270.9724659141952543
    DFT Exchange-Correlation Energy =       0.0000000000000000
    Empirical Dispersion Energy =           0.0000000000000000
    PCM Polarization Energy =               0.0000000000000000
    EFP Energy =                            0.0000000000000000
    Total Energy =                       -232.1413704646649876
    Molecular point group: c1
  Basis Set: 6-31G*
  Basis Set:

  -Total Gradient:
     Atom            X                  Y                   Z
    ------   -----------------  -----------------  -----------------
       1       -0.000003549340    -0.000000990212     0.000004265642
       2        0.000002265645    -0.000005032345     0.000005231348
       3       -0.000021604654    -0.001095968503     0.000020316705
       4        0.000002278443    -0.000002007909    -0.000002217079
       5        0.000001466044    -0.000000923461    -0.000001402803
       6        0.000104839018     0.001947015672     0.000071593484
       7        0.000004474709    -0.000001217351     0.000005525732
       8       -0.000001362012    -0.000000943684    -0.000004227174
       9       -0.000361272517    -0.002139660225    -0.000496859432
      10       -0.000000154549     0.000000980257     0.000012544758
      11        0.000281095103     0.001299617419     0.000375828994
      12       -0.000005729283    -0.000003613356     0.000005976374
      13       -0.000002794404     0.000003315230    -0.000001871406
      14       -0.000004413084     0.000006247676     0.000002766243
      15        0.000004460880    -0.000006819209     0.000002528614

  **** Optimization is complete! (in 5 steps) ****
    Final optimized geometry and variables:
    Molecular point group: c1

    Geometry (in Angstrom), charge = 0, multiplicity = 1:

    H            2.207088261906     0.598808239973    -1.248170249537
    C            2.237801447434    -0.293466543676    -0.633150654887
    C            1.071793013125    -0.308373713964     0.335618864304
    H            3.180752569471    -0.311165249137    -0.095229972069
    H            2.195819867716    -1.157776611613    -1.286264247676
    O           -0.115387638183    -0.297781989146    -0.402562057542
    H            1.120191692577     0.556815812040     0.995691649738
    H            1.112973401789    -1.197210801517     0.963606670971
    C           -1.302225337826    -0.259613552141     0.343041767529
    C           -1.899796302393     1.139655626474     0.353263881229
    H           -1.121455451263    -0.592996945995     1.362202587601
    H           -1.994125672743    -0.958581880100    -0.113117813883
    H           -1.222476556020     1.848846145659     0.818500072135
    H           -2.836111213746     1.153851727591     0.904011133745
    H           -2.092222489775     1.472924455051    -0.660409858569

  Mulliken Charges: (a.u.)
   Center  Symbol    Alpha    Beta     Spin     Total
       1     H     0.41364  0.41364  0.00000  0.17272
       2     C     3.24420  3.24420  0.00000 -0.48840
       3     C     2.98874  2.98874  0.00000  0.02251
       4     H     0.42280  0.42280  0.00000  0.15439
       5     H     0.41304  0.41304  0.00000  0.17392
       6     O     4.31153  4.31153  0.00000 -0.62305
       7     H     0.43297  0.43297  0.00000  0.13407
       8     H     0.43101  0.43101  0.00000  0.13799
       9     C     2.99210  2.99210  0.00000  0.01580
      10     C     3.24405  3.24405  0.00000 -0.48810
      11     H     0.43097  0.43097  0.00000  0.13807
      12     H     0.41822  0.41822  0.00000  0.16357
      13     H     0.41983  0.41983  0.00000  0.16034
      14     H     0.42393  0.42393  0.00000  0.15215
      15     H     0.41299  0.41299  0.00000  0.17401

   Total alpha = 21.00000, Total beta = 21.00000, Total charge =  0.00000
