  ==> Input File <==

--------------------------------------------------------------------------
set {
	reference rhf
	basis 6-31G*
}

set_num_threads( 1 )
memory 2 gb

molecule MOL {
0 1

O	 1.846825	 1.296220	 0.000415
C	 1.705091	 0.115954	 0.001797
C	 0.381791	 -0.609817	 0.001258
O	 2.721346	 -0.737485	 -0.000216
C	 -0.823008	 0.326187	 0.001381
H	 0.371250	 -1.265087	 -0.865474
H	 0.370908	 -1.265746	 0.867490
C	 -1.912959	 -0.130850	 0.972044
H	 -1.227061	 0.389056	 -1.004092
H	 -0.496725	 1.329058	 0.258476
C	 -3.129537	 0.796320	 0.984336
H	 -2.233368	 -1.138457	 0.711157
H	 -1.500964	 -0.194203	 1.978090
C	 -4.217719	 0.339816	 1.955272
H	 -3.543834	 0.858661	 -0.019463
H	 -2.811221	 1.803064	 1.245636
H	 -4.581587	 -0.651234	 1.699078
H	 -5.066063	 1.016993	 1.941334
H	 -3.842975	 0.300235	 2.974247
C	 4.024888	 -0.184556	 -0.001949
H	 4.179030	 0.422472	 -0.882452
H	 4.701782	 -1.024608	 -0.003642
H	 4.181981	 0.421185	 0.878906

	symmetry c1
}
set optking {
	frozen_dihedral = ("
		15 11 8 12,
		9 5 8 12,
		1 2 3 6,
		1 2 4 20
	")
}

ee = energy('scf')
oeprop('DIPOLE', 'QUADRUPOLE', 'MULLIKEN_CHARGES')
f=open( 'psi4out.xyz', 'w' )
f.write( "23  " )
f.write( str(ee) + "\n" )
f.write( MOL.save_string_xyz() )
f.close()
--------------------------------------------------------------------------

    Molecular point group: c1

    Geometry (in Angstrom), charge = 0, multiplicity = 1:

       Center              X                  Y                   Z               Mass
    ------------   -----------------  -----------------  -----------------  -----------------
           O          1.740588957221     1.159533787017    -0.436394655741    15.994914619560
           C          1.598854957221    -0.020732212983    -0.435012655741    12.000000000000
           C          0.275554957221    -0.746503212983    -0.435551655741    12.000000000000
           O          2.615109957221    -0.874171212983    -0.437025655741    15.994914619560
           C         -0.929244042779     0.189500787017    -0.435428655741    12.000000000000
           H          0.265013957221    -1.401773212983    -1.302283655741     1.007825032070
           H          0.264671957221    -1.402432212983     0.430680344259     1.007825032070
           C         -2.019195042779    -0.267536212983     0.535234344259    12.000000000000
           H         -1.333297042779     0.252369787017    -1.440901655741     1.007825032070
           H         -0.602961042779     1.192371787017    -0.178333655741     1.007825032070
           C         -3.235773042779     0.659633787017     0.547526344259    12.000000000000
           H         -2.339604042779    -1.275143212983     0.274347344259     1.007825032070
           H         -1.607200042779    -0.330889212983     1.541280344259     1.007825032070
           C         -4.323955042779     0.203129787017     1.518462344259    12.000000000000
           H         -3.650070042779     0.721974787017    -0.456272655741     1.007825032070
           H         -2.917457042779     1.666377787017     0.808826344259     1.007825032070
           H         -4.687823042779    -0.787920212983     1.262268344259     1.007825032070
           H         -5.172299042779     0.880306787017     1.504524344259     1.007825032070
           H         -3.949211042779     0.163548787017     2.537437344259     1.007825032070
           C          3.918651957221    -0.321242212983    -0.438758655741    12.000000000000
           H          4.072793957221     0.285785787017    -1.319261655741     1.007825032070
           H          4.595545957221    -1.161294212983    -0.440451655741     1.007825032070
           H          4.075744957221     0.284498787017     0.442096344259     1.007825032070

  Charge       = 0
  Multiplicity = 1
  Basis Set: 6-31G*
  Basis Set:

    Orbital Energies (a.u.)
    -----------------------

    Doubly Occupied:

       1A    -20.604198     2A    -20.546222     3A    -11.372868
       4A    -11.281135     5A    -11.234253     6A    -11.216807
       7A    -11.215417     8A    -11.215022     9A    -11.208702
      10A     -1.469941    11A     -1.363701    12A     -1.092147
      13A     -1.042816    14A     -0.986720    15A     -0.931316
      16A     -0.843060    17A     -0.794908    18A     -0.766940
      19A     -0.701205    20A     -0.681918    21A     -0.672585
      22A     -0.646393    23A     -0.611162    24A     -0.599948
      25A     -0.570711    26A     -0.556963    27A     -0.555999
      28A     -0.526896    29A     -0.523404    30A     -0.502224
      31A     -0.484236    32A     -0.468809    33A     -0.462795
      34A     -0.457672    35A     -0.456282    36A     -0.437514

  @DF-RHF Final Energy:  -422.97221149153143

   => Energetics <=

    Nuclear Repulsion Energy =            454.1200002744776612
    One-Electron Energy =               -1475.9788240068085088
    Two-Electron Energy =                 598.8866122407994226
    DFT Exchange-Correlation Energy =       0.0000000000000000
    Empirical Dispersion Energy =           0.0000000000000000
    PCM Polarization Energy =               0.0000000000000000
    EFP Energy =                            0.0000000000000000
    Total Energy =                       -422.9722114915314251

  Mulliken Charges: (a.u.)
   Center  Symbol    Alpha    Beta     Spin     Total
       1     O     4.28472  4.28472  0.00000 -0.56944
       2     C     2.61049  2.61049  0.00000  0.77903
       3     C     3.21016  3.21016  0.00000 -0.42032
       4     O     4.30592  4.30592  0.00000 -0.61184
       5     C     3.16061  3.16061  0.00000 -0.32121
       6     H     0.39793  0.39793  0.00000  0.20414
       7     H     0.39841  0.39841  0.00000  0.20318
       8     C     3.15548  3.15548  0.00000 -0.31097
       9     H     0.41823  0.41823  0.00000  0.16355
      10     H     0.39492  0.39492  0.00000  0.21017
      11     C     3.15226  3.15226  0.00000 -0.30451
      12     H     0.42453  0.42453  0.00000  0.15094
      13     H     0.42272  0.42272  0.00000  0.15456
      14     C     3.23949  3.23949  0.00000 -0.47897
      15     H     0.42256  0.42256  0.00000  0.15488
      16     H     0.42026  0.42026  0.00000  0.15948
      17     H     0.42218  0.42218  0.00000  0.15564
      18     H     0.41878  0.41878  0.00000  0.16244
      19     H     0.42164  0.42164  0.00000  0.15671
      20     C     3.09226  3.09226  0.00000 -0.18453
      21     H     0.40898  0.40898  0.00000  0.18205
      22     H     0.40839  0.40839  0.00000  0.18321
      23     H     0.40910  0.40910  0.00000  0.18181

   Total alpha = 36.00000, Total beta = 36.00000, Total charge =  0.00000
