                              Psi4 1.0.54 Driver

  ==> Input File <==

--------------------------------------------------------------------------
set {
	reference rhf
	basis cc-pvtz
}

set_num_threads( 4 )
memory 2 gb

molecule MOL {
0 1

H	 2.679323	 1.239901	 -2.223047
O	 1.754258	 1.117067	 -2.335266
C	 1.154735	 0.816003	 -1.166763
C	 1.860174	 0.712756	 0.022513
C	 -0.209243	 0.607611	 -1.179336
H	 2.922675	 0.875412	 0.030492
C	 1.201244	 0.401854	 1.194736
H	 -0.756891	 0.686627	 -2.096223
C	 -0.861704	 0.296439	 0.000000
H	 1.757400	 0.324651	 2.108822
C	 -0.163057	 0.191887	 1.190707
C	 -2.330689	 0.069587	 0.000000
H	 -0.678175	 -0.050014	 2.100666
O	 -2.848621	 -0.993976	 0.000000
H	 -2.934306	 0.982410	 0.000000

	symmetry c1
}
set optking {
	frozen_dihedral = ("
		11 9 12 14
	")
}

ee,wfn = optimize('scf', return_wfn=True)
oeprop( wfn, 'DIPOLE', 'QUADRUPOLE', 'MULLIKEN_CHARGES')
f=open( 'psi4out.xyz', 'w' )
f.write( "15  " )
f.write( str(ee) + "\n" )
f.write( MOL.save_string_xyz() )
f.close()
--------------------------------------------------------------------------

    Molecular point group: c1
  Charge       = 0
  Multiplicity = 1
  Basis Set: CC-PVTZ
  Basis Set:
  @DF-RHF Final Energy:  -418.42729245023065
    Total Energy =                       -418.4272924502301976
    Molecular point group: c1
  Basis Set: CC-PVTZ
  Basis Set:
  Basis Set: CC-PVTZ
  Basis Set:
  @DF-RHF Final Energy:  -418.42764595778033
    Total Energy =                       -418.4276459577804417
  Basis Set: CC-PVTZ
  Basis Set:
  Basis Set: CC-PVTZ
  Basis Set:
  @DF-RHF Final Energy:  -418.42678243634754
    Total Energy =                       -418.4267824363477075
  Basis Set: CC-PVTZ
  Basis Set:
  Basis Set: CC-PVTZ
  Basis Set:
  @DF-RHF Final Energy:  -418.42772924555385
    Total Energy =                       -418.4277292455540191
  Basis Set: CC-PVTZ
  Basis Set:
  Basis Set: CC-PVTZ
  Basis Set:
  @DF-RHF Final Energy:  -418.42774212308973
    Total Energy =                       -418.4277421230898426
  Basis Set: CC-PVTZ
  Basis Set:
  Charge       = 0
  Multiplicity = 1
  Basis Set: CC-PVTZ
  Basis Set:

    Orbital Energies (a.u.)
    -----------------------

    Doubly Occupied:

       1A    -20.597024     2A    -20.563868     3A    -11.333075
       4A    -11.312727     5A    -11.256406     6A    -11.249408
       7A    -11.239138     8A    -11.237780     9A    -11.235913
      10A     -1.428900    11A     -1.418330    12A     -1.172251
      13A     -1.051478    14A     -1.026908    15A     -0.901987
      16A     -0.845716    17A     -0.821124    18A     -0.742984
      19A     -0.703276    20A     -0.677642    21A     -0.672265
      22A     -0.642673    23A     -0.616345    24A     -0.607957
      25A     -0.587399    26A     -0.545950    27A     -0.535665
      28A     -0.515729    29A     -0.498247    30A     -0.426764
      31A     -0.357693    32A     -0.328677

  @DF-RHF Final Energy:  -418.42774275498886

   => Energetics <=

    Nuclear Repulsion Energy =            402.7264233293836355
    One-Electron Energy =               -1368.0057322038915117
    Two-Electron Energy =                 546.8515661195193616
    DFT Exchange-Correlation Energy =       0.0000000000000000
    Empirical Dispersion Energy =           0.0000000000000000
    PCM Polarization Energy =               0.0000000000000000
    EFP Energy =                            0.0000000000000000
    Total Energy =                       -418.4277427549885715
    Molecular point group: c1
  Basis Set: CC-PVTZ
  Basis Set:

  -Total Gradient:
     Atom            X                  Y                   Z
    ------   -----------------  -----------------  -----------------
       1       -0.000001662619     0.000011803285    -0.000000382494
       2        0.000015792084     0.000040605255     0.000016509154
       3       -0.000112691267    -0.000158769943    -0.000106426034
       4        0.000006860145     0.000015031908     0.000165853416
       5        0.000077591258     0.000072369150    -0.000030230448
       6       -0.000002721925     0.000007302809    -0.000012002592
       7        0.000143500542     0.000035736027    -0.000091595367
       8        0.000005222802    -0.000000828714    -0.000001401276
       9        0.000488628582    -0.003280345257    -0.001636217776
      10       -0.000006332849    -0.000001420584     0.000008433789
      11       -0.000449148535     0.002220830551     0.000291407607
      12       -0.000289161046     0.001097133606     0.004179768101
      13        0.000009133263    -0.000000977167    -0.000003795222
      14        0.000059725749    -0.000005444851    -0.002789267223
      15        0.000055263813    -0.000053026077     0.000009346365

  **** Optimization is complete! (in 6 steps) ****
    Final optimized geometry and variables:
    Molecular point group: c1

    Geometry (in Angstrom), charge = 0, multiplicity = 1:

    H            2.726490020710     0.881997664025    -1.934096372704
    O            1.799111499086     0.766670956532    -2.037241145524
    C            1.214136632566     0.462143282282    -0.863685828455
    C            1.925274723807     0.365375437009     0.318705589925
    C           -0.153486221244     0.249668699876    -0.870036627356
    H            2.986245565264     0.536095185446     0.324774351901
    C            1.264251255913     0.050133644677     1.489922220839
    H           -0.687704918148     0.336130145748    -1.796558294501
    C           -0.797837601075    -0.082767446497     0.304100937287
    H            1.820490709489    -0.021589425739     2.404826930934
    C           -0.097119201024    -0.174520122799     1.495150856886
    C           -2.285086356050    -0.278084266088     0.292005814753
    H           -0.603832912775    -0.429073066478     2.405285392448
    O           -2.813842904409    -1.333261714479     0.308202621624
    H           -2.879057762398     0.640407937667     0.244732786683

  Mulliken Charges: (a.u.)
   Center  Symbol    Alpha    Beta     Spin     Total
       1     H     0.38618  0.38618  0.00000  0.22765
       2     O     4.17157  4.17157  0.00000 -0.34313
       3     C     2.83568  2.83568  0.00000  0.32863
       4     C     3.14140  3.14140  0.00000 -0.28281
       5     C     3.13637  3.13637  0.00000 -0.27274
       6     H     0.43259  0.43259  0.00000  0.13481
       7     C     3.05249  3.05249  0.00000 -0.10498
       8     H     0.41922  0.41922  0.00000  0.16156
       9     C     2.91874  2.91874  0.00000  0.16252
      10     H     0.41968  0.41968  0.00000  0.16064
      11     C     3.12145  3.12145  0.00000 -0.24289
      12     C     2.92975  2.92975  0.00000  0.14051
      13     H     0.42132  0.42132  0.00000  0.15737
      14     O     4.15565  4.15565  0.00000 -0.31131
      15     H     0.45792  0.45792  0.00000  0.08416

   Total alpha = 32.00000, Total beta = 32.00000, Total charge =  0.00000

*** Psi4 exiting successfully. Buy a developer a beer!
