                              Psi4 1.0.54 Driver

  ==> Input File <==

--------------------------------------------------------------------------
set {
	reference rhf
	basis cc-pvtz
}

set_num_threads( 4 )
memory 2 gb

molecule MOL {
0 1

H	 -3.401682	 -1.036167	 0.000000
O	 -3.113760	 -0.140926	 0.000000
C	 -1.775087	 -0.058754	 0.000000
C	 -1.106219	 1.090572	 0.402619
C	 -1.065513	 -1.171510	 -0.420073
H	 -1.663667	 1.949829	 0.727206
C	 0.267962	 1.121201	 0.383102
H	 -1.600716	 -2.047702	 -0.726446
C	 0.310219	 -1.124578	 -0.433701
H	 0.795793	 2.001849	 0.691259
C	 0.993354	 0.014270	 -0.035207
H	 0.861727	 -1.987289	 -0.759411
C	 2.467669	 0.041117	 -0.058330
O	 3.136072	 0.966425	 0.262916
H	 2.937415	 -0.885519	 -0.405440

	symmetry c1
}
set optking {
	frozen_dihedral = ("
		5 3 2 1
	")
}

ee,wfn = optimize('scf', return_wfn=True)
oeprop( wfn, 'DIPOLE', 'QUADRUPOLE', 'MULLIKEN_CHARGES')
f=open( 'psi4out.xyz', 'w' )
f.write( "15  " )
f.write( str(ee) + "\n" )
f.write( MOL.save_string_xyz() )
f.close()
--------------------------------------------------------------------------

    Molecular point group: c1
  Charge       = 0
  Multiplicity = 1
  Basis Set: CC-PVTZ
  Basis Set:
  @DF-RHF Final Energy:  -418.43987271917291
    Total Energy =                       -418.4398727191726266
    Molecular point group: c1
  Basis Set: CC-PVTZ
  Basis Set:
  Basis Set: CC-PVTZ
  Basis Set:
  @DF-RHF Final Energy:  -418.44168058908895
    Total Energy =                       -418.4416805890892874
  Basis Set: CC-PVTZ
  Basis Set:
  Basis Set: CC-PVTZ
  Basis Set:
  @DF-RHF Final Energy:  -418.44183585056595
    Total Energy =                       -418.4418358505657807
  Basis Set: CC-PVTZ
  Basis Set:
  Basis Set: CC-PVTZ
  Basis Set:
  @DF-RHF Final Energy:  -418.44115938178356
    Total Energy =                       -418.4411593817837911
  Basis Set: CC-PVTZ
  Basis Set:
  Basis Set: CC-PVTZ
  Basis Set:
  @DF-RHF Final Energy:  -418.44185476990600
    Total Energy =                       -418.4418547699062856
  Basis Set: CC-PVTZ
  Basis Set:
  Basis Set: CC-PVTZ
  Basis Set:
  @DF-RHF Final Energy:  -418.44186457789601
    Total Energy =                       -418.4418645778956716
  Basis Set: CC-PVTZ
  Basis Set:
  Charge       = 0
  Multiplicity = 1
  Basis Set: CC-PVTZ
  Basis Set:

    Orbital Energies (a.u.)
    -----------------------

    Doubly Occupied:

       1A    -20.603256     2A    -20.545955     3A    -11.322949
       4A    -11.321762     5A    -11.260445     6A    -11.251908
       7A    -11.242437     8A    -11.237644     9A    -11.236580
      10A     -1.436022    11A     -1.402259    12A     -1.175309
      13A     -1.046595    14A     -1.040412    15A     -0.896809
      16A     -0.861458    17A     -0.805729    18A     -0.761307
      19A     -0.699830    20A     -0.690260    21A     -0.643325
      22A     -0.629429    23A     -0.619838    24A     -0.610762
      25A     -0.581150    26A     -0.561007    27A     -0.555297
      28A     -0.508954    29A     -0.490236    30A     -0.421781
      31A     -0.361765    32A     -0.333385

  @DF-RHF Final Energy:  -418.44186539949749

   => Energetics <=

    Nuclear Repulsion Energy =            402.2336633816886433
    One-Electron Energy =               -1367.0393413346962461
    Two-Electron Energy =                 546.3638125535097743
    DFT Exchange-Correlation Energy =       0.0000000000000000
    Empirical Dispersion Energy =           0.0000000000000000
    PCM Polarization Energy =               0.0000000000000000
    EFP Energy =                            0.0000000000000000
    Total Energy =                       -418.4418653994978285
    Molecular point group: c1
  Basis Set: CC-PVTZ
  Basis Set:

  -Total Gradient:
     Atom            X                  Y                   Z
    ------   -----------------  -----------------  -----------------
       1        0.000017665516    -0.000031744327     0.002306694247
       2        0.000005475837     0.000374157593    -0.003800796676
       3       -0.000034145631    -0.000937733776     0.003152073224
       4       -0.000005418943    -0.000009556104    -0.000024667203
       5        0.000027108256     0.000585154605    -0.001633492586
       6       -0.000006276841    -0.000010616450    -0.000000870365
       7        0.000059614740    -0.000025527783    -0.000019870483
       8       -0.000005431879     0.000000639228     0.000001861767
       9       -0.000087829492    -0.000048334067    -0.000040749743
      10       -0.000003430628    -0.000006388335     0.000001851481
      11        0.000055913025     0.000091935492     0.000045283779
      12        0.000005454856     0.000011772348     0.000008810404
      13        0.000036534767    -0.000022355352    -0.000007944233
      14       -0.000023673657    -0.000057403242    -0.000020911190
      15       -0.000041559924     0.000086000171     0.000032727577

  **** Optimization is complete! (in 7 steps) ****
    Final optimized geometry and variables:
    Molecular point group: c1

    Geometry (in Angstrom), charge = 0, multiplicity = 1:

    H           -3.463545896511    -1.029726221039    -0.009227390769
    O           -3.110006532473    -0.158191099298     0.003193743461
    C           -1.766946863880    -0.175482615110    -0.009973908450
    C           -1.109525204153     0.984584150383     0.386623120782
    C           -1.047782523808    -1.276599162327    -0.436966924211
    H           -1.691174780145     1.825934550203     0.706560019969
    C            0.260342386909     1.028237959261     0.362718387266
    H           -1.559789119308    -2.164372494603    -0.758268930292
    C            0.332345966440    -1.219543301833    -0.448671683606
    H            0.780923494705     1.914292196429     0.667780964149
    C            0.999864933489    -0.076432986450    -0.053158901301
    H            0.890991905794    -2.076701128093    -0.776755851271
    C            2.474322260816    -0.036706416374    -0.077503509549
    O            3.134801847379     0.894272598154     0.241998996885
    H            2.950911466814    -0.960188868478    -0.424076755432

  Mulliken Charges: (a.u.)
   Center  Symbol    Alpha    Beta     Spin     Total
       1     H     0.38498  0.38498  0.00000  0.23004
       2     O     4.16847  4.16847  0.00000 -0.33693
       3     C     2.84723  2.84723  0.00000  0.30554
       4     C     3.10734  3.10734  0.00000 -0.21469
       5     C     3.13193  3.13193  0.00000 -0.26386
       6     H     0.41495  0.41495  0.00000  0.17010
       7     C     3.06038  3.06038  0.00000 -0.12076
       8     H     0.43009  0.43009  0.00000  0.13981
       9     C     3.07428  3.07428  0.00000 -0.14855
      10     H     0.40726  0.40726  0.00000  0.18549
      11     C     3.00176  3.00176  0.00000 -0.00352
      12     H     0.42124  0.42124  0.00000  0.15752
      13     C     2.91126  2.91126  0.00000  0.17748
      14     O     4.17797  4.17797  0.00000 -0.35594
      15     H     0.46086  0.46086  0.00000  0.07827

   Total alpha = 32.00000, Total beta = 32.00000, Total charge = -0.00000

*** Psi4 exiting successfully. Buy a developer a beer!
