  ==> Input File <==

--------------------------------------------------------------------------
set {
	reference rhf
	basis cc-pvtz
}

set_num_threads( 4 )
memory 2 gb

molecule MOL {
0 1

H	 -0.085978	 -0.224744	 3.050503
O	 -0.041726	 -0.241276	 2.112514
C	 -0.033754	 1.068412	 1.605888
C	 0.027642	 1.012027	 0.090274
H	 0.832004	 1.611806	 1.975960
H	 -0.918855	 1.606927	 1.933086
C	 -1.138737	 0.285728	 -0.581921
H	 0.955244	 0.523240	 -0.189278
H	 0.086167	 2.032743	 -0.279764
C	 -1.933983	 -0.631436	 0.343653
H	 -0.763151	 -0.285569	 -1.422081
H	 -1.808359	 1.035291	 -0.992333
H	 -2.789188	 -1.049673	 -0.174718
H	 -1.335629	 -1.461368	 0.700418
H	 -2.305435	 -0.092167	 1.209725

	symmetry c1
}
set optking {
	frozen_dihedral = ("
		8 4 7 11
	")
}

ee = optimize('scf')
oeprop('DIPOLE', 'QUADRUPOLE', 'MULLIKEN_CHARGES')
f=open( 'psi4out.xyz', 'w' )
f.write( "15  " )
f.write( str(ee) + "\n" )
f.write( MOL.save_string_xyz() )
f.close()
--------------------------------------------------------------------------

    Molecular point group: c1
  Charge       = 0
  Multiplicity = 1
  Basis Set: CC-PVTZ
  Basis Set:
  @DF-RHF Final Energy:  -232.22341284085269
    Total Energy =                       -232.2234128408529159
    Molecular point group: c1
  Basis Set: CC-PVTZ
  Basis Set:
  Basis Set: CC-PVTZ
  Basis Set:
  @DF-RHF Final Energy:  -232.22884405024880
    Total Energy =                       -232.2288440502489379
  Basis Set: CC-PVTZ
  Basis Set:
  Basis Set: CC-PVTZ
  Basis Set:
  @DF-RHF Final Energy:  -232.23010601702555
    Total Energy =                       -232.2301060170257188
  Basis Set: CC-PVTZ
  Basis Set:
  Basis Set: CC-PVTZ
  Basis Set:
  @DF-RHF Final Energy:  -232.23035366902531
    Total Energy =                       -232.2303536690254191
  Basis Set: CC-PVTZ
  Basis Set:
  Basis Set: CC-PVTZ
  Basis Set:
  @DF-RHF Final Energy:  -232.23038110146871
    Total Energy =                       -232.2303811014686517
  Basis Set: CC-PVTZ
  Basis Set:
  Basis Set: CC-PVTZ
  Basis Set:
  @DF-RHF Final Energy:  -232.23039936127395
    Total Energy =                       -232.2303993612740101
  Basis Set: CC-PVTZ
  Basis Set:
  Charge       = 0
  Multiplicity = 1
  Basis Set: CC-PVTZ
  Basis Set:

    Orbital Energies (a.u.)
    -----------------------

    Doubly Occupied:

       1A    -20.546006     2A    -11.266893     3A    -11.211659
       4A    -11.210715     5A    -11.196500     6A     -1.364257
       7A     -1.061035     8A     -0.971678     9A     -0.868967
      10A     -0.772854    11A     -0.707276    12A     -0.650085
      13A     -0.610242    14A     -0.570702    15A     -0.559968
      16A     -0.535544    17A     -0.509374    18A     -0.477859
      19A     -0.461391    20A     -0.452212    21A     -0.429613

  @DF-RHF Final Energy:  -232.23040149669981

   => Energetics <=

    Nuclear Repulsion Energy =            192.9966947473157575
    One-Electron Energy =                -697.5845269169838048
    Two-Electron Energy =                 272.3574306729683485
    DFT Exchange-Correlation Energy =       0.0000000000000000
    Empirical Dispersion Energy =           0.0000000000000000
    PCM Polarization Energy =               0.0000000000000000
    EFP Energy =                            0.0000000000000000
    Total Energy =                       -232.2304014966996988
    Molecular point group: c1
  Basis Set: CC-PVTZ
  Basis Set:

  -Total Gradient:
     Atom            X                  Y                   Z
    ------   -----------------  -----------------  -----------------
       1        0.000002319680     0.000015966996     0.000005511886
       2       -0.000033674952     0.000015869686    -0.000018374544
       3        0.000053218000     0.000013330658    -0.000009464634
       4       -0.000671878298    -0.004606794223     0.005226510417
       5        0.000001902928     0.000008168588    -0.000028315847
       6       -0.000024362420    -0.000031012552     0.000015720241
       7       -0.000390115940     0.005366961604    -0.004242708886
       8        0.000604989452     0.002975594577    -0.003707764117
       9        0.000002276252     0.000031466571     0.000013484490
      10        0.000007814989     0.000035492670     0.000059083282
      11        0.000439262429    -0.003809306370     0.002726357350
      12        0.000004502262    -0.000020523718     0.000015930454
      13       -0.000002507612    -0.000002610741    -0.000010493704
      14       -0.000003900155     0.000021829616    -0.000023000486
      15        0.000010153382    -0.000014433363    -0.000022475903

  **** Optimization is complete! (in 7 steps) ****
    Final optimized geometry and variables:
    Molecular point group: c1

    Geometry (in Angstrom), charge = 0, multiplicity = 1:

    H            0.741771888695    -0.373961288980     2.381193512387
    O            0.791497354949    -0.452319601414     1.446451793313
    C            0.578469106304     0.798967259771     0.846451635631
    C            0.619971778298     0.660660076095    -0.663770243586
    H            1.357153847507     1.492977253899     1.152099464042
    H           -0.373072889713     1.219621269797     1.163709148687
    C           -0.594834519237     0.018119497383    -1.371197686193
    H            1.530809781105     0.141151234031    -0.939529066918
    H            0.741471766897     1.663853609748    -1.063603216779
    C           -1.449833262040    -0.944559541921    -0.545107318306
    H           -0.225340043329    -0.543466526884    -2.222135847399
    H           -1.235916857263     0.801247989184    -1.761155110899
    H           -2.258460968555    -1.329526452343    -1.157009465568
    H           -0.869038638539    -1.781682585465    -0.183341629749
    H           -1.895136599090    -0.460143922476     0.315491943614

  Mulliken Charges: (a.u.)
   Center  Symbol    Alpha    Beta     Spin     Total
       1     H     0.39614  0.39614  0.00000  0.20773
       2     O     4.19849  4.19849  0.00000 -0.39698
       3     C     2.98338  2.98338  0.00000  0.03324
       4     C     3.09227  3.09227  0.00000 -0.18454
       5     H     0.45938  0.45938  0.00000  0.08125
       6     H     0.46944  0.46944  0.00000  0.06111
       7     C     3.09061  3.09061  0.00000 -0.18122
       8     H     0.45032  0.45032  0.00000  0.09937
       9     H     0.45273  0.45273  0.00000  0.09455
      10     C     3.14497  3.14497  0.00000 -0.28995
      11     H     0.45224  0.45224  0.00000  0.09552
      12     H     0.45383  0.45383  0.00000  0.09234
      13     H     0.45057  0.45057  0.00000  0.09886
      14     H     0.44583  0.44583  0.00000  0.10835
      15     H     0.45981  0.45981  0.00000  0.08038

   Total alpha = 21.00000, Total beta = 21.00000, Total charge =  0.00000
