  ==> Input File <==

--------------------------------------------------------------------------
set {
	reference rhf
	basis 6-31G*
}

set_num_threads( 1 )
memory 2 gb

molecule MOL {
0 1

H	 -2.455965	 1.745545	 -1.435496
C	 -1.716099	 1.116913	 -0.979336
C	 -2.076860	 -0.007332	 -0.404944
H	 -0.689295	 1.429720	 -1.006430
O	 -1.180634	 -0.819263	 0.215062
H	 -3.098720	 -0.341991	 -0.373317
C	 0.051604	 -1.018856	 -0.387932
C	 1.043764	 0.054862	 -0.001873
H	 -0.017620	 -1.041351	 -1.469781
H	 0.437898	 -1.966374	 -0.042284
F	 2.212596	 -0.199467	 -0.571921
F	 0.652529	 1.252447	 -0.405055
F	 1.230877	 0.110694	 1.300533

	symmetry c1
}
set optking {
	frozen_dihedral = ("
		11 8 7 9,
		3 5 7 9,
		6 3 2 1
	")
}

ee = energy('scf')
oeprop('DIPOLE', 'QUADRUPOLE', 'MULLIKEN_CHARGES')
f=open( 'psi4out.xyz', 'w' )
f.write( "13  " )
f.write( str(ee) + "\n" )
f.write( MOL.save_string_xyz() )
f.close()
--------------------------------------------------------------------------

    Molecular point group: c1

    Geometry (in Angstrom), charge = 0, multiplicity = 1:

       Center              X                  Y                   Z               Mass
    ------------   -----------------  -----------------  -----------------  -----------------
           H         -2.620156987260     1.661634843440    -1.308039677647     1.007825032070
           C         -1.880290987260     1.033002843440    -0.851879677647    12.000000000000
           C         -2.241051987260    -0.091242156560    -0.277487677647    12.000000000000
           H         -0.853486987260     1.345809843440    -0.878973677647     1.007825032070
           O         -1.344825987260    -0.903173156560     0.342518322353    15.994914619560
           H         -3.262911987260    -0.425901156560    -0.245860677647     1.007825032070
           C         -0.112587987260    -1.102766156560    -0.260475677647    12.000000000000
           C          0.879572012740    -0.029048156560     0.125583322353    12.000000000000
           H         -0.181811987260    -1.125261156560    -1.342324677647     1.007825032070
           H          0.273706012740    -2.050284156560     0.085172322353     1.007825032070
           F          2.048404012740    -0.283377156560    -0.444464677647    18.998403224000
           F          0.488337012740     1.168536843440    -0.277598677647    18.998403224000
           F          1.066685012740     0.026783843440     1.427989322353    18.998403224000

  Charge       = 0
  Multiplicity = 1
  Basis Set: 6-31G*
  Basis Set:

    Orbital Energies (a.u.)
    -----------------------

    Doubly Occupied:

       1A    -26.356784     2A    -26.348758     3A    -26.344976
       4A    -20.599858     5A    -11.508768     6A    -11.316057
       7A    -11.287453     8A    -11.197895     9A     -1.752478
      10A     -1.656369    11A     -1.643017    12A     -1.432149
      13A     -1.078715    14A     -1.016655    15A     -0.949620
      16A     -0.845190    17A     -0.840379    18A     -0.818159
      19A     -0.790177    20A     -0.737946    21A     -0.717553
      22A     -0.700724    23A     -0.685378    24A     -0.669676
      25A     -0.651910    26A     -0.645954    27A     -0.634210
      28A     -0.600248    29A     -0.533540    30A     -0.510136
      31A     -0.486292    32A     -0.353905

  @DF-RHF Final Energy:  -527.49792746821959

   => Energetics <=

    Nuclear Repulsion Energy =            428.0657684500340565
    One-Electron Energy =               -1579.7055025946829119
    Two-Electron Energy =                 624.1418066764290415
    DFT Exchange-Correlation Energy =       0.0000000000000000
    Empirical Dispersion Energy =           0.0000000000000000
    PCM Polarization Energy =               0.0000000000000000
    EFP Energy =                            0.0000000000000000
    Total Energy =                       -527.4979274682198138

  Mulliken Charges: (a.u.)
   Center  Symbol    Alpha    Beta     Spin     Total
       1     H     0.41307  0.41307  0.00000  0.17386
       2     C     3.25869  3.25869  0.00000 -0.51739
       3     C     2.91629  2.91629  0.00000  0.16742
       4     H     0.36335  0.36335  0.00000  0.27331
       5     O     4.30633  4.30633  0.00000 -0.61267
       6     H     0.39962  0.39962  0.00000  0.20077
       7     C     3.06246  3.06246  0.00000 -0.12492
       8     C     2.45381  2.45381  0.00000  1.09237
       9     H     0.40178  0.40178  0.00000  0.19644
      10     H     0.39152  0.39152  0.00000  0.21696
      11     F     4.68201  4.68201  0.00000 -0.36403
      12     F     4.67778  4.67778  0.00000 -0.35557
      13     F     4.67328  4.67328  0.00000 -0.34655

   Total alpha = 32.00000, Total beta = 32.00000, Total charge = -0.00000
