  ==> Input File <==

--------------------------------------------------------------------------
set {
	reference rhf
	basis cc-pvtz
}

set_num_threads( 4 )
memory 2 gb

molecule MOL {
0 1

H	 -1.814137	 1.086277	 0.301022
N	 -1.851927	 0.161443	 -0.071573
C	 -0.561396	 -0.500007	 0.035200
H	 -2.134510	 0.239654	 -1.026227
C	 0.575129	 0.507849	 -0.048832
H	 -0.478089	 -1.200753	 -0.788956
H	 -0.456191	 -1.081816	 0.952176
C	 1.951750	 -0.141983	 0.035101
H	 0.478254	 1.061643	 -0.975981
H	 0.467676	 1.231891	 0.755499
H	 2.101550	 -0.848142	 -0.774949
H	 2.738260	 0.600794	 -0.026526
H	 2.078939	 -0.679792	 0.968824

	symmetry c1
}
set optking {
	frozen_dihedral = ("
		1 2 3 6
	")
}

ee = optimize('scf')
oeprop('DIPOLE', 'QUADRUPOLE', 'MULLIKEN_CHARGES')
f=open( 'psi4out.xyz', 'w' )
f.write( "13  " )
f.write( str(ee) + "\n" )
f.write( MOL.save_string_xyz() )
f.close()
--------------------------------------------------------------------------

    Molecular point group: c1
  Charge       = 0
  Multiplicity = 1
  Basis Set: CC-PVTZ
  Basis Set:
  @DF-RHF Final Energy:  -173.34931595130371
    Total Energy =                       -173.3493159513037654
    Molecular point group: c1
  Basis Set: CC-PVTZ
  Basis Set:
  Basis Set: CC-PVTZ
  Basis Set:
  @DF-RHF Final Energy:  -173.35043868451703
    Total Energy =                       -173.3504386845171155
  Basis Set: CC-PVTZ
  Basis Set:
  Basis Set: CC-PVTZ
  Basis Set:
  @DF-RHF Final Energy:  -173.35060215025891
    Total Energy =                       -173.3506021502587373
  Basis Set: CC-PVTZ
  Basis Set:
  Basis Set: CC-PVTZ
  Basis Set:
  @DF-RHF Final Energy:  -173.35060468791229
    Total Energy =                       -173.3506046879121811
  Basis Set: CC-PVTZ
  Basis Set:
  Charge       = 0
  Multiplicity = 1
  Basis Set: CC-PVTZ
  Basis Set:

    Orbital Energies (a.u.)
    -----------------------

    Doubly Occupied:

       1A    -15.526283     2A    -11.238720     3A    -11.215157
       4A    -11.210164     5A     -1.178131     6A     -1.038558
       7A     -0.900436     8A     -0.807624     9A     -0.673664
      10A     -0.612692    11A     -0.606914    12A     -0.559655
      13A     -0.534497    14A     -0.507719    15A     -0.485943
      16A     -0.471425    17A     -0.381102

  @DF-RHF Final Energy:  -173.35060484105165

   => Energetics <=

    Nuclear Repulsion Energy =            131.8456774608664830
    One-Electron Energy =                -494.4951987372239728
    Two-Electron Energy =                 189.2989164353057845
    DFT Exchange-Correlation Energy =       0.0000000000000000
    Empirical Dispersion Energy =           0.0000000000000000
    PCM Polarization Energy =               0.0000000000000000
    EFP Energy =                            0.0000000000000000
    Total Energy =                       -173.3506048410517337
    Molecular point group: c1
  Basis Set: CC-PVTZ
  Basis Set:

  -Total Gradient:
     Atom            X                  Y                   Z
    ------   -----------------  -----------------  -----------------
       1        0.000647621216     0.001138328264    -0.002881306087
       2       -0.000550199934    -0.000914386232     0.003221203267
       3       -0.001156796097    -0.002288811978     0.001321522021
       4        0.000004689508    -0.000001439390     0.000004347207
       5       -0.000030729540    -0.000023303954     0.000001069208
       6        0.001059690166     0.002078060937    -0.001674382576
       7        0.000010178409     0.000004243205     0.000004493032
       8        0.000005410287     0.000005871162     0.000003908131
       9       -0.000002084776    -0.000000530643     0.000001929688
      10       -0.000000592033     0.000006363162    -0.000003263287
      11       -0.000001848679     0.000001306831     0.000001313927
      12        0.000012807738    -0.000005098845     0.000001918573
      13        0.000001853736    -0.000000602520    -0.000002753105

  **** Optimization is complete! (in 5 steps) ****
    Final optimized geometry and variables:
    Molecular point group: c1

    Geometry (in Angstrom), charge = 0, multiplicity = 1:

    H           -1.887947715737     1.042417260206     0.335493539847
    N           -1.895560916125     0.112974255912    -0.029670358191
    C           -0.569803483809    -0.488689543506     0.041760304091
    H           -2.195670149373     0.190266002873    -0.977977259716
    C            0.587624354468     0.503592634515    -0.034995850739
    H           -0.474107698231    -1.193028472050    -0.777606620984
    H           -0.489217470767    -1.059642701938     0.961283665092
    C            1.953421865293    -0.167534692662     0.061258648227
    H            0.516490090162     1.061175455016    -0.965176697184
    H            0.484512632151     1.229485492453     0.768279722097
    H            2.100672884641    -0.874252187720    -0.748752860493
    H            2.753571030641     0.561510095797     0.012077093063
    H            2.058034169154    -0.710276494990     0.994690350534

  Mulliken Charges: (a.u.)
   Center  Symbol    Alpha    Beta     Spin     Total
       1     H     0.43089  0.43089  0.00000  0.13823
       2     N     3.69032  3.69032  0.00000 -0.38064
       3     C     3.02087  3.02087  0.00000 -0.04174
       4     H     0.43079  0.43079  0.00000  0.13841
       5     C     3.08375  3.08375  0.00000 -0.16749
       6     H     0.45895  0.45895  0.00000  0.08209
       7     H     0.45734  0.45734  0.00000  0.08533
       8     C     3.15278  3.15278  0.00000 -0.30557
       9     H     0.45832  0.45832  0.00000  0.08336
      10     H     0.45855  0.45855  0.00000  0.08291
      11     H     0.45518  0.45518  0.00000  0.08964
      12     H     0.44793  0.44793  0.00000  0.10414
      13     H     0.45434  0.45434  0.00000  0.09133

   Total alpha = 17.00000, Total beta = 17.00000, Total charge = -0.00000
