                              Psi4 1.0.54 Driver

  ==> Input File <==

--------------------------------------------------------------------------
set {
	reference rhf
	basis cc-pvtz
}

set_num_threads( 4 )
memory 2 gb

molecule MOL {
0 1

H	 2.190573	 -0.629143	 -0.208718
O	 1.355408	 -0.529451	 0.208662
C	 0.700177	 0.619554	 -0.266242
C	 -0.713111	 0.588314	 0.266177
H	 0.678680	 0.627133	 -1.351786
H	 1.199747	 1.521489	 0.077736
O	 -1.421673	 -0.521378	 -0.196983
H	 -1.244794	 1.469161	 -0.069059
H	 -0.685100	 0.604721	 1.352683
H	 -0.814049	 -1.225760	 -0.340729

	symmetry c1
}
set optking {
	frozen_dihedral = ("
		10 7 4 3
	")
}

ee,wfn = optimize('scf', return_wfn=True)
oeprop( wfn, 'DIPOLE', 'QUADRUPOLE', 'MULLIKEN_CHARGES')
f=open( 'psi4out.xyz', 'w' )
f.write( "10  " )
f.write( str(ee) + "\n" )
f.write( MOL.save_string_xyz() )
f.close()
--------------------------------------------------------------------------

    Molecular point group: c1
  Charge       = 0
  Multiplicity = 1
  Basis Set: CC-PVTZ
  Basis Set:
  @DF-RHF Final Energy:  -229.02731747924457
    Total Energy =                       -229.0273174792445445
    Molecular point group: c1
  Basis Set: CC-PVTZ
  Basis Set:
  Basis Set: CC-PVTZ
  Basis Set:
  @DF-RHF Final Energy:  -229.02746321951878
    Total Energy =                       -229.0274632195186939
  Basis Set: CC-PVTZ
  Basis Set:
  Basis Set: CC-PVTZ
  Basis Set:
  @DF-RHF Final Energy:  -229.02754783644036
    Total Energy =                       -229.0275478364403625
  Basis Set: CC-PVTZ
  Basis Set:
  Charge       = 0
  Multiplicity = 1
  Basis Set: CC-PVTZ
  Basis Set:

    Orbital Energies (a.u.)
    -----------------------

    Doubly Occupied:

       1A    -20.564937     2A    -20.540278     3A    -11.278201
       4A    -11.266790     5A     -1.388974     6A     -1.354729
       7A     -1.005082     8A     -0.848061     9A     -0.731126
      10A     -0.674948    11A     -0.662194    12A     -0.605526
      13A     -0.577516    14A     -0.544503    15A     -0.485726
      16A     -0.460205    17A     -0.435563

  @DF-RHF Final Energy:  -229.02754881874196

   => Energetics <=

    Nuclear Repulsion Energy =            134.7906910038549029
    One-Electron Energy =                -580.7877613058147972
    Two-Electron Energy =                 216.9695214832179317
    DFT Exchange-Correlation Energy =       0.0000000000000000
    Empirical Dispersion Energy =           0.0000000000000000
    PCM Polarization Energy =               0.0000000000000000
    EFP Energy =                            0.0000000000000000
    Total Energy =                       -229.0275488187419342
    Molecular point group: c1
  Basis Set: CC-PVTZ
  Basis Set:

  -Total Gradient:
     Atom            X                  Y                   Z
    ------   -----------------  -----------------  -----------------
       1       -0.000003803803    -0.000003539646    -0.000008998097
       2       -0.000005388103    -0.000090406925     0.000037601645
       3        0.000681636100    -0.001025979437     0.001818908930
       4       -0.000876771007     0.001793156883    -0.003262768937
       5       -0.000015218361     0.000009162191    -0.000008028103
       6       -0.000059316736     0.000024329320     0.000002597971
       7       -0.000195936822    -0.001557094242     0.004810024754
       8        0.000031938683     0.000017622485    -0.000005084870
       9        0.000024429679     0.000020710858     0.000001087894
      10        0.000418430374     0.000812038511    -0.003385341188

  **** Optimization is complete! (in 4 steps) ****
    Final optimized geometry and variables:
    Molecular point group: c1

    Geometry (in Angstrom), charge = 0, multiplicity = 1:

    H            2.176744464193    -0.651158941218    -0.249248368959
    O            1.335380492279    -0.557045921875     0.157158356233
    C            0.703250668475     0.616887692493    -0.285124607188
    C           -0.704072273026     0.616363143911     0.266824924694
    H            0.672387695348     0.644394307691    -1.371098760180
    H            1.227805479572     1.500852771445     0.066127775457
    O           -1.420934535950    -0.521147325706    -0.110561038352
    H           -1.234920702402     1.485744249741    -0.100432052056
    H           -0.655136097855     0.684685581788     1.350466690773
    H           -0.819293376124    -1.236915137863    -0.217457350213

  Mulliken Charges: (a.u.)
   Center  Symbol    Alpha    Beta     Spin     Total
       1     H     0.39074  0.39074  0.00000  0.21853
       2     O     4.20569  4.20569  0.00000 -0.41139
       3     C     2.98067  2.98067  0.00000  0.03867
       4     C     2.95220  2.95220  0.00000  0.09559
       5     H     0.46853  0.46853  0.00000  0.06293
       6     H     0.46847  0.46847  0.00000  0.06305
       7     O     4.21100  4.21100  0.00000 -0.42200
       8     H     0.46435  0.46435  0.00000  0.07130
       9     H     0.47359  0.47359  0.00000  0.05282
      10     H     0.38475  0.38475  0.00000  0.23050

   Total alpha = 17.00000, Total beta = 17.00000, Total charge =  0.00000

*** Psi4 exiting successfully. Buy a developer a beer!
