  ==> Input File <==

--------------------------------------------------------------------------
set {
	reference rhf
	basis cc-pvtz
}

set_num_threads( 4 )
memory 2 gb

molecule MOL {
0 1

H	 2.325560	 -2.075069	 -0.132902
N	 1.344514	 -1.900563	 -0.135034
C	 0.977965	 -1.051077	 -1.250318
C	 0.922930	 -1.331409	 1.129155
H	 1.286545	 -1.525999	 -2.173671
H	 1.457344	 -0.071643	 -1.200093
C	 -0.527130	 -0.854445	 -1.260382
H	 1.191631	 -2.009465	 1.930024
H	 1.398832	 -0.369686	 1.329717
C	 -0.582092	 -1.134410	 1.115974
H	 -1.009617	 -1.814052	 -1.467631
H	 -0.797279	 -0.172318	 -2.057779
N	 -0.976577	 -0.298712	 -0.000000
H	 -0.891983	 -0.654715	 2.036831
H	 -1.068366	 -2.113304	 1.072436
C	 -2.391156	 -0.021003	 -0.000000
H	 -2.853954	 -0.458728	 -0.875714
H	 -2.853954	 -0.458728	 0.875714
H	 -2.614037	 1.049773	 -0.000000

	symmetry c1
}
set optking {
	frozen_dihedral = ("
		7 13 16 19
	")
}

ee = optimize('scf')
oeprop('DIPOLE', 'QUADRUPOLE', 'MULLIKEN_CHARGES')
f=open( 'psi4out.xyz', 'w' )
f.write( "19  " )
f.write( str(ee) + "\n" )
f.write( MOL.save_string_xyz() )
f.close()
--------------------------------------------------------------------------

    Molecular point group: c1
  Charge       = 0
  Multiplicity = 1
  Basis Set: CC-PVTZ
  Basis Set:
  @DF-RHF Final Energy:  -305.30241446220310
    Total Energy =                       -305.3024144622030462
    Molecular point group: c1
  Basis Set: CC-PVTZ
  Basis Set:
  Basis Set: CC-PVTZ
  Basis Set:
  @DF-RHF Final Energy:  -305.30297221294188
    Total Energy =                       -305.3029722129414836
  Basis Set: CC-PVTZ
  Basis Set:
  Basis Set: CC-PVTZ
  Basis Set:
  @DF-RHF Final Energy:  -305.30309014525807
    Total Energy =                       -305.3030901452577268
  Basis Set: CC-PVTZ
  Basis Set:
  Charge       = 0
  Multiplicity = 1
  Basis Set: CC-PVTZ
  Basis Set:

    Orbital Energies (a.u.)
    -----------------------

    Doubly Occupied:

       1A    -15.533548     2A    -15.530601     3A    -11.236486
       4A    -11.236466     5A    -11.235630     6A    -11.235582
       7A    -11.232875     8A     -1.246156     9A     -1.185153
      10A     -1.023369    11A     -0.964848    12A     -0.860979
      13A     -0.859152    14A     -0.757027    15A     -0.691875
      16A     -0.631855    17A     -0.624019    18A     -0.606605
      19A     -0.605214    20A     -0.581665    21A     -0.543930
      22A     -0.535591    23A     -0.512358    24A     -0.488317
      25A     -0.466761    26A     -0.457144    27A     -0.365373
      28A     -0.342507

  @DF-RHF Final Energy:  -305.30309195130292

   => Energetics <=

    Nuclear Repulsion Energy =            339.7471857343650754
    One-Electron Energy =               -1086.9183779630614026
    Two-Electron Energy =                 441.8681002773935234
    DFT Exchange-Correlation Energy =       0.0000000000000000
    Empirical Dispersion Energy =           0.0000000000000000
    PCM Polarization Energy =               0.0000000000000000
    EFP Energy =                            0.0000000000000000
    Total Energy =                       -305.3030919513028039
    Molecular point group: c1
  Basis Set: CC-PVTZ
  Basis Set:

  -Total Gradient:
     Atom            X                  Y                   Z
    ------   -----------------  -----------------  -----------------
       1       -0.000025226412     0.000020890898     0.000001363079
       2       -0.000026136896    -0.000005877257    -0.000003064295
       3        0.000020522942     0.000010791261    -0.000008604855
       4        0.000010867795    -0.000029098628     0.000024805747
       5        0.000036973188    -0.000016134026    -0.000006339961
       6       -0.000006453276    -0.000010836326    -0.000001315455
       7       -0.000197621416    -0.001198711750     0.000383550911
       8        0.000051542923    -0.000022459983     0.000009780359
       9       -0.000020937991    -0.000015673365    -0.000006830884
      10        0.000095296354    -0.000052827428     0.000023876954
      11       -0.000002515756     0.000030050624     0.000022325911
      12       -0.000002439865     0.000001610292     0.000021289182
      13        0.000204373062     0.001638591008    -0.000118355875
      14        0.000001398451     0.000004413179    -0.000021941423
      15        0.000012253936     0.000038208209    -0.000013846632
      16       -0.000091119674    -0.000388681518    -0.001940726265
      17       -0.000010640508    -0.000001452776    -0.000000485070
      18       -0.000006631530     0.000013438448     0.000000189671
      19       -0.000043505326    -0.000016240864     0.001634328900

  **** Optimization is complete! (in 4 steps) ****
    Final optimized geometry and variables:
    Molecular point group: c1

    Geometry (in Angstrom), charge = 0, multiplicity = 1:

    H            2.526130777367    -1.108731183333    -0.071991101070
    N            1.542776742776    -0.947389309608    -0.075769078550
    C            1.166654786505    -0.103340310795    -1.191618304121
    C            1.111883861856    -0.382787360539     1.187014439470
    H            1.483096506159    -0.574026741284    -2.114718890042
    H            1.632537065954     0.882674353444    -1.140591595035
    C           -0.340903799526     0.073254855928    -1.204227097961
    H            1.390401273702    -1.055289719333     1.989501421528
    H            1.573185223968     0.586531278589     1.385858008553
    C           -0.395948380675    -0.206946187152     1.174334643570
    H           -0.809966031487    -0.891581019221    -1.417282888459
    H           -0.614408327941     0.754118553129    -2.001688051216
    N           -0.802075808300     0.620217398677     0.055599001206
    H           -0.706143472301     0.273238171117     2.094454109093
    H           -0.867486436394    -1.193297139845     1.138995017811
    C           -2.220175084569     0.939081847169     0.054309319503
    H           -2.725496952469     0.534354920900    -0.817273064533
    H           -2.713216320385     0.524737835149     0.926392507557
    H           -2.381543814440     2.011703823265     0.072684643182

  Mulliken Charges: (a.u.)
   Center  Symbol    Alpha    Beta     Spin     Total
       1     H     0.44000  0.44000  0.00000  0.12000
       2     N     3.64276  3.64276  0.00000 -0.28552
       3     C     3.04204  3.04204  0.00000 -0.08407
       4     C     3.04206  3.04206  0.00000 -0.08411
       5     H     0.45274  0.45274  0.00000  0.09451
       6     H     0.46601  0.46601  0.00000  0.06798
       7     C     3.03537  3.03537  0.00000 -0.07073
       8     H     0.45272  0.45272  0.00000  0.09456
       9     H     0.46606  0.46606  0.00000  0.06787
      10     C     3.03479  3.03479  0.00000 -0.06957
      11     H     0.46849  0.46849  0.00000  0.06303
      12     H     0.45350  0.45350  0.00000  0.09300
      13     N     3.61744  3.61744  0.00000 -0.23488
      14     H     0.45370  0.45370  0.00000  0.09259
      15     H     0.46856  0.46856  0.00000  0.06289
      16     C     3.09135  3.09135  0.00000 -0.18270
      17     H     0.46204  0.46204  0.00000  0.07593
      18     H     0.46010  0.46010  0.00000  0.07980
      19     H     0.45029  0.45029  0.00000  0.09942

   Total alpha = 28.00000, Total beta = 28.00000, Total charge =  0.00000
