  ==> Input File <==

--------------------------------------------------------------------------
set {
	reference rhf
	basis 6-31G*
}

set_num_threads( 4 )
memory 2 gb

molecule MOL {
0 1

H	 -3.407059	 -1.043082	 0.000000
O	 -3.119761	 -0.140267	 0.000000
C	 -1.777559	 -0.059267	 0.000000
C	 -0.967575	 -1.172414	 -0.204525
C	 -1.213485	 1.192124	 0.214262
H	 -1.412830	 -2.138705	 -0.369869
C	 0.404029	 -1.029547	 -0.193948
H	 -1.859262	 2.035409	 0.369545
C	 0.159938	 1.318951	 0.221996
H	 1.040997	 -1.879787	 -0.350362
C	 0.984284	 0.216695	 0.019236
H	 0.597568	 2.288481	 0.387991
C	 2.452627	 0.367888	 0.030250
O	 3.228285	 -0.522018	 -0.134618
H	 2.810559	 1.387779	 0.205956

	symmetry c1
}
set optking {
	frozen_dihedral = ("
		5 3 2 1
	")
}

ee = optimize('scf')
oeprop('DIPOLE', 'QUADRUPOLE', 'MULLIKEN_CHARGES')
f=open( 'psi4out.xyz', 'w' )
f.write( "15  " )
f.write( str(ee) + "\n" )
f.write( MOL.save_string_xyz() )
f.close()
--------------------------------------------------------------------------

    Molecular point group: c1
  Charge       = 0
  Multiplicity = 1
  Basis Set: 6-31G*
  Basis Set:
  @DF-RHF Final Energy:  -418.28981296214278
    Total Energy =                       -418.2898129621426051
    Molecular point group: c1
  Basis Set: 6-31G*
  Basis Set:
  Basis Set: 6-31G*
  Basis Set:
  @DF-RHF Final Energy:  -418.28981633698527
    Total Energy =                       -418.2898163369846998
  Basis Set: 6-31G*
  Basis Set:
  Charge       = 0
  Multiplicity = 1
  Basis Set: 6-31G*
  Basis Set:

    Orbital Energies (a.u.)
    -----------------------

    Doubly Occupied:

       1A    -20.610596     2A    -20.555809     3A    -11.327988
       4A    -11.323644     5A    -11.260661     6A    -11.256746
       7A    -11.244390     8A    -11.238821     9A    -11.238733
      10A     -1.431656    11A     -1.397022    12A     -1.170594
      13A     -1.041528    14A     -1.038647    15A     -0.888792
      16A     -0.867162    17A     -0.794372    18A     -0.757362
      19A     -0.713607    20A     -0.666147    21A     -0.641390
      22A     -0.628136    23A     -0.609842    24A     -0.607796
      25A     -0.580494    26A     -0.557765    27A     -0.549264
      28A     -0.506229    29A     -0.483725    30A     -0.418561
      31A     -0.357951    32A     -0.326712

  @DF-RHF Final Energy:  -418.28981715781424

   => Energetics <=

    Nuclear Repulsion Energy =            401.3544334372782032
    One-Electron Energy =               -1365.1042192634654384
    Two-Electron Energy =                 545.4599686683725395
    DFT Exchange-Correlation Energy =       0.0000000000000000
    Empirical Dispersion Energy =           0.0000000000000000
    PCM Polarization Energy =               0.0000000000000000
    EFP Energy =                            0.0000000000000000
    Total Energy =                       -418.2898171578146957
    Molecular point group: c1
  Basis Set: 6-31G*
  Basis Set:

  -Total Gradient:
     Atom            X                  Y                   Z
    ------   -----------------  -----------------  -----------------
       1        0.000000603191     0.000003242392     0.001337488665
       2        0.000038977067    -0.000075121820    -0.001237150797
       3       -0.000068882452     0.000156119028    -0.001080371212
       4       -0.000054263572     0.000013372447     0.000070903691
       5        0.000106994381    -0.000116210639     0.000941004942
       6        0.000005157716     0.000003913370    -0.000014452299
       7        0.000045418735     0.000054672422    -0.000038771671
       8       -0.000008899534    -0.000002023685     0.000009591627
       9       -0.000074828611     0.000034263299     0.000020199553
      10       -0.000004234060    -0.000008846541     0.000009838759
      11        0.000011743978    -0.000061798531    -0.000060277891
      12        0.000003065049     0.000001646169    -0.000003555236
      13       -0.000001268493    -0.000026640843     0.000146555809
      14       -0.000002203629     0.000012319810    -0.000051522577
      15        0.000002620228     0.000011093124    -0.000049481362

  **** Optimization is complete! (in 3 steps) ****
    Final optimized geometry and variables:
    Molecular point group: c1

    Geometry (in Angstrom), charge = 0, multiplicity = 1:

    H           -3.406016967510    -1.044252024005     0.003228751085
    O           -3.120036341585    -0.141075650928     0.004597360228
    C           -1.777264143820    -0.059438452134     0.006853412284
    C           -0.967487877042    -1.173167788319    -0.195827519053
    C           -1.213290097887     1.191346656099     0.223161281050
    H           -1.413224214238    -2.138565178582    -0.364613135636
    C            0.403966343348    -1.030628374887    -0.184895234237
    H           -1.858726423254     2.034318157922     0.381926000326
    C            0.160296765103     1.318781276016     0.227438349603
    H            1.040847029322    -1.881115007334    -0.340399435612
    C            0.984245358919     0.216254581155     0.025643249284
    H            0.597998804967     2.288163829505     0.394015894398
    C            2.452564544898     0.367585189916     0.036321869028
    O            3.228151837435    -0.522901022930    -0.126470860124
    H            2.810888916842     1.387845313764     0.208640348434

  Mulliken Charges: (a.u.)
   Center  Symbol    Alpha    Beta     Spin     Total
       1     H     0.26853  0.26853  0.00000  0.46294
       2     O     4.37331  4.37331  0.00000 -0.74663
       3     C     2.78559  2.78559  0.00000  0.42881
       4     C     3.14683  3.14683  0.00000 -0.29366
       5     C     3.12836  3.12836  0.00000 -0.25672
       6     H     0.39763  0.39763  0.00000  0.20473
       7     C     3.07778  3.07778  0.00000 -0.15556
       8     H     0.38647  0.38647  0.00000  0.22706
       9     C     3.09214  3.09214  0.00000 -0.18427
      10     H     0.37457  0.37457  0.00000  0.25086
      11     C     3.06908  3.06908  0.00000 -0.13817
      12     H     0.38978  0.38978  0.00000  0.22043
      13     C     2.83029  2.83029  0.00000  0.33942
      14     O     4.25489  4.25489  0.00000 -0.50978
      15     H     0.42474  0.42474  0.00000  0.15052

   Total alpha = 32.00000, Total beta = 32.00000, Total charge =  0.00000
