  ==> Input File <==

--------------------------------------------------------------------------
set {
	reference rhf
	basis 6-31G*
}

set_num_threads( 1 )
memory 2 gb

molecule MOL {
0 1

H	 1.967872	 -3.019500	 -1.019851
O	 2.763546	 -2.691355	 -1.412655
C	 2.493610	 -2.224580	 -2.710080
C	 1.720751	 -0.910383	 -2.727443
H	 3.458905	 -2.087159	 -3.180182
H	 1.959575	 -2.981156	 -3.283821
C	 0.316489	 -1.006214	 -2.125999
H	 2.298275	 -0.163563	 -2.188841
H	 1.649648	 -0.572491	 -3.759984
C	 -0.453100	 0.315119	 -2.207430
H	 0.393090	 -1.318110	 -1.088108
H	 -0.247831	 -1.780802	 -2.645515
C	 -1.896998	 0.251891	 -1.696059
H	 0.090528	 1.080559	 -1.656596
H	 -0.469355	 0.642782	 -3.244769
C	 -2.037799	 -0.007733	 -0.193645
H	 -2.384676	 1.195465	 -1.931970
H	 -2.440175	 -0.514410	 -2.247040
C	 -3.489788	 0.042957	 0.286558
H	 -1.453238	 0.729815	 0.354462
H	 -1.618064	 -0.978346	 0.059408
C	 -4.216917	 1.317354	 -0.141063
H	 -4.025645	 -0.823308	 -0.095450
H	 -3.513059	 -0.038752	 1.371301
H	 -4.239342	 1.411634	 -1.223113
H	 -5.243387	 1.322503	 0.212445
H	 -3.726170	 2.201406	 0.256408

	symmetry c1
}
set optking {
	frozen_dihedral = ("
		14 10 7 4,
		14 10 13 16,
		10 7 4 8,
		8 4 3 2,
		10 13 16 20,
		4 3 2 1
	")
}

ee = energy('scf')
oeprop('DIPOLE', 'QUADRUPOLE', 'MULLIKEN_CHARGES')
f=open( 'psi4out.xyz', 'w' )
f.write( "27  " )
f.write( str(ee) + "\n" )
f.write( MOL.save_string_xyz() )
f.close()
--------------------------------------------------------------------------

    Molecular point group: c1

    Geometry (in Angstrom), charge = 0, multiplicity = 1:

       Center              X                  Y                   Z               Mass
    ------------   -----------------  -----------------  -----------------  -----------------
           H          2.461530799383    -2.439758945589     0.411627155963     1.007825032070
           O          3.257204799383    -2.111613945589     0.018823155963    15.994914619560
           C          2.987268799383    -1.644838945589    -1.278601844037    12.000000000000
           C          2.214409799383    -0.330641945589    -1.295964844037    12.000000000000
           H          3.952563799383    -1.507417945589    -1.748703844037     1.007825032070
           H          2.453233799383    -2.401414945589    -1.852342844037     1.007825032070
           C          0.810147799383    -0.426472945589    -0.694520844037    12.000000000000
           H          2.791933799383     0.416178054411    -0.757362844037     1.007825032070
           H          2.143306799383     0.007250054411    -2.328505844037     1.007825032070
           C          0.040558799383     0.894860054411    -0.775951844037    12.000000000000
           H          0.886748799383    -0.738368945589     0.343370155963     1.007825032070
           H          0.245827799383    -1.201060945589    -1.214036844037     1.007825032070
           C         -1.403339200617     0.831632054411    -0.264580844037    12.000000000000
           H          0.584186799383     1.660300054411    -0.225117844037     1.007825032070
           H          0.024303799383     1.222523054411    -1.813290844037     1.007825032070
           C         -1.544140200617     0.572008054411     1.237833155963    12.000000000000
           H         -1.891017200617     1.775206054411    -0.500491844037     1.007825032070
           H         -1.946516200617     0.065331054411    -0.815561844037     1.007825032070
           C         -2.996129200617     0.622698054411     1.718036155963    12.000000000000
           H         -0.959579200617     1.309556054411     1.785940155963     1.007825032070
           H         -1.124405200617    -0.398604945589     1.490886155963     1.007825032070
           C         -3.723258200617     1.897095054411     1.290415155963    12.000000000000
           H         -3.531986200617    -0.243566945589     1.336028155963     1.007825032070
           H         -3.019400200617     0.540989054411     2.802779155963     1.007825032070
           H         -3.745683200617     1.991375054411     0.208365155963     1.007825032070
           H         -4.749728200617     1.902244054411     1.643923155963     1.007825032070
           H         -3.232511200617     2.781147054411     1.687886155963     1.007825032070

  Charge       = 0
  Multiplicity = 1
  Basis Set: 6-31G*
  Basis Set:

    Orbital Energies (a.u.)
    -----------------------

    Doubly Occupied:

       1A    -20.552170     2A    -11.266917     3A    -11.219502
       4A    -11.216987     5A    -11.216199     6A    -11.215016
       7A    -11.214691     8A    -11.214102     9A    -11.208316
      10A     -1.358913    11A     -1.096287    12A     -1.062343
      13A     -1.008422    14A     -0.945147    15A     -0.894622
      16A     -0.829428    17A     -0.797879    18A     -0.768310
      19A     -0.693564    20A     -0.646404    21A     -0.634897
      22A     -0.619728    23A     -0.609489    24A     -0.587491
      25A     -0.578501    26A     -0.555191    27A     -0.538051
      28A     -0.527247    29A     -0.503545    30A     -0.499520
      31A     -0.486363    32A     -0.473541    33A     -0.469131
      34A     -0.458107    35A     -0.448160    36A     -0.441189
      37A     -0.423051

  @DF-RHF Final Energy:  -388.27757960477982

   => Energetics <=

    Nuclear Repulsion Energy =            463.2538501081356799
    One-Electron Energy =               -1444.5060251952043018
    Two-Electron Energy =                 592.9745954822899421
    DFT Exchange-Correlation Energy =       0.0000000000000000
    Empirical Dispersion Energy =           0.0000000000000000
    PCM Polarization Energy =               0.0000000000000000
    EFP Energy =                            0.0000000000000000
    Total Energy =                       -388.2775796047786798

  Mulliken Charges: (a.u.)
   Center  Symbol    Alpha    Beta     Spin     Total
       1     H     0.27991  0.27991  0.00000  0.44018
       2     O     4.37096  4.37096  0.00000 -0.74192
       3     C     2.99734  2.99734  0.00000  0.00532
       4     C     3.16092  3.16092  0.00000 -0.32184
       5     H     0.41448  0.41448  0.00000  0.17104
       6     H     0.43208  0.43208  0.00000  0.13583
       7     C     3.16341  3.16341  0.00000 -0.32683
       8     H     0.41501  0.41501  0.00000  0.16998
       9     H     0.42438  0.42438  0.00000  0.15123
      10     C     3.15062  3.15062  0.00000 -0.30125
      11     H     0.42303  0.42303  0.00000  0.15394
      12     H     0.42556  0.42556  0.00000  0.14888
      13     C     3.15846  3.15846  0.00000 -0.31692
      14     H     0.42172  0.42172  0.00000  0.15656
      15     H     0.42177  0.42177  0.00000  0.15646
      16     C     3.15373  3.15373  0.00000 -0.30747
      17     H     0.41722  0.41722  0.00000  0.16557
      18     H     0.42487  0.42487  0.00000  0.15027
      19     C     3.15135  3.15135  0.00000 -0.30270
      20     H     0.42376  0.42376  0.00000  0.15248
      21     H     0.42170  0.42170  0.00000  0.15659
      22     C     3.24461  3.24461  0.00000 -0.48921
      23     H     0.42339  0.42339  0.00000  0.15321
      24     H     0.42031  0.42031  0.00000  0.15937
      25     H     0.41876  0.41876  0.00000  0.16247
      26     H     0.41867  0.41867  0.00000  0.16265
      27     H     0.42196  0.42196  0.00000  0.15609

   Total alpha = 37.00000, Total beta = 37.00000, Total charge = -0.00000
