                              Psi4 1.0.54 Driver

  ==> Input File <==

--------------------------------------------------------------------------
set {
	reference rhf
	basis cc-pvtz
}

set_num_threads( 4 )
memory 2 gb

molecule MOL {
0 1

H	 -2.155565	 -0.632159	 -0.634099
O	 -2.041679	 -0.058866	 0.103463
C	 -0.959304	 0.780994	 -0.094939
C	 0.354905	 0.037902	 -0.006215
H	 -0.985899	 1.279578	 -1.057596
H	 -0.969809	 1.529522	 0.682889
F	 0.412060	 -0.931028	 -0.902708
F	 1.359641	 0.856111	 -0.239961
F	 0.545380	 -0.506387	 1.171682

	symmetry c1
}
set optking {
	frozen_dihedral = ("
		1 2 3 5
	")
}

ee,wfn = optimize('scf', return_wfn=True)
oeprop( wfn, 'DIPOLE', 'QUADRUPOLE', 'MULLIKEN_CHARGES')
f=open( 'psi4out.xyz', 'w' )
f.write( "9  " )
f.write( str(ee) + "\n" )
f.write( MOL.save_string_xyz() )
f.close()
--------------------------------------------------------------------------

    Molecular point group: c1
  Charge       = 0
  Multiplicity = 1
  Basis Set: CC-PVTZ
  Basis Set:
  @DF-RHF Final Energy:  -450.84725359264172
    Total Energy =                       -450.8472535926416072
    Molecular point group: c1
  Basis Set: CC-PVTZ
  Basis Set:
  Basis Set: CC-PVTZ
  Basis Set:
  @DF-RHF Final Energy:  -450.84725535496239
    Total Energy =                       -450.8472553549623285
  Basis Set: CC-PVTZ
  Basis Set:
  Charge       = 0
  Multiplicity = 1
  Basis Set: CC-PVTZ
  Basis Set:

    Orbital Energies (a.u.)
    -----------------------

    Doubly Occupied:

       1A    -26.339024     2A    -26.339002     3A    -26.335104
       4A    -20.583883     5A    -11.493081     6A    -11.310131
       7A     -1.747233     8A     -1.644339     9A     -1.642287
      10A     -1.407393    11A     -1.050409    12A     -0.929392
      13A     -0.837400    14A     -0.835762    15A     -0.810348
      16A     -0.732916    17A     -0.718311    18A     -0.704115
      19A     -0.671376    20A     -0.665220    21A     -0.648746
      22A     -0.633131    23A     -0.617745    24A     -0.534785
      25A     -0.484682

  @DF-RHF Final Energy:  -450.84725569353145

   => Energetics <=

    Nuclear Repulsion Energy =            277.6830035706351509
    One-Electron Energy =               -1177.6288914299475437
    Two-Electron Energy =                 449.0986321657809412
    DFT Exchange-Correlation Energy =       0.0000000000000000
    Empirical Dispersion Energy =           0.0000000000000000
    PCM Polarization Energy =               0.0000000000000000
    EFP Energy =                            0.0000000000000000
    Total Energy =                       -450.8472556935314515
    Molecular point group: c1
  Basis Set: CC-PVTZ
  Basis Set:

  -Total Gradient:
     Atom            X                  Y                   Z
    ------   -----------------  -----------------  -----------------
       1       -0.000217784959     0.000259873937    -0.000147276775
       2        0.000322147289    -0.000399359316     0.000153190926
       3       -0.000308620068     0.000363011851     0.000114359876
       4        0.000038882029     0.000123824462     0.000032634253
       5        0.000175929998    -0.000247650403    -0.000133871924
       6        0.000013682177     0.000000352581     0.000001760710
       7        0.000003338979    -0.000018281163     0.000006554880
       8       -0.000014387342    -0.000032136938    -0.000019897131
       9       -0.000013188103    -0.000049635018    -0.000007454812

  **** Optimization is complete! (in 3 steps) ****
    Final optimized geometry and variables:
    Molecular point group: c1

    Geometry (in Angstrom), charge = 0, multiplicity = 1:

    H           -2.153349693524    -0.634037275715    -0.629772315518
    O           -2.040438545873    -0.058379144774     0.105815127465
    C           -0.958677293787     0.781807604580    -0.094648835074
    C            0.354869835585     0.037134250979    -0.006472753866
    H           -0.984658260895     1.277448280917    -1.058728740060
    H           -0.967400055755     1.531752850797     0.681845821429
    F            0.413298070399    -0.928537934229    -0.905905153291
    F            1.360533920291     0.855843220093    -0.235974407383
    F            0.543197617884    -0.510813135587     1.170065481109

  Mulliken Charges: (a.u.)
   Center  Symbol    Alpha    Beta     Spin     Total
       1     H     0.38644  0.38644  0.00000  0.22711
       2     O     4.19236  4.19236  0.00000 -0.38472
       3     C     2.99153  2.99153  0.00000  0.01694
       4     C     2.68358  2.68358  0.00000  0.63285
       5     H     0.46163  0.46163  0.00000  0.07674
       6     H     0.44721  0.44721  0.00000  0.10558
       7     F     4.61729  4.61729  0.00000 -0.23458
       8     F     4.61246  4.61246  0.00000 -0.22491
       9     F     4.60750  4.60750  0.00000 -0.21501

   Total alpha = 25.00000, Total beta = 25.00000, Total charge = -0.00000

*** Psi4 exiting successfully. Buy a developer a beer!
