                              Psi4 1.0.54 Driver

  ==> Input File <==

--------------------------------------------------------------------------
set {
	reference rhf
	basis cc-pvtz
}

set_num_threads( 4 )
memory 2 gb

molecule MOL {
0 1

O	 0.749630	 1.305591	 -0.000460
C	 0.576499	 0.134701	 -0.003900
C	 -0.765656	 -0.550508	 -0.002152
O	 1.564816	 -0.744612	 -0.000631
C	 -1.945526	 0.411052	 0.000603
H	 -0.794329	 -1.203792	 -0.868145
H	 -0.791555	 -1.205429	 0.862701
C	 -3.282915	 -0.321280	 0.002596
H	 -1.880300	 1.059126	 -0.864925
H	 -1.877207	 1.057892	 0.866807
H	 -3.388495	 -0.952755	 -0.873419
H	 -4.107811	 0.380864	 0.004116
H	 -3.385717	 -0.953283	 0.878571
C	 2.328948	 -0.857653	 1.183149
H	 2.806363	 0.081606	 1.419629
H	 3.071495	 -1.613657	 0.986248
H	 1.704842	 -1.154803	 2.012748

	symmetry c1
}
set optking {
	frozen_dihedral = ("
		14 4 2 1
	")
}

ee,wfn = optimize('scf', return_wfn=True)
oeprop( wfn, 'DIPOLE', 'QUADRUPOLE', 'MULLIKEN_CHARGES')
f=open( 'psi4out.xyz', 'w' )
f.write( "17  " )
f.write( str(ee) + "\n" )
f.write( MOL.save_string_xyz() )
f.close()
--------------------------------------------------------------------------

    Molecular point group: c1
  Charge       = 0
  Multiplicity = 1
  Basis Set: CC-PVTZ
  Basis Set:
  @DF-RHF Final Energy:  -345.01811591387138
    Total Energy =                       -345.0181159138714975
    Molecular point group: c1
  Basis Set: CC-PVTZ
  Basis Set:
  Basis Set: CC-PVTZ
  Basis Set:
  @DF-RHF Final Energy:  -344.95038359595083
    Total Energy =                       -344.9503835959505977
  Basis Set: CC-PVTZ
  Basis Set:
  Basis Set: CC-PVTZ
  Basis Set:
  @DF-RHF Final Energy:  -345.01225413995911
    Total Energy =                       -345.0122541399589409
  Basis Set: CC-PVTZ
  Basis Set:
  Basis Set: CC-PVTZ
  Basis Set:
  @DF-RHF Final Energy:  -345.01876872369019
    Total Energy =                       -345.0187687236897318
  Basis Set: CC-PVTZ
  Basis Set:
  Basis Set: CC-PVTZ
  Basis Set:
  @DF-RHF Final Energy:  -345.01809581315564
    Total Energy =                       -345.0180958131552984
  Basis Set: CC-PVTZ
  Basis Set:
  Basis Set: CC-PVTZ
  Basis Set:
  @DF-RHF Final Energy:  -345.01931554133546
    Total Energy =                       -345.0193155413351178
  Basis Set: CC-PVTZ
  Basis Set:
  Basis Set: CC-PVTZ
  Basis Set:
  @DF-RHF Final Energy:  -345.01933871259467
    Total Energy =                       -345.0193387125946174
  Basis Set: CC-PVTZ
  Basis Set:
  Charge       = 0
  Multiplicity = 1
  Basis Set: CC-PVTZ
  Basis Set:

    Orbital Energies (a.u.)
    -----------------------

    Doubly Occupied:

       1A    -20.579956     2A    -20.544581     3A    -11.367784
       4A    -11.286374     5A    -11.237435     6A    -11.222267
       7A    -11.214684     8A     -1.463063     9A     -1.369022
      10A     -1.082384    11A     -0.995012    12A     -0.947862
      13A     -0.833173    14A     -0.766566    15A     -0.701567
      16A     -0.681129    17A     -0.675587    18A     -0.634760
      19A     -0.615465    20A     -0.579123    21A     -0.566411
      22A     -0.536385    23A     -0.520919    24A     -0.499823
      25A     -0.492151    26A     -0.481514    27A     -0.456530
      28A     -0.438331

  @DF-RHF Final Energy:  -345.01934077480672

   => Energetics <=

    Nuclear Repulsion Energy =            312.5541141027275103
    One-Electron Energy =               -1089.5671975014590771
    Two-Electron Energy =                 431.9937426239246747
    DFT Exchange-Correlation Energy =       0.0000000000000000
    Empirical Dispersion Energy =           0.0000000000000000
    PCM Polarization Energy =               0.0000000000000000
    EFP Energy =                            0.0000000000000000
    Total Energy =                       -345.0193407748069490
    Molecular point group: c1
  Basis Set: CC-PVTZ
  Basis Set:

  -Total Gradient:
     Atom            X                  Y                   Z
    ------   -----------------  -----------------  -----------------
       1        0.002096830958     0.000555074071    -0.006581168582
       2       -0.004535765136    -0.002942739880     0.009977722904
       3        0.000003608665     0.000028380798    -0.000038514642
       4        0.005843874677     0.006585854739    -0.004016039879
       5       -0.000025552557     0.000000231800     0.000018580511
       6       -0.000003726603    -0.000004613468     0.000004069342
       7       -0.000002477829     0.000012391680    -0.000007370149
       8       -0.000026608678     0.000011124739    -0.000015149110
       9        0.000002355113    -0.000012190971     0.000015031350
      10        0.000003304623     0.000014225914    -0.000000492172
      11       -0.000000702389    -0.000014147577    -0.000003826128
      12       -0.000006809849    -0.000000012503    -0.000007698823
      13        0.000009307208    -0.000003530715    -0.000001028165
      14       -0.003298550500    -0.004210146414     0.000679631921
      15       -0.000011954345     0.000018048478    -0.000011515123
      16        0.000008542772    -0.000018827940     0.000014098796
      17       -0.000055676123    -0.000019122746    -0.000026332052

  **** Optimization is complete! (in 8 steps) ****
    Final optimized geometry and variables:
    Molecular point group: c1

    Geometry (in Angstrom), charge = 0, multiplicity = 1:

    O            0.701079921345     1.442757928085     0.224708823803
    C            0.628184716172     0.272292726492     0.118729457569
    C           -0.559823615381    -0.478933962923    -0.420004583572
    O            1.668661643057    -0.538304719006     0.392105396334
    C           -1.727251177474     0.406098867186    -0.831284175671
    H           -0.201118988905    -1.075239244593    -1.253120574339
    H           -0.858457743372    -1.195279938655     0.341020613368
    C           -2.900675224416    -0.402421926290    -1.373948109714
    H           -1.389799583395     1.114645562802    -1.578032164321
    H           -2.046697552478     0.995450242049     0.019988139748
    H           -2.613084402561    -0.976997119934    -2.248257662650
    H           -3.718141299196     0.247802584826    -1.661023127144
    H           -3.277716571430    -1.098495612574    -0.631719076946
    C            2.043917489258    -0.658746928741     1.747099487413
    H            2.280394622992     0.308265295989     2.168937188223
    H            2.917432698427    -1.289697717854     1.773086988035
    H            1.251058037875    -1.124534903402     2.321970443223

  Mulliken Charges: (a.u.)
   Center  Symbol    Alpha    Beta     Spin     Total
       1     O     4.17427  4.17427  0.00000 -0.34853
       2     C     2.79284  2.79284  0.00000  0.41431
       3     C     3.10474  3.10474  0.00000 -0.20948
       4     O     4.16837  4.16837  0.00000 -0.33675
       5     C     3.07998  3.07998  0.00000 -0.15996
       6     H     0.43772  0.43772  0.00000  0.12456
       7     H     0.44546  0.44546  0.00000  0.10909
       8     C     3.15048  3.15048  0.00000 -0.30097
       9     H     0.44534  0.44534  0.00000  0.10932
      10     H     0.44731  0.44731  0.00000  0.10538
      11     H     0.45517  0.45517  0.00000  0.08966
      12     H     0.44525  0.44525  0.00000  0.10950
      13     H     0.45632  0.45632  0.00000  0.08737
      14     C     3.03504  3.03504  0.00000 -0.07008
      15     H     0.44983  0.44983  0.00000  0.10034
      16     H     0.44465  0.44465  0.00000  0.11069
      17     H     0.46722  0.46722  0.00000  0.06557

   Total alpha = 28.00000, Total beta = 28.00000, Total charge = -0.00000

*** Psi4 exiting successfully. Buy a developer a beer!
