  ==> Input File <==

--------------------------------------------------------------------------
set {
	reference rhf
	basis cc-pvtz
}

set_num_threads( 4 )
memory 2 gb

molecule MOL {
0 1

H	 3.083659	 -1.378387	 0.000000
O	 2.179005	 -1.633391	 0.000000
C	 1.366950	 -0.558201	 0.000000
C	 1.841867	 0.728537	 -0.203565
C	 0.020063	 -0.770221	 0.212045
H	 2.891396	 0.891889	 -0.368598
C	 0.970350	 1.798740	 -0.194668
H	 -0.349821	 -1.762801	 0.369571
C	 -0.846389	 0.308006	 0.219376
H	 1.349175	 2.789778	 -0.353288
C	 -0.378458	 1.595176	 0.016749
C	 -2.299505	 0.093139	 0.446671
H	 -1.058562	 2.425412	 0.024214
O	 -2.804656	 -0.960771	 0.629747
H	 -2.903952	 1.005335	 0.434781

	symmetry c1
}
set optking {
	frozen_dihedral = ("
		4 3 2 1
	")
}

ee = optimize('scf')
oeprop('DIPOLE', 'QUADRUPOLE', 'MULLIKEN_CHARGES')
f=open( 'psi4out.xyz', 'w' )
f.write( "15  " )
f.write( str(ee) + "\n" )
f.write( MOL.save_string_xyz() )
f.close()
--------------------------------------------------------------------------

    Molecular point group: c1
  Charge       = 0
  Multiplicity = 1
  Basis Set: CC-PVTZ
  Basis Set:
  @DF-RHF Final Energy:  -418.43877032242960
    Total Energy =                       -418.4387703224298320
    Molecular point group: c1
  Basis Set: CC-PVTZ
  Basis Set:
  Basis Set: CC-PVTZ
  Basis Set:
  @DF-RHF Final Energy:  -418.43877526018383
    Total Energy =                       -418.4387752601837747
  Basis Set: CC-PVTZ
  Basis Set:
  Basis Set: CC-PVTZ
  Basis Set:
  @DF-RHF Final Energy:  -418.43878804157538
    Total Energy =                       -418.4387880415754353
  Basis Set: CC-PVTZ
  Basis Set:
  Basis Set: CC-PVTZ
  Basis Set:
  @DF-RHF Final Energy:  -418.43872513989243
    Total Energy =                       -418.4387251398918579
  Basis Set: CC-PVTZ
  Basis Set:
  Basis Set: CC-PVTZ
  Basis Set:
  @DF-RHF Final Energy:  -418.43878860585022
    Total Energy =                       -418.4387886058505046
  Basis Set: CC-PVTZ
  Basis Set:
  Charge       = 0
  Multiplicity = 1
  Basis Set: CC-PVTZ
  Basis Set:

    Orbital Energies (a.u.)
    -----------------------

    Doubly Occupied:

       1A    -20.595387     2A    -20.554378     3A    -11.327469
       4A    -11.311613     5A    -11.251051     6A    -11.250670
       7A    -11.247768     8A    -11.243378     9A    -11.237374
      10A     -1.427039    11A     -1.410143    12A     -1.174341
      13A     -1.052132    14A     -1.030974    15A     -0.902680
      16A     -0.850205    17A     -0.816734    18A     -0.740380
      19A     -0.706207    20A     -0.690016    21A     -0.644587
      22A     -0.640617    23A     -0.614976    24A     -0.609452
      25A     -0.577993    26A     -0.556858    27A     -0.545916
      28A     -0.516189    29A     -0.492712    30A     -0.426805
      31A     -0.358324    32A     -0.331266

  @DF-RHF Final Energy:  -418.43878883095806

   => Energetics <=

    Nuclear Repulsion Energy =            404.0888895928607099
    One-Electron Energy =               -1370.7840941813351492
    Two-Electron Energy =                 548.2564157575159243
    DFT Exchange-Correlation Energy =       0.0000000000000000
    Empirical Dispersion Energy =           0.0000000000000000
    PCM Polarization Energy =               0.0000000000000000
    EFP Energy =                            0.0000000000000000
    Total Energy =                       -418.4387888309585151
    Molecular point group: c1
  Basis Set: CC-PVTZ
  Basis Set:

  -Total Gradient:
     Atom            X                  Y                   Z
    ------   -----------------  -----------------  -----------------
       1        0.000013180795     0.000003324086     0.000814716828
       2       -0.000086728332    -0.000041662353    -0.001356289731
       3        0.000248582228     0.000170683172     0.001133528487
       4       -0.000073227389    -0.000170484518    -0.000576312263
       5       -0.000101992248     0.000043366354     0.000000990449
       6       -0.000000611393     0.000007502878     0.000003321588
       7       -0.000117496775     0.000031568892    -0.000047611943
       8        0.000007337839    -0.000004456954     0.000004402153
       9        0.000012170286    -0.000110767196    -0.000015195754
      10        0.000008179318    -0.000001699307     0.000005649535
      11        0.000098091950     0.000075266358     0.000034154559
      12        0.000004783596     0.000006629777     0.000000979486
      13       -0.000004393217    -0.000003514898    -0.000000024504
      14       -0.000005781037    -0.000003468196     0.000000328021
      15       -0.000002095617    -0.000002288098    -0.000002636908

  **** Optimization is complete! (in 6 steps) ****
    Final optimized geometry and variables:
    Molecular point group: c1

    Geometry (in Angstrom), charge = 0, multiplicity = 1:

    H            3.074753665645    -1.385447220807    -0.146570549955
    O            2.170048753056    -1.640625928408    -0.135597779172
    C            1.358372722996    -0.564838795973    -0.124898053011
    C            1.832779906883     0.721735953666    -0.333671490686
    C            0.011476929275    -0.777028497035     0.083858241351
    H            2.881776907407     0.883774369789    -0.503424801050
    C            0.961584752491     1.791733907681    -0.325521782737
    H           -0.358498765345    -1.769430112850     0.242852524027
    C           -0.855852461476     0.301057769981     0.086183105683
    H            1.340007393813     2.782646634903    -0.485944206878
    C           -0.387954175734     1.587868753000    -0.116057112402
    C           -2.309517767863     0.086030530135     0.310633657071
    H           -1.068274434418     2.418011594131    -0.110962518563
    O           -2.814612421260    -0.967546519848     0.494972207320
    H           -2.913833066530     0.998487837082     0.295114910820

  Mulliken Charges: (a.u.)
   Center  Symbol    Alpha    Beta     Spin     Total
       1     H     0.38713  0.38713  0.00000  0.22573
       2     O     4.17029  4.17029  0.00000 -0.34057
       3     C     2.84276  2.84276  0.00000  0.31447
       4     C     3.12573  3.12573  0.00000 -0.25146
       5     C     3.11866  3.11866  0.00000 -0.23733
       6     H     0.43066  0.43066  0.00000  0.13869
       7     C     3.06299  3.06299  0.00000 -0.12597
       8     H     0.40480  0.40480  0.00000  0.19039
       9     C     2.97077  2.97077  0.00000  0.05847
      10     H     0.41937  0.41937  0.00000  0.16126
      11     C     3.10927  3.10927  0.00000 -0.21855
      12     C     2.90900  2.90900  0.00000  0.18200
      13     H     0.42324  0.42324  0.00000  0.15351
      14     O     4.16884  4.16884  0.00000 -0.33769
      15     H     0.45648  0.45648  0.00000  0.08704

   Total alpha = 32.00000, Total beta = 32.00000, Total charge = -0.00000
