  ==> Input File <==

--------------------------------------------------------------------------
set {
	reference rhf
	basis cc-pvtz
}

set_num_threads( 4 )
memory 2 gb

molecule MOL {
0 1

H	 -3.401682	 -1.036167	 0.000000
O	 -3.113760	 -0.140926	 0.000000
C	 -1.775087	 -0.058754	 0.000000
C	 -1.093695	 0.886541	 -0.756676
C	 -1.078580	 -0.958634	 0.789478
H	 -1.641046	 1.581310	 -1.366701
C	 0.279879	 0.927060	 -0.719996
H	 -1.623313	 -1.679568	 1.365272
C	 0.296728	 -0.904796	 0.815092
H	 0.817296	 1.651547	 -1.299143
C	 0.992259	 0.032112	 0.066167
H	 0.838104	 -1.602451	 1.427226
C	 2.465855	 0.070677	 0.109625
O	 3.144250	 0.833190	 -0.494121
H	 2.924803	 -0.680058	 0.761978

	symmetry c1
}
set optking {
	frozen_dihedral = ("
		5 3 2 1
	")
}

ee = optimize('scf')
oeprop('DIPOLE', 'QUADRUPOLE', 'MULLIKEN_CHARGES')
f=open( 'psi4out.xyz', 'w' )
f.write( "15  " )
f.write( str(ee) + "\n" )
f.write( MOL.save_string_xyz() )
f.close()
--------------------------------------------------------------------------

    Molecular point group: c1
  Charge       = 0
  Multiplicity = 1
  Basis Set: CC-PVTZ
  Basis Set:
  @DF-RHF Final Energy:  -418.43831670005591
    Total Energy =                       -418.4383167000564754
    Molecular point group: c1
  Basis Set: CC-PVTZ
  Basis Set:
  Basis Set: CC-PVTZ
  Basis Set:
  @DF-RHF Final Energy:  -418.43997734749371
    Total Energy =                       -418.4399773474943913
  Basis Set: CC-PVTZ
  Basis Set:
  Basis Set: CC-PVTZ
  Basis Set:
  @DF-RHF Final Energy:  -418.44006659580373
    Total Energy =                       -418.4400665958038417
  Basis Set: CC-PVTZ
  Basis Set:
  Basis Set: CC-PVTZ
  Basis Set:
  @DF-RHF Final Energy:  -418.43905289191343
    Total Energy =                       -418.4390528919134340
  Basis Set: CC-PVTZ
  Basis Set:
  Basis Set: CC-PVTZ
  Basis Set:
  @DF-RHF Final Energy:  -418.44011540340114
    Total Energy =                       -418.4401154034010233
  Basis Set: CC-PVTZ
  Basis Set:
  Charge       = 0
  Multiplicity = 1
  Basis Set: CC-PVTZ
  Basis Set:

    Orbital Energies (a.u.)
    -----------------------

    Doubly Occupied:

       1A    -20.598077     2A    -20.547508     3A    -11.324074
       4A    -11.318689     5A    -11.259691     6A    -11.251758
       7A    -11.242388     8A    -11.239451     9A    -11.237326
      10A     -1.429561    11A     -1.403756    12A     -1.175430
      13A     -1.046131    14A     -1.040439    15A     -0.895042
      16A     -0.860656    17A     -0.804475    18A     -0.759910
      19A     -0.701625    20A     -0.687715    21A     -0.645042
      22A     -0.631493    23A     -0.623295    24A     -0.610208
      25A     -0.571183    26A     -0.558980    27A     -0.553239
      28A     -0.507496    29A     -0.489945    30A     -0.422893
      31A     -0.360988    32A     -0.337117

  @DF-RHF Final Energy:  -418.44011873289509

   => Energetics <=

    Nuclear Repulsion Energy =            402.0553032411169738
    One-Electron Energy =               -1366.7196873611383126
    Two-Electron Energy =                 546.2242653871261382
    DFT Exchange-Correlation Energy =       0.0000000000000000
    Empirical Dispersion Energy =           0.0000000000000000
    PCM Polarization Energy =               0.0000000000000000
    EFP Energy =                            0.0000000000000000
    Total Energy =                       -418.4401187328952574
    Molecular point group: c1
  Basis Set: CC-PVTZ
  Basis Set:

  -Total Gradient:
     Atom            X                  Y                   Z
    ------   -----------------  -----------------  -----------------
       1        0.000048749343    -0.000132492877    -0.003458674767
       2       -0.000103616645     0.001082072608     0.005396161511
       3        0.000198960460    -0.002489657006    -0.004034270175
       4       -0.000355809659    -0.000128558705     0.000083114943
       5        0.000220067469     0.001678921033     0.002025665445
       6        0.000010449259    -0.000014273586     0.000008378309
       7        0.000408462938    -0.000147932838     0.000166953971
       8       -0.000010378847    -0.000017284559     0.000007819501
       9       -0.000347731241    -0.000194453358     0.000076051593
      10       -0.000017329297     0.000012606246    -0.000013131792
      11       -0.000034546168     0.000346683087    -0.000313397437
      12       -0.000001212427     0.000017918148     0.000001692502
      13        0.000038611624     0.000042466851     0.000103424972
      14       -0.000042180919    -0.000024183040    -0.000032615376
      15       -0.000012495885    -0.000031832006    -0.000017173199

  **** Optimization is complete! (in 6 steps) ****
    Final optimized geometry and variables:
    Molecular point group: c1

    Geometry (in Angstrom), charge = 0, multiplicity = 1:

    H           -3.463084050171    -1.034710089234     0.013311920849
    O           -3.114732160968    -0.160927649378    -0.005447032360
    C           -1.765481961481    -0.171022331708     0.023961700553
    C           -1.096025974711     0.787525203965    -0.725332525692
    C           -1.062085449838    -1.054285327201     0.822216526982
    H           -1.666656282643     1.467517394619    -1.325764510368
    C            0.275122475646     0.845439283039    -0.684159781883
    H           -1.588876984146    -1.774173171478     1.419494748884
    C            0.316939217677    -0.992879592185     0.845355680708
    H            0.806242497263     1.577764245231    -1.259251379921
    C            0.997640153861    -0.048644105056     0.098923379856
    H            0.864973997351    -1.682159222536     1.460936598203
    C            2.472614947589     0.003331902715     0.144374495304
    O            3.143636485920     0.771973279241    -0.458339671685
    H            2.936912347668    -0.744304903047     0.796777037803

  Mulliken Charges: (a.u.)
   Center  Symbol    Alpha    Beta     Spin     Total
       1     H     0.38389  0.38389  0.00000  0.23223
       2     O     4.17520  4.17520  0.00000 -0.35041
       3     C     2.85541  2.85541  0.00000  0.28917
       4     C     3.10706  3.10706  0.00000 -0.21411
       5     C     3.12596  3.12596  0.00000 -0.25191
       6     H     0.41370  0.41370  0.00000  0.17261
       7     C     3.06251  3.06251  0.00000 -0.12503
       8     H     0.42474  0.42474  0.00000  0.15051
       9     C     3.07548  3.07548  0.00000 -0.15097
      10     H     0.40718  0.40718  0.00000  0.18563
      11     C     2.99942  2.99942  0.00000  0.00117
      12     H     0.42126  0.42126  0.00000  0.15749
      13     C     2.91090  2.91090  0.00000  0.17819
      14     O     4.17692  4.17692  0.00000 -0.35385
      15     H     0.46036  0.46036  0.00000  0.07927

   Total alpha = 32.00000, Total beta = 32.00000, Total charge = -0.00000
