  ==> Input File <==

--------------------------------------------------------------------------
set {
	reference rhf
	basis 6-31G*
}

set_num_threads( 1 )
memory 2 gb

molecule MOL {
0 1

H	 -3.161837	 0.500524	 -0.000234
C	 -2.367097	 -0.232926	 -0.000000
O	 -1.158440	 0.455814	 -0.000122
H	 -2.468853	 -0.861886	 -0.882833
H	 -2.468942	 -0.861421	 0.883154
C	 -0.029776	 -0.365156	 0.000148
C	 1.212217	 0.508981	 0.000007
H	 -0.036772	 -1.013236	 -0.877259
H	 -0.036869	 -1.012778	 0.877897
C	 1.646144	 0.908059	 1.409732
H	 2.011679	 -0.028929	 -0.500167
H	 1.010102	 1.394261	 -0.595080
H	 1.876997	 0.036004	 2.015250
H	 2.533603	 1.531251	 1.379841
H	 0.867945	 1.468780	 1.920029

	symmetry c1
}
set optking {
	frozen_dihedral = ("
		6 3 2 4,
		8 6 3 2
	")
}

ee = energy('scf')
oeprop('DIPOLE', 'QUADRUPOLE', 'MULLIKEN_CHARGES')
f=open( 'psi4out.xyz', 'w' )
f.write( "15  " )
f.write( str(ee) + "\n" )
f.write( MOL.save_string_xyz() )
f.close()
--------------------------------------------------------------------------

    Molecular point group: c1

    Geometry (in Angstrom), charge = 0, multiplicity = 1:

       Center              X                  Y                   Z               Mass
    ------------   -----------------  -----------------  -----------------  -----------------
           H         -2.988181051743     0.253743793911    -0.286036786369     1.007825032070
           C         -2.193441051743    -0.479706206089    -0.285802786369    12.000000000000
           O         -0.984784051743     0.209033793911    -0.285924786369    15.994914619560
           H         -2.295197051743    -1.108666206089    -1.168635786369     1.007825032070
           H         -2.295286051743    -1.108201206089     0.597351213631     1.007825032070
           C          0.143879948257    -0.611936206089    -0.285654786369    12.000000000000
           C          1.385872948257     0.262200793911    -0.285795786369    12.000000000000
           H          0.136883948257    -1.260016206089    -1.163061786369     1.007825032070
           H          0.136786948257    -1.259558206089     0.592094213631     1.007825032070
           C          1.819799948257     0.661278793911     1.123929213631    12.000000000000
           H          2.185334948257    -0.275709206089    -0.785969786369     1.007825032070
           H          1.183757948257     1.147480793911    -0.880882786369     1.007825032070
           H          2.050652948257    -0.210776206089     1.729447213631     1.007825032070
           H          2.707258948257     1.284470793911     1.094038213631     1.007825032070
           H          1.041600948257     1.221999793911     1.634226213631     1.007825032070

  Charge       = 0
  Multiplicity = 1
  Basis Set: 6-31G*
  Basis Set:

    Orbital Energies (a.u.)
    -----------------------

    Doubly Occupied:

       1A    -20.553697     2A    -11.265625     3A    -11.263956
       4A    -11.213738     5A    -11.206680     6A     -1.378706
       7A     -1.055101     8A     -0.951682     9A     -0.882867
      10A     -0.803930    11A     -0.667712    12A     -0.663056
      13A     -0.632243    14A     -0.583887    15A     -0.576837
      16A     -0.546398    17A     -0.493762    18A     -0.486923
      19A     -0.481399    20A     -0.460125    21A     -0.411943

  @DF-RHF Final Energy:  -232.13703090153382

   => Energetics <=

    Nuclear Repulsion Energy =            191.9453053376424236
    One-Electron Energy =                -695.0041333482563459
    Two-Electron Energy =                 270.9217971090799892
    DFT Exchange-Correlation Energy =       0.0000000000000000
    Empirical Dispersion Energy =           0.0000000000000000
    PCM Polarization Energy =               0.0000000000000000
    EFP Energy =                            0.0000000000000000
    Total Energy =                       -232.1370309015339330

  Mulliken Charges: (a.u.)
   Center  Symbol    Alpha    Beta     Spin     Total
       1     H     0.41233  0.41233  0.00000  0.17535
       2     C     3.07930  3.07930  0.00000 -0.15859
       3     O     4.30406  4.30406  0.00000 -0.60812
       4     H     0.43034  0.43034  0.00000  0.13933
       5     H     0.43040  0.43040  0.00000  0.13920
       6     C     2.98870  2.98870  0.00000  0.02261
       7     C     3.16131  3.16131  0.00000 -0.32262
       8     H     0.43100  0.43100  0.00000  0.13800
       9     H     0.43230  0.43230  0.00000  0.13540
      10     C     3.24367  3.24367  0.00000 -0.48734
      11     H     0.42219  0.42219  0.00000  0.15561
      12     H     0.40846  0.40846  0.00000  0.18308
      13     H     0.42365  0.42365  0.00000  0.15271
      14     H     0.41960  0.41960  0.00000  0.16079
      15     H     0.41270  0.41270  0.00000  0.17460

   Total alpha = 21.00000, Total beta = 21.00000, Total charge =  0.00000
