  ==> Input File <==

--------------------------------------------------------------------------
set {
	reference rhf
	basis cc-pvtz
}

set_num_threads( 4 )
memory 2 gb

molecule MOL {
0 1

O	 0.749630	 1.305591	 -0.000460
C	 0.576499	 0.134701	 -0.003900
C	 -0.765656	 -0.550508	 -0.002152
O	 1.564816	 -0.744612	 -0.000631
C	 -1.945526	 0.411052	 0.000603
H	 -0.794329	 -1.203792	 -0.868145
H	 -0.791555	 -1.205429	 0.862701
C	 -2.137080	 1.088583	 -1.351870
H	 -1.795673	 1.158281	 0.770399
H	 -2.844578	 -0.127412	 0.274720
H	 -1.259853	 1.661348	 -1.634223
H	 -2.980505	 1.767926	 -1.327596
H	 -2.321652	 0.361000	 -2.135377
C	 2.884339	 -0.237801	 0.002883
H	 3.064150	 0.362814	 -0.876312
H	 3.533055	 -1.098529	 0.004958
H	 3.059365	 0.363432	 0.882614

	symmetry c1
}
set optking {
	frozen_dihedral = ("
		9 5 3 6
	")
}

ee = optimize('scf')
oeprop('DIPOLE', 'QUADRUPOLE', 'MULLIKEN_CHARGES')
f=open( 'psi4out.xyz', 'w' )
f.write( "17  " )
f.write( str(ee) + "\n" )
f.write( MOL.save_string_xyz() )
f.close()
--------------------------------------------------------------------------

    Molecular point group: c1
  Charge       = 0
  Multiplicity = 1
  Basis Set: CC-PVTZ
  Basis Set:
  @DF-RHF Final Energy:  -345.03422714827445
    Total Energy =                       -345.0342271482738852
    Molecular point group: c1
  Basis Set: CC-PVTZ
  Basis Set:
  Basis Set: CC-PVTZ
  Basis Set:
  @DF-RHF Final Energy:  -345.03451562962266
    Total Energy =                       -345.0345156296231153
  Basis Set: CC-PVTZ
  Basis Set:
  Basis Set: CC-PVTZ
  Basis Set:
  @DF-RHF Final Energy:  -345.03308270710949
    Total Energy =                       -345.0330827071094859
  Basis Set: CC-PVTZ
  Basis Set:
  Basis Set: CC-PVTZ
  Basis Set:
  @DF-RHF Final Energy:  -345.03465609510704
    Total Energy =                       -345.0346560951065271
  Basis Set: CC-PVTZ
  Basis Set:
  Basis Set: CC-PVTZ
  Basis Set:
  @DF-RHF Final Energy:  -345.03469223296997
    Total Energy =                       -345.0346922329703716
  Basis Set: CC-PVTZ
  Basis Set:
  Basis Set: CC-PVTZ
  Basis Set:
  @DF-RHF Final Energy:  -345.03471064197601
    Total Energy =                       -345.0347106419761758
  Basis Set: CC-PVTZ
  Basis Set:
  Basis Set: CC-PVTZ
  Basis Set:
  @DF-RHF Final Energy:  -345.03471171208611
    Total Energy =                       -345.0347117120855387
  Basis Set: CC-PVTZ
  Basis Set:
  Charge       = 0
  Multiplicity = 1
  Basis Set: CC-PVTZ
  Basis Set:

    Orbital Energies (a.u.)
    -----------------------

    Doubly Occupied:

       1A    -20.597415     2A    -20.534934     3A    -11.365646
       4A    -11.279166     5A    -11.234494     6A    -11.220358
       7A    -11.206713     8A     -1.473338     9A     -1.366731
      10A     -1.080256    11A     -1.000771    12A     -0.939189
      13A     -0.829856    14A     -0.768185    15A     -0.703473
      16A     -0.685206    17A     -0.675672    18A     -0.620242
      19A     -0.617025    20A     -0.568090    21A     -0.566218
      22A     -0.536480    23A     -0.525240    24A     -0.489326
      25A     -0.484517    26A     -0.482569    27A     -0.460932
      28A     -0.440474

  @DF-RHF Final Energy:  -345.03471175910551

   => Energetics <=

    Nuclear Repulsion Energy =            318.1712437834568732
    One-Electron Energy =               -1100.9068776961132698
    Two-Electron Energy =                 437.7009221535510051
    DFT Exchange-Correlation Energy =       0.0000000000000000
    Empirical Dispersion Energy =           0.0000000000000000
    PCM Polarization Energy =               0.0000000000000000
    EFP Energy =                            0.0000000000000000
    Total Energy =                       -345.0347117591053347
    Molecular point group: c1
  Basis Set: CC-PVTZ
  Basis Set:

  -Total Gradient:
     Atom            X                  Y                   Z
    ------   -----------------  -----------------  -----------------
       1        0.000009009730    -0.000014183130    -0.000000871054
       2       -0.000015592782     0.000020885667     0.000001807107
       3       -0.000554756895    -0.000621494531     0.000480047501
       4        0.000015660749    -0.000004784907     0.000000738852
       5       -0.000416435098    -0.000475329063     0.000633570030
       6        0.000518865820     0.000590816403    -0.000498679148
       7        0.000001097235    -0.000004457346     0.000000478733
       8       -0.000003228137    -0.000002397145    -0.000000239297
       9        0.000450049431     0.000510985211    -0.000618561136
      10       -0.000002882875     0.000001506055     0.000000606142
      11       -0.000000678981     0.000002547513     0.000000246493
      12        0.000001347797    -0.000001416048     0.000000728583
      13        0.000001631593    -0.000000607948     0.000000830192
      14       -0.000008663938    -0.000005566814    -0.000000521134
      15        0.000000468416     0.000001283647    -0.000000454873
      16        0.000004565949     0.000001726417     0.000000179141
      17       -0.000000458016     0.000000486020     0.000000093868

  **** Optimization is complete! (in 8 steps) ****
    Final optimized geometry and variables:
    Molecular point group: c1

    Geometry (in Angstrom), charge = 0, multiplicity = 1:

    O            0.597435516991     1.089891304317     0.408037156854
    C            0.410042723986    -0.068118460203     0.247794652619
    C           -0.939211866242    -0.744158769186     0.223098868211
    O            1.388462466787    -0.943921993868     0.090915993806
    C           -2.118482659917     0.220170073388     0.155579351249
    H           -0.943729175914    -1.436199892148    -0.611082438218
    H           -0.986721698816    -1.352187349450     1.120927470980
    C           -2.304806105710     0.856742416310    -1.218734258011
    H           -1.982391884717     0.997919886213     0.896040255726
    H           -3.017406422048    -0.324336780007     0.423719683936
    H           -1.434473773078     1.434017455909    -1.504062439563
    H           -3.158714672882     1.523878088368    -1.219873946561
    H           -2.475617665213     0.101345427902    -1.979340875903
    C            2.712983634407    -0.452319464568     0.132922652585
    H            2.876115850132     0.270847104130    -0.652255367329
    H            3.352593865825    -1.307998811984    -0.010333823263
    H            2.917739959315     0.010799653662     1.086780503601

  Mulliken Charges: (a.u.)
   Center  Symbol    Alpha    Beta     Spin     Total
       1     O     4.19886  4.19886  0.00000 -0.39773
       2     C     2.80566  2.80566  0.00000  0.38869
       3     C     3.10285  3.10285  0.00000 -0.20570
       4     O     4.14628  4.14628  0.00000 -0.29257
       5     C     3.08489  3.08489  0.00000 -0.16979
       6     H     0.43967  0.43967  0.00000  0.12066
       7     H     0.43474  0.43474  0.00000  0.13053
       8     C     3.15186  3.15186  0.00000 -0.30372
       9     H     0.44545  0.44545  0.00000  0.10909
      10     H     0.44769  0.44769  0.00000  0.10463
      11     H     0.44578  0.44578  0.00000  0.10843
      12     H     0.44784  0.44784  0.00000  0.10431
      13     H     0.45802  0.45802  0.00000  0.08397
      14     C     3.03652  3.03652  0.00000 -0.07303
      15     H     0.45427  0.45427  0.00000  0.09145
      16     H     0.44526  0.44526  0.00000  0.10948
      17     H     0.45436  0.45436  0.00000  0.09129

   Total alpha = 28.00000, Total beta = 28.00000, Total charge =  0.00000
