  ==> Input File <==

--------------------------------------------------------------------------
set {
	reference rhf
	basis cc-pvtz
}

set_num_threads( 4 )
memory 2 gb

molecule MOL {
0 1

H	 -1.088256	 -1.364742	 0.152233
O	 -1.432053	 -0.565244	 -0.200812
C	 -0.727158	 0.534527	 0.310686
C	 0.680222	 0.664433	 -0.252229
H	 -1.306802	 1.408001	 0.044211
H	 -0.690821	 0.490158	 1.397609
C	 1.515506	 -0.606422	 -0.128643
H	 0.610590	 0.957409	 -1.294605
H	 1.177295	 1.475759	 0.272478
H	 1.080540	 -1.425192	 -0.691266
H	 2.516659	 -0.451713	 -0.512455
H	 1.604778	 -0.919457	 0.907212

	symmetry c1
}
set optking {
	frozen_dihedral = ("
		8 4 3 2
	")
}

ee = optimize('scf')
oeprop('DIPOLE', 'QUADRUPOLE', 'MULLIKEN_CHARGES')
f=open( 'psi4out.xyz', 'w' )
f.write( "12  " )
f.write( str(ee) + "\n" )
f.write( MOL.save_string_xyz() )
f.close()
--------------------------------------------------------------------------

    Molecular point group: c1
  Charge       = 0
  Multiplicity = 1
  Basis Set: CC-PVTZ
  Basis Set:
  @DF-RHF Final Energy:  -193.18988463507989
    Total Energy =                       -193.1898846350800056
    Molecular point group: c1
  Basis Set: CC-PVTZ
  Basis Set:
  Basis Set: CC-PVTZ
  Basis Set:
  @DF-RHF Final Energy:  -193.18997879758714
    Total Energy =                       -193.1899787975869742
  Basis Set: CC-PVTZ
  Basis Set:
  Basis Set: CC-PVTZ
  Basis Set:
  @DF-RHF Final Energy:  -193.19001082178104
    Total Energy =                       -193.1900108217810725
  Basis Set: CC-PVTZ
  Basis Set:
  Basis Set: CC-PVTZ
  Basis Set:
  @DF-RHF Final Energy:  -193.19001189249690
    Total Energy =                       -193.1900118924968410
  Basis Set: CC-PVTZ
  Basis Set:
  Charge       = 0
  Multiplicity = 1
  Basis Set: CC-PVTZ
  Basis Set:

    Orbital Energies (a.u.)
    -----------------------

    Doubly Occupied:

       1A    -20.545937     2A    -11.266210     3A    -11.217264
       4A    -11.214771     5A     -1.364333     6A     -1.051460
       7A     -0.929410     8A     -0.809319     9A     -0.698666
      10A     -0.636152    11A     -0.607460    12A     -0.588973
      13A     -0.537485    14A     -0.512205    15A     -0.494921
      16A     -0.468220    17A     -0.432423

  @DF-RHF Final Energy:  -193.19001209822255

   => Energetics <=

    Nuclear Repulsion Energy =            133.4248445631903337
    One-Electron Energy =                -526.4792961138437022
    Two-Electron Energy =                 199.8644394524306449
    DFT Exchange-Correlation Energy =       0.0000000000000000
    Empirical Dispersion Energy =           0.0000000000000000
    PCM Polarization Energy =               0.0000000000000000
    EFP Energy =                            0.0000000000000000
    Total Energy =                       -193.1900120982227236
    Molecular point group: c1
  Basis Set: CC-PVTZ
  Basis Set:

  -Total Gradient:
     Atom            X                  Y                   Z
    ------   -----------------  -----------------  -----------------
       1       -0.000003164448    -0.000015149773     0.000001284189
       2        0.000838989201    -0.001348310804     0.001729343514
       3       -0.001104506362     0.002543673890    -0.002188702549
       4        0.000182303189    -0.003989501506    -0.000338409718
       5       -0.000005725263     0.000004979862     0.000001504194
       6       -0.000002988482    -0.000012436716    -0.000004191828
       7        0.000010587524     0.000002649705    -0.000008044786
       8        0.000079563637     0.002805941301     0.000795897216
       9        0.000010411722     0.000004308894     0.000010332765
      10       -0.000003202259     0.000007377916     0.000003844870
      11        0.000002954040    -0.000004315770    -0.000002063532
      12       -0.000005222502     0.000000783000    -0.000000794336

  **** Optimization is complete! (in 5 steps) ****
    Final optimized geometry and variables:
    Molecular point group: c1

    Geometry (in Angstrom), charge = 0, multiplicity = 1:

    H           -1.082156695014    -1.331044099652     0.209670644779
    O           -1.426607568903    -0.526712383636    -0.130877504677
    C           -0.700527606535     0.561906892054     0.373937082445
    C            0.704199145913     0.683510609387    -0.202655508934
    H           -1.273316075142     1.446498018905     0.131613473894
    H           -0.645199742941     0.500588800232     1.459326697537
    C            1.549519739980    -0.577392042140    -0.062924207643
    H            0.639380472932     0.982485103725    -1.243789595627
    H            1.195412524107     1.504246010061     0.314265904928
    H            1.134111666810    -1.399196375610    -0.634138019249
    H            2.556371614244    -0.409195284363    -0.425120430526
    H            1.623111140768    -0.889139119485     0.975099706945

  Mulliken Charges: (a.u.)
   Center  Symbol    Alpha    Beta     Spin     Total
       1     H     0.39135  0.39135  0.00000  0.21731
       2     O     4.20595  4.20595  0.00000 -0.41191
       3     C     2.97771  2.97771  0.00000  0.04457
       4     C     3.07989  3.07989  0.00000 -0.15978
       5     H     0.45028  0.45028  0.00000  0.09944
       6     H     0.47015  0.47015  0.00000  0.05970
       7     C     3.16356  3.16356  0.00000 -0.32711
       8     H     0.45246  0.45246  0.00000  0.09509
       9     H     0.45742  0.45742  0.00000  0.08517
      10     H     0.45242  0.45242  0.00000  0.09515
      11     H     0.44475  0.44475  0.00000  0.11049
      12     H     0.45406  0.45406  0.00000  0.09189

   Total alpha = 17.00000, Total beta = 17.00000, Total charge =  0.00000
