                              Psi4 1.0.54 Driver

  ==> Input File <==

--------------------------------------------------------------------------
set {
	reference rhf
	basis cc-pvtz
}

set_num_threads( 4 )
memory 2 gb

molecule MOL {
0 1

H	 3.557495	 -1.108239	 -0.463482
O	 2.824271	 -1.154299	 0.131461
C	 2.076458	 -0.067370	 -0.038225
C	 0.626018	 -0.337582	 0.258241
O	 2.538288	 0.965419	 -0.381593
C	 -0.267326	 0.883135	 0.076490
H	 0.325620	 -1.161483	 -0.378003
H	 0.574537	 -0.713685	 1.275261
C	 -1.726822	 0.642622	 0.463839
H	 -0.210803	 1.217591	 -0.953497
H	 0.129920	 1.693110	 0.675679
C	 -2.480891	 -0.340606	 -0.429852
H	 -2.243098	 1.597649	 0.438609
H	 -1.776542	 0.301208	 1.495542
C	 -3.955933	 -0.460128	 -0.060472
H	 -2.393755	 -0.020485	 -1.464726
H	 -2.024244	 -1.323637	 -0.374360
H	 -4.467673	 -1.160944	 -0.709827
H	 -4.458917	 0.497287	 -0.144505
H	 -4.076458	 -0.806900	 0.960497

	symmetry c1
}
set optking {
	frozen_dihedral = ("
		1 2 3 5
	")
}

ee,wfn = optimize('scf', return_wfn=True)
oeprop( wfn, 'DIPOLE', 'QUADRUPOLE', 'MULLIKEN_CHARGES')
f=open( 'psi4out.xyz', 'w' )
f.write( "20  " )
f.write( str(ee) + "\n" )
f.write( MOL.save_string_xyz() )
f.close()
--------------------------------------------------------------------------

    Molecular point group: c1
  Charge       = 0
  Multiplicity = 1
  Basis Set: CC-PVTZ
  Basis Set:
  @DF-RHF Final Energy:  -384.09001348990995
    Total Energy =                       -384.0900134899098930
    Molecular point group: c1
  Basis Set: CC-PVTZ
  Basis Set:
  Basis Set: CC-PVTZ
  Basis Set:
  @DF-RHF Final Energy:  -384.08632496511962
    Total Energy =                       -384.0863249651201841
  Basis Set: CC-PVTZ
  Basis Set:
  Basis Set: CC-PVTZ
  Basis Set:
  @DF-RHF Final Energy:  -384.09039306287218
    Total Energy =                       -384.0903930628722946
  Basis Set: CC-PVTZ
  Basis Set:
  Basis Set: CC-PVTZ
  Basis Set:
  @DF-RHF Final Energy:  -384.09047557142702
    Total Energy =                       -384.0904755714271914
  Basis Set: CC-PVTZ
  Basis Set:
  Basis Set: CC-PVTZ
  Basis Set:
  @DF-RHF Final Energy:  -384.09048835293402
    Total Energy =                       -384.0904883529343010
  Basis Set: CC-PVTZ
  Basis Set:
  Basis Set: CC-PVTZ
  Basis Set:
  @DF-RHF Final Energy:  -384.09049347907165
    Total Energy =                       -384.0904934790717107
  Basis Set: CC-PVTZ
  Basis Set:
  Basis Set: CC-PVTZ
  Basis Set:
  @DF-RHF Final Energy:  -384.09049372338660
    Total Energy =                       -384.0904937233860892
  Basis Set: CC-PVTZ
  Basis Set:
  Charge       = 0
  Multiplicity = 1
  Basis Set: CC-PVTZ
  Basis Set:

    Orbital Energies (a.u.)
    -----------------------

    Doubly Occupied:

       1A    -20.599997     2A    -20.542472     3A    -11.373552
       4A    -11.238425     5A    -11.220947     6A    -11.218932
       7A    -11.218284     8A    -11.210729     9A     -1.473455
      10A     -1.369604    11A     -1.097439    12A     -1.041999
      13A     -0.961997    14A     -0.869663    15A     -0.818106
      16A     -0.778376    17A     -0.705010    18A     -0.690980
      19A     -0.666344    20A     -0.633645    21A     -0.613750
      22A     -0.592207    23A     -0.568006    24A     -0.555720
      25A     -0.545231    26A     -0.512306    27A     -0.497441
      28A     -0.485439    29A     -0.471097    30A     -0.468495
      31A     -0.458567    32A     -0.445959

  @DF-RHF Final Energy:  -384.09049448716803

   => Energetics <=

    Nuclear Repulsion Energy =            376.3949709605067255
    One-Electron Energy =               -1269.0825850080698274
    Two-Electron Energy =                 508.5971195603952424
    DFT Exchange-Correlation Energy =       0.0000000000000000
    Empirical Dispersion Energy =           0.0000000000000000
    PCM Polarization Energy =               0.0000000000000000
    EFP Energy =                            0.0000000000000000
    Total Energy =                       -384.0904944871678595
    Molecular point group: c1
  Basis Set: CC-PVTZ
  Basis Set:

  -Total Gradient:
     Atom            X                  Y                   Z
    ------   -----------------  -----------------  -----------------
       1       -0.004421522856    -0.005244038617    -0.006384679272
       2        0.005862400729     0.007785119855     0.011659814558
       3       -0.002137151772    -0.005450711885    -0.013314427487
       4       -0.000003497965     0.000022662883     0.000098775433
       5        0.000700104082     0.002894407981     0.007943237149
       6        0.000008072427    -0.000010535777     0.000005743419
       7       -0.000006093642    -0.000009230642    -0.000006977855
       8       -0.000005277256     0.000003630522    -0.000003317059
       9       -0.000007923777     0.000011711504    -0.000007319344
      10        0.000001625788     0.000001923479     0.000000925681
      11        0.000002306648     0.000003031698     0.000003300346
      12        0.000005571153    -0.000007616022     0.000006961108
      13       -0.000003779739     0.000000545946    -0.000001402720
      14       -0.000002274718     0.000000871620    -0.000003272715
      15       -0.000001475654     0.000000936734    -0.000000418900
      16        0.000000677996     0.000002221409     0.000005720335
      17        0.000008605622    -0.000005120999    -0.000002152965
      18       -0.000000576256    -0.000000052028    -0.000001042153
      19       -0.000000279799     0.000001674628     0.000000702388
      20        0.000000488992    -0.000001432289    -0.000000169948

  **** Optimization is complete! (in 8 steps) ****
    Final optimized geometry and variables:
    Molecular point group: c1

    Geometry (in Angstrom), charge = 0, multiplicity = 1:

    H            3.618014363719    -1.121785152355    -0.302057530111
    O            2.845688567218    -1.125042264464     0.241744569960
    C            2.074462986367    -0.079612671921    -0.075980789837
    C            0.626641951883    -0.342177572632     0.237976283515
    O            2.522945765567     0.932316744822    -0.486346211249
    C           -0.263589925155     0.883701833601     0.078454544942
    H            0.314750550133    -1.157494025409    -0.405103508456
    H            0.585314148014    -0.732394167400     1.249823144659
    C           -1.719999101801     0.645496451905     0.478942654246
    H           -0.216085387546     1.229215488690    -0.948133905453
    H            0.143174402859     1.685760400890     0.682496488032
    C           -2.487777048390    -0.324842951086    -0.417274196385
    H           -2.232323915595     1.602941868770     0.469393049518
    H           -1.760410981492     0.293244480295     1.507374776475
    C           -3.957969496932    -0.447154521737    -0.029590055605
    H           -2.414024359481     0.008528769732    -1.449042215412
    H           -2.032028055192    -1.309219800145    -0.380609776661
    H           -4.478939170890    -1.140805028079    -0.679321251321
    H           -4.461217915749     0.511435933874    -0.096999203905
    H           -4.065285641966    -0.804411088117     0.989236025985

  Mulliken Charges: (a.u.)
   Center  Symbol    Alpha    Beta     Spin     Total
       1     H     0.38084  0.38084  0.00000  0.23832
       2     O     4.16616  4.16616  0.00000 -0.33232
       3     C     2.80418  2.80418  0.00000  0.39165
       4     C     3.11109  3.11109  0.00000 -0.22218
       5     O     4.18456  4.18456  0.00000 -0.36912
       6     C     3.09332  3.09332  0.00000 -0.18664
       7     H     0.44026  0.44026  0.00000  0.11948
       8     H     0.43695  0.43695  0.00000  0.12610
       9     C     3.09882  3.09882  0.00000 -0.19763
      10     H     0.44511  0.44511  0.00000  0.10978
      11     H     0.43983  0.43983  0.00000  0.12034
      12     C     3.08685  3.08685  0.00000 -0.17369
      13     H     0.44560  0.44560  0.00000  0.10880
      14     H     0.45376  0.45376  0.00000  0.09249
      15     C     3.14954  3.14954  0.00000 -0.29908
      16     H     0.45259  0.45259  0.00000  0.09483
      17     H     0.45447  0.45447  0.00000  0.09105
      18     H     0.44781  0.44781  0.00000  0.10439
      19     H     0.45356  0.45356  0.00000  0.09288
      20     H     0.45472  0.45472  0.00000  0.09056

   Total alpha = 32.00000, Total beta = 32.00000, Total charge =  0.00000

*** Psi4 exiting successfully. Buy a developer a beer!
