  ==> Input File <==

--------------------------------------------------------------------------
set {
	reference rhf
	basis 6-31G*
}

set_num_threads( 4 )
memory 2 gb

molecule MOL {
0 1

O	 -2.776432	 -0.060977	 0.769834
C	 -1.921153	 0.064240	 -0.045697
C	 -2.149005	 0.133719	 -1.531497
O	 -0.632575	 0.154573	 0.251549
H	 -1.614811	 -0.671882	 -2.021998
H	 -3.205665	 0.057846	 -1.740184
H	 -1.760164	 1.068616	 -1.918185
C	 0.160891	 -1.019931	 0.106212
C	 1.589627	 -0.672828	 0.480843
H	 0.089836	 -1.367806	 -0.916050
H	 -0.238459	 -1.792301	 0.749618
C	 2.246377	 0.346236	 -0.452210
H	 2.163194	 -1.597435	 0.473358
H	 1.604769	 -0.303424	 1.502885
C	 3.691736	 0.652107	 -0.061850
H	 2.219579	 -0.032311	 -1.472055
H	 1.666466	 1.263317	 -0.447249
H	 4.134505	 1.377213	 -0.737283
H	 4.305508	 -0.243868	 -0.089969
H	 3.748266	 1.059562	 0.943567

	symmetry c1
}
set optking {
	frozen_dihedral = ("
		1 2 4 8
	")
}

ee = optimize('scf')
oeprop('DIPOLE', 'QUADRUPOLE', 'MULLIKEN_CHARGES')
f=open( 'psi4out.xyz', 'w' )
f.write( "20  " )
f.write( str(ee) + "\n" )
f.write( MOL.save_string_xyz() )
f.close()
--------------------------------------------------------------------------

    Molecular point group: c1
  Charge       = 0
  Multiplicity = 1
  Basis Set: 6-31G*
  Basis Set:
  @DF-RHF Final Energy:  -383.92350603426200
    Total Energy =                       -383.9235060342621182
    Molecular point group: c1
  Basis Set: 6-31G*
  Basis Set:
  Basis Set: 6-31G*
  Basis Set:
  @DF-RHF Final Energy:  -383.92207667773204
    Total Energy =                       -383.9220766777319795
  Basis Set: 6-31G*
  Basis Set:
  Basis Set: 6-31G*
  Basis Set:
  @DF-RHF Final Energy:  -383.92475120086328
    Total Energy =                       -383.9247512008632839
  Basis Set: 6-31G*
  Basis Set:
  Basis Set: 6-31G*
  Basis Set:
  @DF-RHF Final Energy:  -383.92553926518860
    Total Energy =                       -383.9255392651884904
  Basis Set: 6-31G*
  Basis Set:
  @DF-RHF Final Energy:  -383.92556354064965
    Total Energy =                       -383.9255635406497049
  Basis Set: 6-31G*
  Basis Set:
  @DF-RHF Final Energy:  -383.92557060734515
    Total Energy =                       -383.9255706073454348
  Basis Set: 6-31G*
  Basis Set:
  Basis Set: 6-31G*
  Basis Set:
  @DF-RHF Final Energy:  -383.92557266473528
    Total Energy =                       -383.9255726647354550
  Basis Set: 6-31G*
  Basis Set:
  Basis Set: 6-31G*
  Basis Set:
  @DF-RHF Final Energy:  -383.92557364981434
    Total Energy =                       -383.9255736498142824
  Basis Set: 6-31G*
  Basis Set:
  Charge       = 0
  Multiplicity = 1
  Basis Set: 6-31G*
  Basis Set:

    Orbital Energies (a.u.)
    -----------------------

    Doubly Occupied:

       1A    -20.584094     2A    -20.555782     3A    -11.377335
       4A    -11.294587     5A    -11.237926     6A    -11.228391
       7A    -11.222376     8A    -11.214454     9A     -1.457771
      10A     -1.367108    11A     -1.085308    12A     -1.021635
      13A     -0.991100    14A     -0.883569    15A     -0.811742
      16A     -0.777983    17A     -0.694663    18A     -0.685771
      19A     -0.651879    20A     -0.634969    21A     -0.618462
      22A     -0.592006    23A     -0.579561    24A     -0.557270
      25A     -0.548829    26A     -0.534049    27A     -0.493808
      28A     -0.488758    29A     -0.479624    30A     -0.474593
      31A     -0.449838    32A     -0.436467

  @DF-RHF Final Energy:  -383.92557449836153

   => Energetics <=

    Nuclear Repulsion Energy =            384.3854174204981859
    One-Electron Energy =               -1284.5585709661975216
    Two-Electron Energy =                 516.2475790473381494
    DFT Exchange-Correlation Energy =       0.0000000000000000
    Empirical Dispersion Energy =           0.0000000000000000
    PCM Polarization Energy =               0.0000000000000000
    EFP Energy =                            0.0000000000000000
    Total Energy =                       -383.9255744983611294
    Molecular point group: c1
  Basis Set: 6-31G*
  Basis Set:

  -Total Gradient:
     Atom            X                  Y                   Z
    ------   -----------------  -----------------  -----------------
       1       -0.000053218772     0.001273880886     0.000032746595
       2       -0.000012626729    -0.001811145359    -0.000575047727
       3        0.000062185999     0.000005624756    -0.000020476369
       4       -0.000223418047     0.000323332435     0.001529372103
       5       -0.000018471827     0.000003495301     0.000024806650
       6       -0.000008978201     0.000006183367     0.000010305647
       7        0.000003561469     0.000011087009    -0.000001267720
       8        0.000196397330     0.000220824082    -0.001067818462
       9        0.000003986834    -0.000004873398     0.000044072953
      10        0.000004822186    -0.000019427648     0.000021538228
      11        0.000016806039     0.000008366051     0.000003575010
      12       -0.000007584326     0.000012200480    -0.000009935794
      13        0.000021116258     0.000000547529     0.000003051049
      14        0.000010106069     0.000003527059     0.000004874462
      15       -0.000002813851    -0.000018309922     0.000000040905
      16       -0.000000477540     0.000002502846    -0.000003298392
      17        0.000008386237    -0.000015902771     0.000002920785
      18       -0.000005967566    -0.000001066627    -0.000001087711
      19        0.000007694356    -0.000000499187     0.000001098287
      20       -0.000001505914    -0.000000346891     0.000000529496

  **** Optimization is complete! (in 9 steps) ****
    Final optimized geometry and variables:
    Molecular point group: c1

    Geometry (in Angstrom), charge = 0, multiplicity = 1:

    O           -2.762342403010     0.012542409706     0.842022585208
    C           -1.950729035718     0.096997859357    -0.011803935834
    C           -2.274579404491     0.195482902609    -1.480419732603
    O           -0.633384564793     0.197455759813     0.274000599824
    H           -1.754945100565    -0.570270714064    -2.045070207035
    H           -3.339646011779     0.098080556634    -1.629724242381
    H           -1.936336581910     1.157091408092    -1.851205286676
    C            0.160666996903    -0.975465299744     0.175001448126
    C            1.584498582580    -0.625419277119     0.565324399327
    H            0.127618052415    -1.361005789659    -0.840290306658
    H           -0.243196219587    -1.730147934492     0.840861471397
    C            2.252364294964     0.379147328550    -0.374725579954
    H            2.158027193384    -1.550028578080     0.584255929407
    H            1.575912950339    -0.236986466493     1.579370288233
    C            3.689435987216     0.697844919125     0.035585054671
    H            2.245852377597    -0.017861954248    -1.388278743775
    H            1.667792643654     1.292543680285    -0.394966703967
    H            4.141093031822     1.411877661967    -0.645657544436
    H            4.307483156892    -0.195727021580     0.035890129337
    H            3.725633826221     1.124989695796     1.033524068368

  Mulliken Charges: (a.u.)
   Center  Symbol    Alpha    Beta     Spin     Total
       1     O     4.24778  4.24778  0.00000 -0.49556
       2     C     2.62662  2.62662  0.00000  0.74677
       3     C     3.28965  3.28965  0.00000 -0.57930
       4     O     4.31769  4.31769  0.00000 -0.63538
       5     H     0.40692  0.40692  0.00000  0.18615
       6     H     0.39582  0.39582  0.00000  0.20835
       7     H     0.39795  0.39795  0.00000  0.20410
       8     C     3.00303  3.00303  0.00000 -0.00606
       9     C     3.16243  3.16243  0.00000 -0.32486
      10     H     0.42522  0.42522  0.00000  0.14956
      11     H     0.41026  0.41026  0.00000  0.17948
      12     C     3.15548  3.15548  0.00000 -0.31095
      13     H     0.41934  0.41934  0.00000  0.16133
      14     H     0.40861  0.40861  0.00000  0.18278
      15     C     3.24064  3.24064  0.00000 -0.48128
      16     H     0.42560  0.42560  0.00000  0.14879
      17     H     0.40858  0.40858  0.00000  0.18284
      18     H     0.41738  0.41738  0.00000  0.16525
      19     H     0.42212  0.42212  0.00000  0.15575
      20     H     0.41889  0.41889  0.00000  0.16223

   Total alpha = 32.00000, Total beta = 32.00000, Total charge =  0.00000
