  ==> Input File <==

--------------------------------------------------------------------------
set {
	reference rhf
	basis cc-pvtz
}

set_num_threads( 4 )
memory 2 gb

molecule MOL {
0 1

H	 -1.545122	 2.390103	 -0.028578
C	 -1.378129	 1.960304	 0.949996
C	 -0.069444	 1.186648	 0.990170
H	 -2.217732	 1.314558	 1.169757
H	 -1.363023	 2.762324	 1.678308
C	 0.000000	 0.039916	 0.000014
H	 0.106931	 0.777105	 1.981162
H	 0.773728	 1.843295	 0.793276
C	 1.286532	 -0.763243	 0.000268
O	 -0.899843	 -0.214123	 -0.732192
C	 2.547023	 0.087626	 -0.000114
H	 1.264245	 -1.421103	 -0.864380
H	 1.264290	 -1.420353	 0.865489
H	 2.584452	 0.725630	 -0.872909
H	 3.427035	 -0.544422	 0.000125
H	 2.584484	 0.726356	 0.872143

	symmetry c1
}
set optking {
	frozen_dihedral = ("
		3 6 9 12
	")
}

ee = optimize('scf')
oeprop('DIPOLE', 'QUADRUPOLE', 'MULLIKEN_CHARGES')
f=open( 'psi4out.xyz', 'w' )
f.write( "16  " )
f.write( str(ee) + "\n" )
f.write( MOL.save_string_xyz() )
f.close()
--------------------------------------------------------------------------

    Molecular point group: c1
  Charge       = 0
  Multiplicity = 1
  Basis Set: CC-PVTZ
  Basis Set:
  @DF-RHF Final Energy:  -270.12759757074804
    Total Energy =                       -270.1275975707482644
    Molecular point group: c1
  Basis Set: CC-PVTZ
  Basis Set:
  Basis Set: CC-PVTZ
  Basis Set:
  @DF-RHF Final Energy:  -270.12809673875154
    Total Energy =                       -270.1280967387516512
  Basis Set: CC-PVTZ
  Basis Set:
  Basis Set: CC-PVTZ
  Basis Set:
  @DF-RHF Final Energy:  -270.12878344984688
    Total Energy =                       -270.1287834498467646
  Basis Set: CC-PVTZ
  Basis Set:
  Basis Set: CC-PVTZ
  Basis Set:
  @DF-RHF Final Energy:  -270.12879612963138
    Total Energy =                       -270.1287961296317803
  Basis Set: CC-PVTZ
  Basis Set:
  Basis Set: CC-PVTZ
  Basis Set:
  @DF-RHF Final Energy:  -270.12893897356099
    Total Energy =                       -270.1289389735607074
  Basis Set: CC-PVTZ
  Basis Set:
  Basis Set: CC-PVTZ
  Basis Set:
  @DF-RHF Final Energy:  -270.12897013818974
    Total Energy =                       -270.1289701381897999
  Basis Set: CC-PVTZ
  Basis Set:
  Basis Set: CC-PVTZ
  Basis Set:
  @DF-RHF Final Energy:  -270.12897120351329
    Total Energy =                       -270.1289712035135153
  Basis Set: CC-PVTZ
  Basis Set:
  Charge       = 0
  Multiplicity = 1
  Basis Set: CC-PVTZ
  Basis Set:

    Orbital Energies (a.u.)
    -----------------------

    Doubly Occupied:

       1A    -20.537471     2A    -11.317386     3A    -11.232103
       4A    -11.231373     5A    -11.227035     6A    -11.211559
       7A     -1.397584     8A     -1.074083     9A     -1.036066
      10A     -0.909380    11A     -0.865051    12A     -0.724729
      13A     -0.662094    14A     -0.642042    15A     -0.633748
      16A     -0.609446    17A     -0.557406    18A     -0.544421
      19A     -0.535616    20A     -0.511475    21A     -0.506606
      22A     -0.496863    23A     -0.482469    24A     -0.398620

  @DF-RHF Final Energy:  -270.12897135131755

   => Energetics <=

    Nuclear Repulsion Energy =            240.9465267520324403
    One-Electron Energy =                -843.4617436907597039
    Two-Electron Energy =                 332.3862455874093484
    DFT Exchange-Correlation Energy =       0.0000000000000000
    Empirical Dispersion Energy =           0.0000000000000000
    PCM Polarization Energy =               0.0000000000000000
    EFP Energy =                            0.0000000000000000
    Total Energy =                       -270.1289713513178867
    Molecular point group: c1
  Basis Set: CC-PVTZ
  Basis Set:

  -Total Gradient:
     Atom            X                  Y                   Z
    ------   -----------------  -----------------  -----------------
       1        0.000001136611    -0.000001549706     0.000001597606
       2       -0.000001458068    -0.000001382870     0.000007357270
       3        0.000264997222     0.000364310257    -0.000416900614
       4       -0.000004911867     0.000002479963    -0.000000673532
       5       -0.000003329988     0.000001195146     0.000000618093
       6       -0.000311198996    -0.000428736214     0.000513616329
       7       -0.000001108173     0.000000519540    -0.000006665307
       8        0.000009063274     0.000000516817    -0.000001912752
       9       -0.000340996771    -0.000487364251     0.000319520801
      10        0.000005642482     0.000003132318     0.000006794951
      11       -0.000001258537     0.000002568745    -0.000003981514
      12        0.000390687335     0.000545937174    -0.000421026946
      13       -0.000003079418    -0.000003356306     0.000000171157
      14        0.000001554164     0.000001545520    -0.000000427034
      15       -0.000003545289    -0.000000454814     0.000000793818
      16       -0.000002193981     0.000000638679     0.000001117671

  **** Optimization is complete! (in 8 steps) ****
    Final optimized geometry and variables:
    Molecular point group: c1

    Geometry (in Angstrom), charge = 0, multiplicity = 1:

    H           -1.983467237442     1.884530466362    -0.162497953176
    C           -1.696956919206     1.500902696396     0.806802987877
    C           -0.321482351427     0.853692973600     0.751378845904
    H           -2.451210788724     0.786687998487     1.110686274278
    H           -1.697828504353     2.320576212470     1.515401913816
    C           -0.228708893619    -0.300727956051    -0.227570960566
    H           -0.019731733355     0.494261196657     1.731407651084
    H            0.429789013547     1.583996066579     0.464975534720
    C            1.019010165682    -1.165148833500    -0.189499181656
    O           -1.106110729523    -0.539482616215    -0.992535963697
    C            2.344761117570    -0.405064720217    -0.143823722672
    H            0.980897119351    -1.805102009681    -1.059769404584
    H            0.936496518990    -1.802556159337     0.687526169096
    H            2.440979556502     0.267881878851    -0.988435496501
    H            3.171112651042    -1.103355729874    -0.184625743798
    H            2.452303184563     0.176273463720     0.763060070687

  Mulliken Charges: (a.u.)
   Center  Symbol    Alpha    Beta     Spin     Total
       1     H     0.44556  0.44556  0.00000  0.10888
       2     C     3.14195  3.14195  0.00000 -0.28389
       3     C     3.10838  3.10838  0.00000 -0.21677
       4     H     0.44954  0.44954  0.00000  0.10091
       5     H     0.45089  0.45089  0.00000  0.09822
       6     C     2.86483  2.86483  0.00000  0.27033
       7     H     0.44406  0.44406  0.00000  0.11189
       8     H     0.44344  0.44344  0.00000  0.11312
       9     C     3.09456  3.09456  0.00000 -0.18911
      10     O     4.17279  4.17279  0.00000 -0.34557
      11     C     3.15811  3.15811  0.00000 -0.31622
      12     H     0.43643  0.43643  0.00000  0.12715
      13     H     0.44849  0.44849  0.00000  0.10303
      14     H     0.44782  0.44782  0.00000  0.10436
      15     H     0.44158  0.44158  0.00000  0.11684
      16     H     0.45159  0.45159  0.00000  0.09682

   Total alpha = 24.00000, Total beta = 24.00000, Total charge = -0.00000
