  ==> Input File <==

--------------------------------------------------------------------------
set {
	reference rhf
	basis 6-31G*
}

set_num_threads( 1 )
memory 2 gb

molecule MOL {
0 1

O	 3.225979	 0.970355	 -0.599647
C	 2.701189	 0.057885	 -0.047330
C	 1.245376	 -0.013843	 0.345420
O	 3.347903	 -1.046386	 0.304773
C	 0.604586	 -1.363517	 0.029375
H	 1.188603	 0.225986	 1.402041
H	 0.731524	 0.793472	 -0.170231
C	 -0.898096	 -1.417647	 0.325199
H	 1.117212	 -2.142832	 0.585255
H	 0.768413	 -1.586896	 -1.019283
C	 -1.268700	 -1.303975	 1.806699
H	 -1.283025	 -2.359899	 -0.057834
H	 -1.406394	 -0.634385	 -0.235284
C	 -2.768116	 -1.473634	 2.059611
H	 -0.721421	 -2.057443	 2.371137
H	 -0.953456	 -0.339713	 2.198865
C	 -3.150796	 -1.356740	 3.536101
H	 -3.089304	 -2.442771	 1.681661
H	 -3.316593	 -0.727279	 1.487049
C	 -4.649307	 -1.531172	 3.780515
H	 -2.602850	 -2.101191	 4.109852
H	 -2.834449	 -0.386955	 3.914551
H	 -4.889065	 -1.443028	 4.835671
H	 -4.990453	 -2.506236	 3.444262
H	 -5.223768	 -0.779138	 3.246930
C	 4.728119	 -1.109107	 -0.004993
H	 4.882018	 -1.033965	 -1.071845
H	 5.068212	 -2.067527	 0.355250
H	 5.265056	 -0.311663	 0.488280

	symmetry c1
}
set optking {
	frozen_dihedral = ("
		21 17 14 11,
		17 14 11 15,
		15 11 8 5,
		6 3 5 9,
		11 8 5 9,
		2 4 26 27,
		1 2 4 26
	")
}

ee = energy('scf')
oeprop('DIPOLE', 'QUADRUPOLE', 'MULLIKEN_CHARGES')
f=open( 'psi4out.xyz', 'w' )
f.write( "29  " )
f.write( str(ee) + "\n" )
f.write( MOL.save_string_xyz() )
f.close()
--------------------------------------------------------------------------

    Molecular point group: c1

    Geometry (in Angstrom), charge = 0, multiplicity = 1:

       Center              X                  Y                   Z               Mass
    ------------   -----------------  -----------------  -----------------  -----------------
           O          2.901602770422     1.839446008547    -1.643294659840    15.994914619560
           C          2.376812770422     0.926976008547    -1.090977659840    12.000000000000
           C          0.920999770422     0.855248008547    -0.698227659840    12.000000000000
           O          3.023526770422    -0.177294991453    -0.738874659840    15.994914619560
           C          0.280209770422    -0.494425991453    -1.014272659840    12.000000000000
           H          0.864226770422     1.095077008547     0.358393340160     1.007825032070
           H          0.407147770422     1.662563008547    -1.213878659840     1.007825032070
           C         -1.222472229578    -0.548555991453    -0.718448659840    12.000000000000
           H          0.792835770422    -1.273740991453    -0.458392659840     1.007825032070
           H          0.444036770422    -0.717804991453    -2.062930659840     1.007825032070
           C         -1.593076229578    -0.434883991453     0.763051340160    12.000000000000
           H         -1.607401229578    -1.490807991453    -1.101481659840     1.007825032070
           H         -1.730770229578     0.234706008547    -1.278931659840     1.007825032070
           C         -3.092492229578    -0.604542991453     1.015963340160    12.000000000000
           H         -1.045797229578    -1.188351991453     1.327489340160     1.007825032070
           H         -1.277832229578     0.529378008547     1.155217340160     1.007825032070
           C         -3.475172229578    -0.487648991453     2.492453340160    12.000000000000
           H         -3.413680229578    -1.573679991453     0.638013340160     1.007825032070
           H         -3.640969229578     0.141812008547     0.443401340160     1.007825032070
           C         -4.973683229578    -0.662080991453     2.736867340160    12.000000000000
           H         -2.927226229578    -1.232099991453     3.066204340160     1.007825032070
           H         -3.158825229578     0.482136008547     2.870903340160     1.007825032070
           H         -5.213441229578    -0.573936991453     3.792023340160     1.007825032070
           H         -5.314829229578    -1.637144991453     2.400614340160     1.007825032070
           H         -5.548144229578     0.089953008547     2.203282340160     1.007825032070
           C          4.403742770422    -0.240015991453    -1.048640659840    12.000000000000
           H          4.557641770422    -0.164873991453    -2.115492659840     1.007825032070
           H          4.743835770422    -1.198435991453    -0.688397659840     1.007825032070
           H          4.940679770422     0.557428008547    -0.555367659840     1.007825032070

  Charge       = 0
  Multiplicity = 1
  Basis Set: 6-31G*
  Basis Set:

    Orbital Energies (a.u.)
    -----------------------

    Doubly Occupied:

       1A    -20.604195     2A    -20.543592     3A    -11.371377
       4A    -11.280869     5A    -11.233786     6A    -11.224881
       7A    -11.220324     8A    -11.217804     9A    -11.216861
      10A    -11.215798    11A    -11.209809    12A     -1.469119
      13A     -1.361535    14A     -1.101078    15A     -1.069305
      16A     -1.019735    17A     -0.973607    18A     -0.931399
      19A     -0.865155    20A     -0.800066    21A     -0.791160
      22A     -0.773165    23A     -0.697962    24A     -0.680725
      25A     -0.671410    26A     -0.652339    27A     -0.628959
      28A     -0.606426    29A     -0.589208    30A     -0.574994
      31A     -0.572503    32A     -0.544854    33A     -0.540535
      34A     -0.533157    35A     -0.520197    36A     -0.514755
      37A     -0.500399    38A     -0.478941    39A     -0.472560
      40A     -0.463841    41A     -0.462083    42A     -0.455199
      43A     -0.446367    44A     -0.426491

  @DF-RHF Final Energy:  -501.04201531855961

   => Energetics <=

    Nuclear Repulsion Energy =            614.1162369361170477
    One-Electron Energy =               -1899.2594107653023912
    Two-Electron Energy =                 784.1011585106257371
    DFT Exchange-Correlation Energy =       0.0000000000000000
    Empirical Dispersion Energy =           0.0000000000000000
    PCM Polarization Energy =               0.0000000000000000
    EFP Energy =                            0.0000000000000000
    Total Energy =                       -501.0420153185596064

  Mulliken Charges: (a.u.)
   Center  Symbol    Alpha    Beta     Spin     Total
       1     O     4.28714  4.28714  0.00000 -0.57428
       2     C     2.60995  2.60995  0.00000  0.78010
       3     C     3.20492  3.20492  0.00000 -0.40984
       4     O     4.30222  4.30222  0.00000 -0.60444
       5     C     3.16067  3.16067  0.00000 -0.32134
       6     H     0.40044  0.40044  0.00000  0.19912
       7     H     0.39961  0.39961  0.00000  0.20078
       8     C     3.15572  3.15572  0.00000 -0.31143
       9     H     0.40731  0.40731  0.00000  0.18538
      10     H     0.41551  0.41551  0.00000  0.16898
      11     C     3.15507  3.15507  0.00000 -0.31015
      12     H     0.41874  0.41874  0.00000  0.16252
      13     H     0.42190  0.42190  0.00000  0.15620
      14     C     3.15049  3.15049  0.00000 -0.30098
      15     H     0.42253  0.42253  0.00000  0.15494
      16     H     0.42284  0.42284  0.00000  0.15432
      17     C     3.15157  3.15157  0.00000 -0.30314
      18     H     0.42353  0.42353  0.00000  0.15294
      19     H     0.42337  0.42337  0.00000  0.15326
      20     C     3.23942  3.23942  0.00000 -0.47884
      21     H     0.42291  0.42291  0.00000  0.15418
      22     H     0.42302  0.42302  0.00000  0.15397
      23     H     0.41903  0.41903  0.00000  0.16194
      24     H     0.42166  0.42166  0.00000  0.15668
      25     H     0.42153  0.42153  0.00000  0.15693
      26     C     3.09225  3.09225  0.00000 -0.18451
      27     H     0.40878  0.40878  0.00000  0.18244
      28     H     0.40895  0.40895  0.00000  0.18210
      29     H     0.40891  0.40891  0.00000  0.18219

   Total alpha = 44.00000, Total beta = 44.00000, Total charge =  0.00000
