                              Psi4 1.0.54 Driver

  ==> Input File <==

--------------------------------------------------------------------------
set {
	reference rhf
	basis cc-pvtz
}

set_num_threads( 4 )
memory 2 gb

molecule MOL {
0 1

H	 2.158259	 -0.040747	 -1.032729
O	 1.675515	 -0.612943	 -0.465627
C	 1.135873	 0.113391	 0.608264
C	 0.027642	 1.012027	 0.090274
H	 1.902972	 0.727968	 1.072615
H	 0.756163	 -0.561896	 1.370018
C	 -1.138737	 0.285728	 -0.581921
H	 0.464661	 1.708096	 -0.618252
H	 -0.340737	 1.603071	 0.925246
C	 -1.933983	 -0.631436	 0.343653
H	 -0.763151	 -0.285569	 -1.422081
H	 -1.808359	 1.035291	 -0.992333
H	 -2.789188	 -1.049673	 -0.174718
H	 -1.335629	 -1.461368	 0.700418
H	 -2.305435	 -0.092167	 1.209725

	symmetry c1
}
set optking {
	frozen_dihedral = ("
		1 2 3 4
	")
}

ee,wfn = optimize('scf', return_wfn=True)
oeprop( wfn, 'DIPOLE', 'QUADRUPOLE', 'MULLIKEN_CHARGES')
f=open( 'psi4out.xyz', 'w' )
f.write( "15  " )
f.write( str(ee) + "\n" )
f.write( MOL.save_string_xyz() )
f.close()
--------------------------------------------------------------------------

    Molecular point group: c1
  Charge       = 0
  Multiplicity = 1
  Basis Set: CC-PVTZ
  Basis Set:
  @DF-RHF Final Energy:  -232.23562767597880
    Total Energy =                       -232.2356276759788898
    Molecular point group: c1
  Basis Set: CC-PVTZ
  Basis Set:
  Basis Set: CC-PVTZ
  Basis Set:
  @DF-RHF Final Energy:  -232.09579131700394
    Total Energy =                       -232.0957913170040285
  Basis Set: CC-PVTZ
  Basis Set:
  Basis Set: CC-PVTZ
  Basis Set:
  @DF-RHF Final Energy:  -232.19720547633815
    Total Energy =                       -232.1972054763381266
  Basis Set: CC-PVTZ
  Basis Set:
  Basis Set: CC-PVTZ
  Basis Set:
  @DF-RHF Final Energy:  -232.23559243797772
    Total Energy =                       -232.2355924379778003
  Basis Set: CC-PVTZ
  Basis Set:
  @DF-RHF Final Energy:  -232.23690626728333
    Total Energy =                       -232.2369062672833593
  Basis Set: CC-PVTZ
  Basis Set:
  @DF-RHF Final Energy:  -232.23729203149188
    Total Energy =                       -232.2372920314918474
  Basis Set: CC-PVTZ
  Basis Set:
  Basis Set: CC-PVTZ
  Basis Set:
  @DF-RHF Final Energy:  -232.23731201570604
    Total Energy =                       -232.2373120157061521
  Basis Set: CC-PVTZ
  Basis Set:
  Basis Set: CC-PVTZ
  Basis Set:
  @DF-RHF Final Energy:  -232.23731878445739
    Total Energy =                       -232.2373187844572726
  Basis Set: CC-PVTZ
  Basis Set:
  Charge       = 0
  Multiplicity = 1
  Basis Set: CC-PVTZ
  Basis Set:

    Orbital Energies (a.u.)
    -----------------------

    Doubly Occupied:

       1A    -20.546787     2A    -11.265332     3A    -11.215147
       4A    -11.211494     5A    -11.204619     6A     -1.364487
       7A     -1.067496     8A     -0.971853     9A     -0.876089
      10A     -0.788118    11A     -0.684620    12A     -0.641574
      13A     -0.630973    14A     -0.581435    15A     -0.565008
      16A     -0.538973    17A     -0.505939    18A     -0.487535
      19A     -0.471390    20A     -0.455438    21A     -0.429692

  @DF-RHF Final Energy:  -232.23732356919939

   => Energetics <=

    Nuclear Repulsion Energy =            191.5566050481540685
    One-Electron Energy =                -694.5798603806633764
    Two-Electron Energy =                 270.7859317633098044
    DFT Exchange-Correlation Energy =       0.0000000000000000
    Empirical Dispersion Energy =           0.0000000000000000
    PCM Polarization Energy =               0.0000000000000000
    EFP Energy =                            0.0000000000000000
    Total Energy =                       -232.2373235691994751
    Molecular point group: c1
  Basis Set: CC-PVTZ
  Basis Set:

  -Total Gradient:
     Atom            X                  Y                   Z
    ------   -----------------  -----------------  -----------------
       1        0.000357614270     0.000101727711     0.000421001963
       2       -0.000534494809    -0.000234254962    -0.000485190820
       3        0.000419284120     0.000418236554    -0.000017768269
       4       -0.000200194288    -0.000269622738     0.000074270140
       5       -0.000006667668    -0.000002144768     0.000004821802
       6        0.000000917326     0.000008547713    -0.000005711300
       7       -0.000005966134     0.000024785054     0.000036060860
       8        0.000036509713     0.000035245352     0.000010749588
       9        0.000011561451    -0.000017693724    -0.000007859677
      10       -0.000036214962    -0.000026511353    -0.000012485538
      11       -0.000005609163     0.000006870103     0.000002312040
      12       -0.000015307516    -0.000015584757    -0.000009786649
      13       -0.000031401147    -0.000027922912     0.000015545988
      14       -0.000003552105     0.000006464890    -0.000014776946
      15        0.000013520917    -0.000008142165    -0.000011183184

  **** Optimization is complete! (in 9 steps) ****
    Final optimized geometry and variables:
    Molecular point group: c1

    Geometry (in Angstrom), charge = 0, multiplicity = 1:

    H            2.406862699402    -0.037661695986    -0.302629232215
    O            1.806615758876    -0.463518630984     0.281956808372
    C            0.896223750817     0.471372478016     0.798895206330
    C           -0.093383241586     0.981844233953    -0.239703478069
    H            1.424786347347     1.313024666561     1.238930043918
    H            0.379786288403    -0.032408397608     1.604007785309
    C           -0.942588889264    -0.096884033450    -0.913970245626
    H            0.458326253550     1.525036241260    -1.004227317634
    H           -0.740728397079     1.710920527303     0.242414324573
    C           -1.903943251453    -0.822322136655     0.024033167402
    H           -0.288793335622    -0.819862521899    -1.387716498357
    H           -1.514447125597     0.370403425489    -1.709738085224
    H           -2.524738875735    -1.518307681660    -0.528273040898
    H           -1.376772652033    -1.390135497459     0.780959735562
    H           -2.562698186342    -0.123004062373     0.529541345018

  Mulliken Charges: (a.u.)
   Center  Symbol    Alpha    Beta     Spin     Total
       1     H     0.39445  0.39445  0.00000  0.21111
       2     O     4.20454  4.20454  0.00000 -0.40907
       3     C     2.98113  2.98113  0.00000  0.03774
       4     C     3.10420  3.10420  0.00000 -0.20840
       5     H     0.45890  0.45890  0.00000  0.08220
       6     H     0.45642  0.45642  0.00000  0.08716
       7     C     3.08126  3.08126  0.00000 -0.16252
       8     H     0.45391  0.45391  0.00000  0.09219
       9     H     0.45425  0.45425  0.00000  0.09149
      10     C     3.15485  3.15485  0.00000 -0.30970
      11     H     0.45123  0.45123  0.00000  0.09755
      12     H     0.45043  0.45043  0.00000  0.09914
      13     H     0.44674  0.44674  0.00000  0.10652
      14     H     0.45100  0.45100  0.00000  0.09801
      15     H     0.45670  0.45670  0.00000  0.08660

   Total alpha = 21.00000, Total beta = 21.00000, Total charge = -0.00000

*** Psi4 exiting successfully. Buy a developer a beer!
