                              Psi4 1.0.54 Driver

  ==> Input File <==

--------------------------------------------------------------------------
set {
	reference rhf
	basis cc-pvtz
}

set_num_threads( 4 )
memory 2 gb

molecule MOL {
0 1

H	 3.029888	 -2.290564	 -2.246242
C	 2.816782	 -1.859790	 -1.275095
C	 1.552628	 -1.008485	 -1.318058
H	 2.715258	 -2.676072	 -0.567695
H	 3.679108	 -1.271948	 -0.978694
C	 1.215950	 -0.382441	 0.027187
H	 0.709722	 -1.608675	 -1.642167
H	 1.674117	 -0.221016	 -2.058133
N	 0.000002	 0.398953	 -0.040851
H	 1.069917	 -1.168698	 0.761792
H	 2.067982	 0.209452	 0.374731
C	 -1.215959	 -0.382435	 0.027143
H	 -0.000012	 1.086078	 0.683841
C	 -2.451944	 0.502410	 -0.038737
H	 -1.221867	 -1.069392	 -0.813828
H	 -1.259993	 -0.999709	 0.929424
C	 -3.752217	 -0.292550	 0.005776
H	 -2.407325	 1.093801	 -0.946480
H	 -2.431979	 1.206234	 0.790023
H	 -3.817783	 -0.982946	 -0.828547
H	 -4.612613	 0.364348	 -0.042306
H	 -3.830160	 -0.871666	 0.919868

	symmetry c1
}
set optking {
	frozen_dihedral = ("
		10 6 9 12
	")
}

ee,wfn = optimize('scf', return_wfn=True)
oeprop( wfn, 'DIPOLE', 'QUADRUPOLE', 'MULLIKEN_CHARGES')
f=open( 'psi4out.xyz', 'w' )
f.write( "22  " )
f.write( str(ee) + "\n" )
f.write( MOL.save_string_xyz() )
f.close()
--------------------------------------------------------------------------

    Molecular point group: c1
  Charge       = 0
  Multiplicity = 1
  Basis Set: CC-PVTZ
  Basis Set:
  @DF-RHF Final Energy:  -290.48637404872045
    Total Energy =                       -290.4863740487203358
    Molecular point group: c1
  Basis Set: CC-PVTZ
  Basis Set:
  Basis Set: CC-PVTZ
  Basis Set:
  @DF-RHF Final Energy:  -290.48774766432194
    Total Energy =                       -290.4877476643220575
  Basis Set: CC-PVTZ
  Basis Set:
  Basis Set: CC-PVTZ
  Basis Set:
  @DF-RHF Final Energy:  -290.48804423332831
    Total Energy =                       -290.4880442333282531
  Basis Set: CC-PVTZ
  Basis Set:
  Basis Set: CC-PVTZ
  Basis Set:
  @DF-RHF Final Energy:  -290.48804930245331
    Total Energy =                       -290.4880493024533052
  Basis Set: CC-PVTZ
  Basis Set:
  Charge       = 0
  Multiplicity = 1
  Basis Set: CC-PVTZ
  Basis Set:

    Orbital Energies (a.u.)
    -----------------------

    Doubly Occupied:

       1A    -15.528331     2A    -11.237008     3A    -11.236099
       4A    -11.212144     5A    -11.207815     6A    -11.207261
       7A    -11.205501     8A     -1.205666     9A     -1.057872
      10A     -1.027351    11A     -0.929082    12A     -0.873250
      13A     -0.808138    14A     -0.788905    15A     -0.663088
      16A     -0.642049    17A     -0.617286    18A     -0.604893
      19A     -0.578562    20A     -0.554500    21A     -0.549127
      22A     -0.523863    23A     -0.501037    24A     -0.489402
      25A     -0.481464    26A     -0.472442    27A     -0.461599
      28A     -0.456099    29A     -0.360829

  @DF-RHF Final Energy:  -290.48804951409988

   => Energetics <=

    Nuclear Repulsion Energy =            316.9785826122872550
    One-Electron Energy =               -1019.9719360403100836
    Two-Electron Energy =                 412.5053039139230009
    DFT Exchange-Correlation Energy =       0.0000000000000000
    Empirical Dispersion Energy =           0.0000000000000000
    PCM Polarization Energy =               0.0000000000000000
    EFP Energy =                            0.0000000000000000
    Total Energy =                       -290.4880495140998278
    Molecular point group: c1
  Basis Set: CC-PVTZ
  Basis Set:

  -Total Gradient:
     Atom            X                  Y                   Z
    ------   -----------------  -----------------  -----------------
       1        0.000000897139    -0.000002878221    -0.000001502783
       2       -0.000008264349    -0.000006984709    -0.000008026983
       3        0.000008620984     0.000033775678     0.000017821531
       4       -0.000002895712     0.000002991450     0.000003047541
       5       -0.000006546412     0.000002535004    -0.000002730707
       6        0.000226172332     0.000371479554     0.000629293330
       7        0.000006344531    -0.000000466783     0.000004250114
       8        0.000002274326    -0.000002179292    -0.000013832290
       9       -0.000055299625    -0.000120983504    -0.000652386300
      10       -0.000182307322    -0.000301724897    -0.000349338459
      11       -0.000002514568     0.000000909231    -0.000006163362
      12        0.000018847429     0.000032537843     0.000392753054
      13        0.000005537922     0.000002677160    -0.000003573137
      14        0.000001762223    -0.000006552700    -0.000007373957
      15       -0.000006038761    -0.000001676884    -0.000001158906
      16       -0.000002698790     0.000000025722    -0.000002528800
      17       -0.000005626462     0.000001430890     0.000001032323
      18       -0.000000100689    -0.000000499087     0.000000895979
      19        0.000003584433    -0.000005344317    -0.000000924031
      20        0.000001397909     0.000001094434     0.000000654237
      21       -0.000003682710    -0.000000782947     0.000000503089
      22        0.000000536172     0.000000616373    -0.000000711483

  **** Optimization is complete! (in 5 steps) ****
    Final optimized geometry and variables:
    Molecular point group: c1

    Geometry (in Angstrom), charge = 0, multiplicity = 1:

    H            3.430159291336    -1.703000030270    -1.922380193861
    C            3.165350917242    -1.323867926760    -0.942386329612
    C            1.860777161636    -0.535584782125    -0.992148208023
    H            3.088464570871    -2.172802408124    -0.270885330061
    H            3.986284243105    -0.704094271969    -0.596360624376
    C            1.463403070885     0.021354615638     0.370491554204
    H            1.071060719850    -1.174709694519    -1.372844377266
    H            1.950551502042     0.291716335136    -1.687492238784
    N            0.237130820664     0.796831043461     0.325594616198
    H            1.395931149622    -0.801351535217     1.087157140868
    H            2.256878415569     0.673356010455     0.719679945852
    C           -0.987173739888     0.025803458692     0.396006895621
    H            0.241815712675     1.470541918030     1.060241688467
    C           -2.211489558242     0.928939555027     0.370003187137
    H           -1.026098710501    -0.645352134650    -0.454648532901
    H           -1.020662651264    -0.605155034742     1.289125528783
    C           -3.521856402707     0.151790661285     0.429541611424
    H           -2.177538178119     1.534120321969    -0.529055245452
    H           -2.163923526783     1.619111736166     1.209105454525
    H           -3.614772713057    -0.524473066576    -0.413713166958
    H           -4.373443110563     0.821524211616     0.409554346367
    H           -3.589144290986    -0.440269780739     1.336152614366

  Mulliken Charges: (a.u.)
   Center  Symbol    Alpha    Beta     Spin     Total
       1     H     0.44776  0.44776  0.00000  0.10448
       2     C     3.15378  3.15378  0.00000 -0.30756
       3     C     3.07450  3.07450  0.00000 -0.14900
       4     H     0.45580  0.45580  0.00000  0.08840
       5     H     0.45542  0.45542  0.00000  0.08916
       6     C     3.03870  3.03870  0.00000 -0.07739
       7     H     0.45690  0.45690  0.00000  0.08621
       8     H     0.45171  0.45171  0.00000  0.09657
       9     N     3.63961  3.63961  0.00000 -0.27922
      10     H     0.47156  0.47156  0.00000  0.05687
      11     H     0.45353  0.45353  0.00000  0.09295
      12     C     3.02325  3.02325  0.00000 -0.04651
      13     H     0.44397  0.44397  0.00000  0.11205
      14     C     3.08198  3.08198  0.00000 -0.16396
      15     H     0.45809  0.45809  0.00000  0.08382
      16     H     0.47339  0.47339  0.00000  0.05323
      17     C     3.15328  3.15328  0.00000 -0.30657
      18     H     0.44880  0.44880  0.00000  0.10240
      19     H     0.45934  0.45934  0.00000  0.08132
      20     H     0.45479  0.45479  0.00000  0.09043
      21     H     0.44768  0.44768  0.00000  0.10465
      22     H     0.45616  0.45616  0.00000  0.08768

   Total alpha = 29.00000, Total beta = 29.00000, Total charge =  0.00000

*** Psi4 exiting successfully. Buy a developer a beer!
