  ==> Input File <==

--------------------------------------------------------------------------
set {
	reference rhf
	basis 6-31G*
}

set_num_threads( 4 )
memory 2 gb

molecule MOL {
0 1

H	 3.892093	 0.329437	 0.113932
N	 3.092854	 -0.246221	 -0.068770
C	 1.865559	 0.531981	 0.018834
H	 3.096913	 -0.974167	 0.620366
C	 0.645745	 -0.382037	 -0.029944
H	 1.841966	 1.207024	 -0.831236
H	 1.815756	 1.155410	 0.915079
C	 -0.679275	 0.379305	 0.025956
H	 0.698998	 -0.976915	 -0.937203
H	 0.693479	 -1.083846	 0.802235
C	 -1.903357	 -0.536963	 -0.023547
H	 -0.726309	 1.082987	 -0.803784
H	 -0.717680	 0.977832	 0.934877
C	 -3.225172	 0.228290	 0.028445
H	 -1.867824	 -1.134999	 -0.931459
H	 -1.860449	 -1.239604	 0.805977
H	 -3.313397	 0.915643	 -0.808262
H	 -4.073500	 -0.448134	 -0.008893
H	 -3.306061	 0.809945	 0.942516

	symmetry c1
}
set optking {
	frozen_dihedral = ("
		1 2 3 6
	")
}

ee = optimize('scf')
oeprop('DIPOLE', 'QUADRUPOLE', 'MULLIKEN_CHARGES')
f=open( 'psi4out.xyz', 'w' )
f.write( "19  " )
f.write( str(ee) + "\n" )
f.write( MOL.save_string_xyz() )
f.close()
--------------------------------------------------------------------------

    Molecular point group: c1
  Charge       = 0
  Multiplicity = 1
  Basis Set: 6-31G*
  Basis Set:
  @DF-RHF Final Energy:  -251.35125876129786
    Total Energy =                       -251.3512587612980269
    Molecular point group: c1
  Basis Set: 6-31G*
  Basis Set:
  Basis Set: 6-31G*
  Basis Set:
  @DF-RHF Final Energy:  -251.35130604527879
    Total Energy =                       -251.3513060452789318
  Basis Set: 6-31G*
  Basis Set:
  Basis Set: 6-31G*
  Basis Set:
  @DF-RHF Final Energy:  -251.35131340776289
    Total Energy =                       -251.3513134077629161
  Basis Set: 6-31G*
  Basis Set:
  Basis Set: 6-31G*
  Basis Set:
  @DF-RHF Final Energy:  -251.35131588847705
    Total Energy =                       -251.3513158884770746
  Basis Set: 6-31G*
  Basis Set:
  Charge       = 0
  Multiplicity = 1
  Basis Set: 6-31G*
  Basis Set:

    Orbital Energies (a.u.)
    -----------------------

    Doubly Occupied:

       1A    -15.532621     2A    -11.239620     3A    -11.214843
       4A    -11.213884     5A    -11.211710     6A    -11.208122
       7A     -1.176961     8A     -1.073919     9A     -0.999146
      10A     -0.900628    11A     -0.814119    12A     -0.790759
      13A     -0.660041    14A     -0.645130    15A     -0.617012
      16A     -0.591263    17A     -0.564338    18A     -0.546090
      19A     -0.534315    20A     -0.497342    21A     -0.483284
      22A     -0.466096    23A     -0.462383    24A     -0.448654
      25A     -0.382586

  @DF-RHF Final Energy:  -251.35131603593948

   => Energetics <=

    Nuclear Repulsion Energy =            245.7357662823990836
    One-Electron Energy =                -825.6244309430016983
    Two-Electron Energy =                 328.5373486246630819
    DFT Exchange-Correlation Energy =       0.0000000000000000
    Empirical Dispersion Energy =           0.0000000000000000
    PCM Polarization Energy =               0.0000000000000000
    EFP Energy =                            0.0000000000000000
    Total Energy =                       -251.3513160359395897
    Molecular point group: c1
  Basis Set: 6-31G*
  Basis Set:

  -Total Gradient:
     Atom            X                  Y                   Z
    ------   -----------------  -----------------  -----------------
       1       -0.000071103026    -0.000410371288     0.001971228003
       2       -0.000104861918     0.000289001166    -0.002696403350
       3        0.001074887302     0.001466164962     0.001705426955
       4       -0.000009553134    -0.000050537688     0.000014661553
       5       -0.000020017638    -0.000044200371     0.000006347216
       6       -0.000875394067    -0.001283832506    -0.000962810985
       7        0.000010645781     0.000021576197    -0.000019251818
       8        0.000002016033     0.000009257370    -0.000012863302
       9        0.000002538465     0.000000888107     0.000011009552
      10        0.000003185580    -0.000011024416    -0.000010635653
      11        0.000003779782    -0.000000081151     0.000000916250
      12       -0.000003512373     0.000006284279    -0.000012243583
      13       -0.000010626152     0.000007529329    -0.000007359121
      14       -0.000001096013    -0.000000979401     0.000014543078
      15       -0.000004324950     0.000007275496    -0.000002568127
      16        0.000003903700    -0.000007027884    -0.000004916876
      17        0.000003363966    -0.000002960909     0.000000684080
      18       -0.000000549913     0.000000107001     0.000002826735
      19       -0.000003281424     0.000002931709     0.000001409389

  **** Optimization is complete! (in 5 steps) ****
    Final optimized geometry and variables:
    Molecular point group: c1

    Geometry (in Angstrom), charge = 0, multiplicity = 1:

    H            3.894587971521     0.330779398656     0.088460466481
    N            3.093076638701    -0.245578789413    -0.084705339401
    C            1.867185268081     0.533762960847     0.029095090141
    H            3.110331727094    -0.962187014912     0.616952032883
    C            0.646878134752    -0.380433908960    -0.023407687390
    H            1.827384730184     1.215279828784    -0.815261875903
    H            1.825691519148     1.140959533476     0.936018033605
    C           -0.677998355676     0.381751860372     0.024557142922
    H            0.702595524831    -0.975919914325    -0.930456811129
    H            0.688836426353    -1.081093530712     0.810287025258
    C           -1.902124391611    -0.534521032987    -0.023887942994
    H           -0.721920665308     1.080971347961    -0.808835954785
    H           -0.718566829104     0.984675107146     0.930424410446
    C           -3.223704897036     0.231371160158     0.024075607284
    H           -1.865552058830    -1.135168893320    -0.929999594737
    H           -1.860659279469    -1.234669147408     0.807822317862
    H           -3.310846249256     0.915736524922    -0.815131565840
    H           -4.072161993026    -0.444991305445    -0.011734833376
    H           -3.305351815897     0.816222630828     0.936030893967

  Mulliken Charges: (a.u.)
   Center  Symbol    Alpha    Beta     Spin     Total
       1     H     0.33323  0.33323  0.00000  0.33354
       2     N     3.92127  3.92127  0.00000 -0.84254
       3     C     3.05732  3.05732  0.00000 -0.11463
       4     H     0.33617  0.33617  0.00000  0.32766
       5     C     3.15643  3.15643  0.00000 -0.31287
       6     H     0.42016  0.42016  0.00000  0.15968
       7     H     0.43464  0.43464  0.00000  0.13072
       8     C     3.15427  3.15427  0.00000 -0.30854
       9     H     0.41266  0.41266  0.00000  0.17468
      10     H     0.42796  0.42796  0.00000  0.14408
      11     C     3.15105  3.15105  0.00000 -0.30210
      12     H     0.42284  0.42284  0.00000  0.15432
      13     H     0.42452  0.42452  0.00000  0.15096
      14     C     3.23939  3.23939  0.00000 -0.47878
      15     H     0.42178  0.42178  0.00000  0.15645
      16     H     0.42332  0.42332  0.00000  0.15335
      17     H     0.42158  0.42158  0.00000  0.15683
      18     H     0.41924  0.41924  0.00000  0.16152
      19     H     0.42216  0.42216  0.00000  0.15568

   Total alpha = 25.00000, Total beta = 25.00000, Total charge =  0.00000
