  ==> Input File <==

--------------------------------------------------------------------------
set {
	reference rhf
	basis 6-31G*
}

set_num_threads( 4 )
memory 2 gb

molecule MOL {
0 1

O	 -2.821601	 1.309235	 -0.001213
C	 -2.668563	 0.129746	 -0.000350
C	 -3.801572	 -0.864014	 -0.000442
O	 -1.481751	 -0.454642	 0.000584
H	 -4.417280	 -0.689587	 -0.874708
H	 -3.443784	 -1.883046	 -0.000565
H	 -4.417179	 -0.689832	 0.873954
C	 -0.334255	 0.388708	 0.000906
C	 0.891947	 -0.504646	 0.000751
H	 -0.365390	 1.025305	 -0.873475
H	 -0.365484	 1.024911	 0.875569
C	 2.191998	 0.301789	 0.000897
H	 0.855148	 -1.151283	 -0.871571
H	 0.855132	 -1.151660	 0.872805
C	 3.441114	 -0.581407	 0.000108
H	 2.215074	 0.954890	 -0.869742
H	 2.215465	 0.953923	 0.872248
C	 3.196222	 -1.959224	 0.613716
H	 4.236676	 -0.078949	 0.545720
H	 3.797591	 -0.698554	 -1.020808
H	 2.870682	 -1.876320	 1.646753
H	 4.099203	 -2.561424	 0.599008
H	 2.428566	 -2.500706	 0.068270

	symmetry c1
}
set optking {
	frozen_dihedral = ("
		19 15 12 16
	")
}

ee = optimize('scf')
oeprop('DIPOLE', 'QUADRUPOLE', 'MULLIKEN_CHARGES')
f=open( 'psi4out.xyz', 'w' )
f.write( "23  " )
f.write( str(ee) + "\n" )
f.write( MOL.save_string_xyz() )
f.close()
--------------------------------------------------------------------------

    Molecular point group: c1
  Charge       = 0
  Multiplicity = 1
  Basis Set: 6-31G*
  Basis Set:
  @DF-RHF Final Energy:  -422.97019569851631
    Total Energy =                       -422.9701956985162496
    Molecular point group: c1
  Basis Set: 6-31G*
  Basis Set:
  Basis Set: 6-31G*
  Basis Set:
  @DF-RHF Final Energy:  -422.97077779531958
    Total Energy =                       -422.9707777953194636
  Basis Set: 6-31G*
  Basis Set:
  Basis Set: 6-31G*
  Basis Set:
  @DF-RHF Final Energy:  -422.97283532766329
    Total Energy =                       -422.9728353276634607
  Basis Set: 6-31G*
  Basis Set:
  Basis Set: 6-31G*
  Basis Set:
  @DF-RHF Final Energy:  -422.97303483114854
    Total Energy =                       -422.9730348311487660
  Basis Set: 6-31G*
  Basis Set:
  Basis Set: 6-31G*
  Basis Set:
  @DF-RHF Final Energy:  -422.97287287493242
    Total Energy =                       -422.9728728749328184
  Basis Set: 6-31G*
  Basis Set:
  Basis Set: 6-31G*
  Basis Set:
  @DF-RHF Final Energy:  -422.97298478068217
    Total Energy =                       -422.9729847806818270
  Basis Set: 6-31G*
  Basis Set:
  Basis Set: 6-31G*
  Basis Set:
  @DF-RHF Final Energy:  -422.97305965833294
    Total Energy =                       -422.9730596583340230
  Basis Set: 6-31G*
  Basis Set:
  Charge       = 0
  Multiplicity = 1
  Basis Set: 6-31G*
  Basis Set:

    Orbital Energies (a.u.)
    -----------------------

    Doubly Occupied:

       1A    -20.602821     2A    -20.540404     3A    -11.373958
       4A    -11.281180     5A    -11.232298     6A    -11.224731
       7A    -11.223291     8A    -11.222374     9A    -11.212635
      10A     -1.467802    11A     -1.360594    12A     -1.092750
      13A     -1.039828    14A     -1.001244    15A     -0.930728
      16A     -0.857526    17A     -0.789257    18A     -0.768794
      19A     -0.691947    20A     -0.684403    21A     -0.669846
      22A     -0.643674    23A     -0.609500    24A     -0.602154
      25A     -0.573959    26A     -0.568486    27A     -0.548313
      28A     -0.536927    29A     -0.528603    30A     -0.505949
      31A     -0.499480    32A     -0.467932    33A     -0.467287
      34A     -0.463192    35A     -0.451170    36A     -0.435063

  @DF-RHF Final Energy:  -422.97305988739959

   => Energetics <=

    Nuclear Repulsion Energy =            455.2664933946741712
    One-Electron Energy =               -1478.1389100948526902
    Two-Electron Energy =                 599.8993568127788194
    DFT Exchange-Correlation Energy =       0.0000000000000000
    Empirical Dispersion Energy =           0.0000000000000000
    PCM Polarization Energy =               0.0000000000000000
    EFP Energy =                            0.0000000000000000
    Total Energy =                       -422.9730598873996996
    Molecular point group: c1
  Basis Set: 6-31G*
  Basis Set:

  -Total Gradient:
     Atom            X                  Y                   Z
    ------   -----------------  -----------------  -----------------
       1       -0.000007109524    -0.000003865586    -0.000000920616
       2        0.000010777932     0.000016737439     0.000011612321
       3        0.000006932165     0.000000841498    -0.000003247577
       4        0.000023801198    -0.000013329505    -0.000008488105
       5        0.000001934733    -0.000000641770    -0.000000975234
       6        0.000001043989    -0.000000448940    -0.000000631099
       7        0.000002033642     0.000002938733    -0.000000454981
       8       -0.000014401057     0.000005936532    -0.000045470050
       9        0.000007581910    -0.000061990982     0.000098321787
      10       -0.000002951368     0.000008732303     0.000000224239
      11       -0.000001538233    -0.000011660914     0.000006250039
      12        0.003424098640     0.004628845468     0.005022914783
      13        0.000033805294    -0.000038564187    -0.000001944606
      14       -0.000016045052     0.000012141345     0.000014365035
      15        0.001174980680     0.002590045871    -0.007143005635
      16       -0.003024619912    -0.004317981035    -0.003199065108
      17        0.000042289727    -0.000006763629     0.000008920823
      18       -0.000069238066    -0.000006893922    -0.000019291083
      19       -0.001543340748    -0.002827264676     0.005265507767
      20       -0.000008265069     0.000031984298    -0.000007486962
      21       -0.000020320834     0.000002627055     0.000011760660
      22       -0.000005712176     0.000001541545     0.000005930799
      23       -0.000015737858    -0.000012966942    -0.000014827196

  **** Optimization is complete! (in 8 steps) ****
    Final optimized geometry and variables:
    Molecular point group: c1

    Geometry (in Angstrom), charge = 0, multiplicity = 1:

    O           -2.644060512277     1.596514781764    -0.110124294642
    C           -2.515467751078     0.414224411363    -0.091753921126
    C           -3.668908153222    -0.555763796942    -0.093300642511
    O           -1.341324047779    -0.194601960506    -0.067631267044
    H           -4.270121727541    -0.380039932160    -0.977333840676
    H           -3.332515582717    -1.581916127965    -0.075866067975
    H           -4.291381592471    -0.357447045880     0.771040074494
    C           -0.176358653727     0.624634200053    -0.063789347791
    C            1.030576571537    -0.294585311703    -0.031911052347
    H           -0.182787754088     1.248599753412    -0.947730886467
    H           -0.206592397905     1.274715579797     0.800832088589
    C            2.339296056436     0.505438017821    -0.013707042568
    H            0.997492138728    -0.942746128468    -0.903432274880
    H            0.953156928427    -0.934589327747     0.840158407262
    C            3.629449598579    -0.340052251257    -0.096409869376
    H            2.311637308923     1.166619924933    -0.876486443380
    H            2.362071327410     1.129270957090     0.875525764550
    C            3.554059506118    -1.728383111121     0.548532624376
    H            4.418682389899     0.196640979537     0.422167081880
    H            3.933795874112    -0.447575430622    -1.132849005835
    H            3.267394856482    -1.665254720258     1.594527159669
    H            4.524961792676    -2.212118288548     0.505067804774
    H            2.844019888830    -2.377742749582     0.048250371594

  Mulliken Charges: (a.u.)
   Center  Symbol    Alpha    Beta     Spin     Total
       1     O     4.28398  4.28398  0.00000 -0.56795
       2     C     2.61535  2.61535  0.00000  0.76931
       3     C     3.28773  3.28773  0.00000 -0.57545
       4     O     4.31282  4.31282  0.00000 -0.62565
       5     H     0.39753  0.39753  0.00000  0.20494
       6     H     0.39990  0.39990  0.00000  0.20020
       7     H     0.39753  0.39753  0.00000  0.20495
       8     C     2.99500  2.99500  0.00000  0.01001
       9     C     3.16858  3.16858  0.00000 -0.33716
      10     H     0.41091  0.41091  0.00000  0.17819
      11     H     0.41089  0.41089  0.00000  0.17823
      12     C     3.16286  3.16286  0.00000 -0.32571
      13     H     0.41468  0.41468  0.00000  0.17064
      14     H     0.41169  0.41169  0.00000  0.17662
      15     C     3.15266  3.15266  0.00000 -0.30532
      16     H     0.41903  0.41903  0.00000  0.16195
      17     H     0.41877  0.41877  0.00000  0.16246
      18     C     3.24429  3.24429  0.00000 -0.48858
      19     H     0.41871  0.41871  0.00000  0.16258
      20     H     0.41928  0.41928  0.00000  0.16144
      21     H     0.42126  0.42126  0.00000  0.15748
      22     H     0.41789  0.41789  0.00000  0.16421
      23     H     0.41869  0.41869  0.00000  0.16263

   Total alpha = 36.00000, Total beta = 36.00000, Total charge =  0.00000
