  ==> Input File <==

--------------------------------------------------------------------------
set {
	reference rhf
	basis 6-31G*
}

set_num_threads( 1 )
memory 2 gb

molecule MOL {
0 1

O	 2.759774	 0.525455	 -1.138663
C	 2.701189	 0.057885	 -0.047330
C	 1.904834	 0.615384	 1.107573
O	 3.347903	 -1.046386	 0.304773
C	 1.131727	 1.882070	 0.747119
H	 1.249177	 -0.176710	 1.453829
H	 2.601799	 0.800630	 1.920974
C	 0.402469	 2.519034	 1.934954
H	 0.421316	 1.656150	 -0.042435
H	 1.825385	 2.602996	 0.328159
C	 -0.741855	 1.682061	 2.513842
H	 0.002524	 3.476830	 1.610308
H	 1.120006	 2.743575	 2.722819
C	 -1.507068	 2.406835	 3.622963
H	 -1.432183	 1.418278	 1.714039
H	 -0.357766	 0.743806	 2.907701
C	 -2.649624	 1.577900	 4.212508
H	 -1.906444	 3.341502	 3.232924
H	 -0.815352	 2.680379	 4.418200
C	 -3.411112	 2.310314	 5.316775
H	 -3.341255	 1.302847	 3.419013
H	 -2.251773	 0.645147	 4.606803
H	 -4.214146	 1.697465	 5.714467
H	 -3.851156	 3.231358	 4.944976
H	 -2.753075	 2.569085	 6.141578
C	 4.728119	 -1.109107	 -0.004993
H	 4.882018	 -1.033965	 -1.071845
H	 5.068212	 -2.067527	 0.355250
H	 5.265056	 -0.311663	 0.488280

	symmetry c1
}
set optking {
	frozen_dihedral = ("
		21 17 14 11,
		17 14 11 15,
		15 11 8 5,
		6 3 5 9,
		11 8 5 9,
		2 4 26 27,
		6 3 2 1
	")
}

ee = energy('scf')
oeprop('DIPOLE', 'QUADRUPOLE', 'MULLIKEN_CHARGES')
f=open( 'psi4out.xyz', 'w' )
f.write( "29  " )
f.write( str(ee) + "\n" )
f.write( MOL.save_string_xyz() )
f.close()
--------------------------------------------------------------------------

    Molecular point group: c1

    Geometry (in Angstrom), charge = 0, multiplicity = 1:

       Center              X                  Y                   Z               Mass
    ------------   -----------------  -----------------  -----------------  -----------------
           O          1.938174438029    -0.489494025469    -2.812715393451    15.994914619560
           C          1.879589438029    -0.957064025469    -1.721382393451    12.000000000000
           C          1.083234438029    -0.399565025469    -0.566479393451    12.000000000000
           O          2.526303438029    -2.061335025469    -1.369279393451    15.994914619560
           C          0.310127438029     0.867120974531    -0.926933393451    12.000000000000
           H          0.427577438029    -1.191659025469    -0.220223393451     1.007825032070
           H          1.780199438029    -0.214319025469     0.246921606549     1.007825032070
           C         -0.419130561971     1.504084974531     0.260901606549    12.000000000000
           H         -0.400283561971     0.641200974531    -1.716487393451     1.007825032070
           H          1.003785438029     1.588046974531    -1.345893393451     1.007825032070
           C         -1.563454561971     0.667111974531     0.839789606549    12.000000000000
           H         -0.819075561971     2.461880974531    -0.063744393451     1.007825032070
           H          0.298406438029     1.728625974531     1.048766606549     1.007825032070
           C         -2.328667561971     1.391885974531     1.948910606549    12.000000000000
           H         -2.253782561971     0.403328974531     0.039986606549     1.007825032070
           H         -1.179365561971    -0.271143025469     1.233648606549     1.007825032070
           C         -3.471223561971     0.562950974531     2.538455606549    12.000000000000
           H         -2.728043561971     2.326552974531     1.558871606549     1.007825032070
           H         -1.636951561971     1.665429974531     2.744147606549     1.007825032070
           C         -4.232711561971     1.295364974531     3.642722606549    12.000000000000
           H         -4.162854561971     0.287897974531     1.744960606549     1.007825032070
           H         -3.073372561971    -0.369802025469     2.932750606549     1.007825032070
           H         -5.035745561971     0.682515974531     4.040414606549     1.007825032070
           H         -4.672755561971     2.216408974531     3.270923606549     1.007825032070
           H         -3.574674561971     1.554135974531     4.467525606549     1.007825032070
           C          3.906519438029    -2.124056025469    -1.679045393451    12.000000000000
           H          4.060418438029    -2.048914025469    -2.745897393451     1.007825032070
           H          4.246612438029    -3.082476025469    -1.318802393451     1.007825032070
           H          4.443456438029    -1.326612025469    -1.185772393451     1.007825032070

  Charge       = 0
  Multiplicity = 1
  Basis Set: 6-31G*
  Basis Set:

    Orbital Energies (a.u.)
    -----------------------

    Doubly Occupied:

       1A    -20.592797     2A    -20.549866     3A    -11.372796
       4A    -11.287077     5A    -11.235156     6A    -11.219000
       7A    -11.217888     8A    -11.216119     9A    -11.215916
      10A    -11.214619    11A    -11.209171    12A     -1.465854
      13A     -1.363892    14A     -1.098106    15A     -1.066404
      16A     -1.017950    17A     -0.978226    18A     -0.931917
      19A     -0.863050    20A     -0.800203    21A     -0.791073
      22A     -0.764002    23A     -0.700178    24A     -0.679155
      25A     -0.673571    26A     -0.650780    27A     -0.627683
      28A     -0.610750    29A     -0.595546    30A     -0.585594
      31A     -0.564996    32A     -0.554408    33A     -0.535782
      34A     -0.528967    35A     -0.518945    36A     -0.506178
      37A     -0.492958    38A     -0.478786    39A     -0.471917
      40A     -0.463030    41A     -0.461787    42A     -0.451483
      43A     -0.441512    44A     -0.431644

  @DF-RHF Final Energy:  -501.03221554332799

   => Energetics <=

    Nuclear Repulsion Energy =            610.6497466100915972
    One-Electron Energy =               -1892.3706665502643318
    Two-Electron Energy =                 780.6887043968442867
    DFT Exchange-Correlation Energy =       0.0000000000000000
    Empirical Dispersion Energy =           0.0000000000000000
    PCM Polarization Energy =               0.0000000000000000
    EFP Energy =                            0.0000000000000000
    Total Energy =                       -501.0322155433284479

  Mulliken Charges: (a.u.)
   Center  Symbol    Alpha    Beta     Spin     Total
       1     O     4.27307  4.27307  0.00000 -0.54615
       2     C     2.60615  2.60615  0.00000  0.78770
       3     C     3.21179  3.21179  0.00000 -0.42357
       4     O     4.31055  4.31055  0.00000 -0.62111
       5     C     3.15463  3.15463  0.00000 -0.30927
       6     H     0.39737  0.39737  0.00000  0.20526
       7     H     0.40537  0.40537  0.00000  0.18925
       8     C     3.15637  3.15637  0.00000 -0.31275
       9     H     0.41232  0.41232  0.00000  0.17536
      10     H     0.40981  0.40981  0.00000  0.18038
      11     C     3.15500  3.15500  0.00000 -0.31001
      12     H     0.41829  0.41829  0.00000  0.16341
      13     H     0.42462  0.42462  0.00000  0.15076
      14     C     3.15025  3.15025  0.00000 -0.30051
      15     H     0.42223  0.42223  0.00000  0.15554
      16     H     0.42368  0.42368  0.00000  0.15264
      17     C     3.15147  3.15147  0.00000 -0.30294
      18     H     0.42330  0.42330  0.00000  0.15341
      19     H     0.42423  0.42423  0.00000  0.15153
      20     C     3.23936  3.23936  0.00000 -0.47872
      21     H     0.42260  0.42260  0.00000  0.15479
      22     H     0.42341  0.42341  0.00000  0.15318
      23     H     0.41915  0.41915  0.00000  0.16170
      24     H     0.42153  0.42153  0.00000  0.15693
      25     H     0.42195  0.42195  0.00000  0.15610
      26     C     3.09504  3.09504  0.00000 -0.19008
      27     H     0.40258  0.40258  0.00000  0.19483
      28     H     0.40551  0.40551  0.00000  0.18898
      29     H     0.41833  0.41833  0.00000  0.16334

   Total alpha = 44.00000, Total beta = 44.00000, Total charge =  0.00000
