  ==> Input File <==

--------------------------------------------------------------------------
set {
	reference rhf
	basis 6-31G*
}

set_num_threads( 1 )
memory 2 gb

molecule MOL {
0 1

H	 2.650155	 -1.630488	 0.896544
O	 3.366769	 -1.524074	 0.288094
C	 3.094068	 -2.233635	 -0.893520
C	 2.019415	 -1.578175	 -1.753880
H	 4.028523	 -2.267493	 -1.438792
H	 2.815879	 -3.261820	 -0.664992
C	 0.640505	 -1.522205	 -1.091806
H	 2.344849	 -0.571971	 -2.004905
H	 1.949450	 -2.131535	 -2.688901
C	 -0.427600	 -0.908214	 -2.001193
H	 0.708798	 -0.946956	 -0.172681
H	 0.333248	 -2.529298	 -0.809498
C	 -1.845646	 -0.906169	 -1.418541
H	 -0.140534	 0.111134	 -2.252925
H	 -0.441707	 -1.459091	 -2.939295
C	 -2.037799	 -0.007733	 -0.193645
H	 -2.534300	 -0.583404	 -2.196611
H	 -2.132049	 -1.926074	 -1.166344
C	 -3.489788	 0.042957	 0.286558
H	 -1.704016	 1.001064	 -0.432449
H	 -1.409255	 -0.350935	 0.624553
C	 -4.216917	 1.317354	 -0.141063
H	 -4.025645	 -0.823308	 -0.095450
H	 -3.513059	 -0.038752	 1.371301
H	 -4.239342	 1.411634	 -1.223113
H	 -5.243387	 1.322503	 0.212445
H	 -3.726170	 2.201406	 0.256408

	symmetry c1
}
set optking {
	frozen_dihedral = ("
		14 10 7 4,
		14 10 13 16,
		10 7 4 8,
		8 4 3 2,
		10 13 16 20,
		4 3 2 1
	")
}

ee = energy('scf')
oeprop('DIPOLE', 'QUADRUPOLE', 'MULLIKEN_CHARGES')
f=open( 'psi4out.xyz', 'w' )
f.write( "27  " )
f.write( str(ee) + "\n" )
f.write( MOL.save_string_xyz() )
f.close()
--------------------------------------------------------------------------

    Molecular point group: c1

    Geometry (in Angstrom), charge = 0, multiplicity = 1:

       Center              X                  Y                   Z               Mass
    ------------   -----------------  -----------------  -----------------  -----------------
           H          2.924516575027    -0.812125254196     1.639744512251     1.007825032070
           O          3.641130575027    -0.705711254196     1.031294512251    15.994914619560
           C          3.368429575027    -1.415272254196    -0.150319487749    12.000000000000
           C          2.293776575027    -0.759812254196    -1.010679487749    12.000000000000
           H          4.302884575027    -1.449130254196    -0.695591487749     1.007825032070
           H          3.090240575027    -2.443457254196     0.078208512251     1.007825032070
           C          0.914866575027    -0.703842254196    -0.348605487749    12.000000000000
           H          2.619210575027     0.246391745804    -1.261704487749     1.007825032070
           H          2.223811575027    -1.313172254196    -1.945700487749     1.007825032070
           C         -0.153238424973    -0.089851254196    -1.257992487749    12.000000000000
           H          0.983159575027    -0.128593254196     0.570519512251     1.007825032070
           H          0.607609575027    -1.710935254196    -0.066297487749     1.007825032070
           C         -1.571284424973    -0.087806254196    -0.675340487749    12.000000000000
           H          0.133827575027     0.929496745804    -1.509724487749     1.007825032070
           H         -0.167345424973    -0.640728254196    -2.196094487749     1.007825032070
           C         -1.763437424973     0.810629745804     0.549555512251    12.000000000000
           H         -2.259938424973     0.234958745804    -1.453410487749     1.007825032070
           H         -1.857687424973    -1.107711254196    -0.423143487749     1.007825032070
           C         -3.215426424973     0.861319745804     1.029758512251    12.000000000000
           H         -1.429654424973     1.819426745804     0.310751512251     1.007825032070
           H         -1.134893424973     0.467427745804     1.367753512251     1.007825032070
           C         -3.942555424973     2.135716745804     0.602137512251    12.000000000000
           H         -3.751283424973    -0.004945254196     0.647750512251     1.007825032070
           H         -3.238697424973     0.779610745804     2.114501512251     1.007825032070
           H         -3.964980424973     2.229996745804    -0.479912487749     1.007825032070
           H         -4.969025424973     2.140865745804     0.955645512251     1.007825032070
           H         -3.451808424973     3.019768745804     0.999608512251     1.007825032070

  Charge       = 0
  Multiplicity = 1
  Basis Set: 6-31G*
  Basis Set:

    Orbital Energies (a.u.)
    -----------------------

    Doubly Occupied:

       1A    -20.552258     2A    -11.267020     3A    -11.219711
       4A    -11.216983     5A    -11.216029     6A    -11.215157
       7A    -11.214749     8A    -11.212990     9A    -11.209355
      10A     -1.359003    11A     -1.095459    12A     -1.061663
      13A     -1.010450    14A     -0.947315    15A     -0.890093
      16A     -0.823278    17A     -0.799615    18A     -0.776721
      19A     -0.693693    20A     -0.646936    21A     -0.634226
      22A     -0.616512    23A     -0.603154    24A     -0.590159
      25A     -0.579187    26A     -0.553897    27A     -0.539811
      28A     -0.527841    29A     -0.509568    30A     -0.490882
      31A     -0.485771    32A     -0.476031    33A     -0.469022
      34A     -0.460701    35A     -0.448252    36A     -0.439887
      37A     -0.422821

  @DF-RHF Final Energy:  -388.27691824684302

   => Energetics <=

    Nuclear Repulsion Energy =            460.5750798323767867
    One-Electron Energy =               -1439.1515935480558710
    Two-Electron Energy =                 590.2995954688367419
    DFT Exchange-Correlation Energy =       0.0000000000000000
    Empirical Dispersion Energy =           0.0000000000000000
    PCM Polarization Energy =               0.0000000000000000
    EFP Energy =                            0.0000000000000000
    Total Energy =                       -388.2769182468423423

  Mulliken Charges: (a.u.)
   Center  Symbol    Alpha    Beta     Spin     Total
       1     H     0.27991  0.27991  0.00000  0.44017
       2     O     4.37095  4.37095  0.00000 -0.74191
       3     C     2.99737  2.99737  0.00000  0.00526
       4     C     3.16087  3.16087  0.00000 -0.32174
       5     H     0.41445  0.41445  0.00000  0.17110
       6     H     0.43206  0.43206  0.00000  0.13588
       7     C     3.16315  3.16315  0.00000 -0.32630
       8     H     0.41497  0.41497  0.00000  0.17005
       9     H     0.42435  0.42435  0.00000  0.15130
      10     C     3.15242  3.15242  0.00000 -0.30484
      11     H     0.42292  0.42292  0.00000  0.15416
      12     H     0.42551  0.42551  0.00000  0.14899
      13     C     3.15548  3.15548  0.00000 -0.31095
      14     H     0.42158  0.42158  0.00000  0.15683
      15     H     0.42166  0.42166  0.00000  0.15667
      16     C     3.15558  3.15558  0.00000 -0.31115
      17     H     0.42103  0.42103  0.00000  0.15794
      18     H     0.42367  0.42367  0.00000  0.15266
      19     C     3.15460  3.15460  0.00000 -0.30920
      20     H     0.42133  0.42133  0.00000  0.15735
      21     H     0.42136  0.42136  0.00000  0.15729
      22     C     3.24005  3.24005  0.00000 -0.48010
      23     H     0.42086  0.42086  0.00000  0.15828
      24     H     0.42075  0.42075  0.00000  0.15850
      25     H     0.42193  0.42193  0.00000  0.15614
      26     H     0.42007  0.42007  0.00000  0.15987
      27     H     0.42113  0.42113  0.00000  0.15775

   Total alpha = 37.00000, Total beta = 37.00000, Total charge = -0.00000
