                              Psi4 1.0.54 Driver

  ==> Input File <==

--------------------------------------------------------------------------
set {
	reference rhf
	basis cc-pvtz
}

set_num_threads( 4 )
memory 2 gb

molecule MOL {
0 1

H	 -1.445479	 -0.324554	 0.437759
N	 -0.625934	 -0.663929	 -0.000707
C	 -0.663443	 -1.974945	 -0.604799
C	 0.468494	 0.129045	 -0.002160
H	 -0.893443	 -2.735289	 0.132063
H	 0.304904	 -2.181460	 -1.027587
H	 -1.406125	 -2.018718	 -1.392547
C	 1.785715	 -0.615093	 0.000603
O	 0.413285	 1.323206	 0.000532
H	 1.866994	 -1.243310	 -0.878792
H	 2.591506	 0.100263	 0.006422
H	 1.860358	 -1.250360	 0.875522

	symmetry c1
}
set optking {
	frozen_dihedral = ("
		3 2 4 9
	")
}

ee,wfn = optimize('scf', return_wfn=True)
oeprop( wfn, 'DIPOLE', 'QUADRUPOLE', 'MULLIKEN_CHARGES')
f=open( 'psi4out.xyz', 'w' )
f.write( "12  " )
f.write( str(ee) + "\n" )
f.write( MOL.save_string_xyz() )
f.close()
--------------------------------------------------------------------------

    Molecular point group: c1
  Charge       = 0
  Multiplicity = 1
  Basis Set: CC-PVTZ
  Basis Set:
  @DF-RHF Final Energy:  -247.08414016334029
    Total Energy =                       -247.0841401633400665
    Molecular point group: c1
  Basis Set: CC-PVTZ
  Basis Set:
  Basis Set: CC-PVTZ
  Basis Set:
  @DF-RHF Final Energy:  -247.08832092562383
    Total Energy =                       -247.0883209256238615
  Basis Set: CC-PVTZ
  Basis Set:
  Basis Set: CC-PVTZ
  Basis Set:
  @DF-RHF Final Energy:  -247.09284567522741
    Total Energy =                       -247.0928456752274087
  Basis Set: CC-PVTZ
  Basis Set:
  Basis Set: CC-PVTZ
  Basis Set:
  @DF-RHF Final Energy:  -247.09100986612066
    Total Energy =                       -247.0910098661206575
  Basis Set: CC-PVTZ
  Basis Set:
  @DF-RHF Final Energy:  -247.07622366750573
    Total Energy =                       -247.0762236675056442
  @DF-RHF Final Energy:  -247.09341977270114
    Total Energy =                       -247.0934197727011110
  @DF-RHF Final Energy:  -247.09459276007797
    Total Energy =                       -247.0945927600780010
  @DF-RHF Final Energy:  -247.09498473213344
    Total Energy =                       -247.0949847321333550
  @DF-RHF Final Energy:  -247.09530981435034
    Total Energy =                       -247.0953098143503439
  @DF-RHF Final Energy:  -247.09559408632535
    Total Energy =                       -247.0955940863253772
  @DF-RHF Final Energy:  -247.09584340284360
    Total Energy =                       -247.0958434028435136
  @DF-RHF Final Energy:  -247.09604881763926
    Total Energy =                       -247.0960488176393710
  Basis Set: CC-PVTZ
  Basis Set:
  @DF-RHF Final Energy:  -247.09617859544778
    Total Energy =                       -247.0961785954479524
  Basis Set: CC-PVTZ
  Basis Set:
  Basis Set: CC-PVTZ
  Basis Set:
  @DF-RHF Final Energy:  -247.09623558097510
    Total Energy =                       -247.0962355809749056
  Basis Set: CC-PVTZ
  Basis Set:
  Basis Set: CC-PVTZ
  Basis Set:
  @DF-RHF Final Energy:  -247.09623900538477
    Total Energy =                       -247.0962390053846320
  Basis Set: CC-PVTZ
  Basis Set:
  Charge       = 0
  Multiplicity = 1
  Basis Set: CC-PVTZ
  Basis Set:

    Orbital Energies (a.u.)
    -----------------------

    Doubly Occupied:

       1A    -20.513088     2A    -15.572131     3A    -11.339067
       4A    -11.267857     5A    -11.229070     6A     -1.393690
       7A     -1.230608     8A     -1.007420     9A     -0.954616
      10A     -0.779516    11A     -0.676955    12A     -0.669357
      13A     -0.640863    14A     -0.591606    15A     -0.578746
      16A     -0.562943    17A     -0.555015    18A     -0.516872
      19A     -0.421961    20A     -0.392779

  @DF-RHF Final Energy:  -247.09623966933569

   => Energetics <=

    Nuclear Repulsion Energy =            181.7311644610684596
    One-Electron Energy =                -695.8664875738447790
    Two-Electron Energy =                 267.0390834434405178
    DFT Exchange-Correlation Energy =       0.0000000000000000
    Empirical Dispersion Energy =           0.0000000000000000
    PCM Polarization Energy =               0.0000000000000000
    EFP Energy =                            0.0000000000000000
    Total Energy =                       -247.0962396693357732
    Molecular point group: c1
  Basis Set: CC-PVTZ
  Basis Set:

  -Total Gradient:
     Atom            X                  Y                   Z
    ------   -----------------  -----------------  -----------------
       1       -0.000012254588     0.000002014407     0.000008243690
       2        0.001728993978    -0.001144907117     0.002734251757
       3       -0.001186578563     0.000444984197    -0.002640818570
       4       -0.000123117081     0.001566262829     0.003174750983
       5        0.000010076916     0.000009000128    -0.000007650735
       6       -0.000029810929     0.000000455590    -0.000021929179
       7        0.000010175435    -0.000008593447     0.000021146425
       8        0.000010545606     0.000022934234     0.000063561533
       9       -0.000443086107    -0.000868740895    -0.003294056793
      10        0.000011280896    -0.000005168113    -0.000021153546
      11        0.000008609845     0.000000532738    -0.000011555881
      12        0.000015164591    -0.000018774546    -0.000004789683

  **** Optimization is complete! (in 15 steps) ****
    Final optimized geometry and variables:
    Molecular point group: c1

    Geometry (in Angstrom), charge = 0, multiplicity = 1:

    H           -1.709644336633     0.293597059231     0.167810284322
    N           -0.874734702929    -0.227464963817     0.312582094303
    C           -1.002201932586    -1.654214460205     0.105814766341
    C            0.224362305378     0.503482155838    -0.038444674698
    H           -1.937213510628    -1.980688625073     0.537718458338
    H           -0.209249551246    -2.189669618616     0.607209463543
    H           -0.996669430095    -1.932666887518    -0.944001325259
    C            1.558661712870    -0.202960094853     0.002961680211
    O            0.129386326921     1.651580991221    -0.350774259929
    H            1.619751031570    -0.939227946379    -0.790343984701
    H            2.335261202333     0.530763464903    -0.137774591512
    H            1.701065241078    -0.715234931042     0.945870286605

  Mulliken Charges: (a.u.)
   Center  Symbol    Alpha    Beta     Spin     Total
       1     H     0.41914  0.41914  0.00000  0.16172
       2     N     3.60798  3.60798  0.00000 -0.21597
       3     C     3.08851  3.08851  0.00000 -0.17702
       4     C     2.84396  2.84396  0.00000  0.31209
       5     H     0.44319  0.44319  0.00000  0.11363
       6     H     0.45181  0.45181  0.00000  0.09637
       7     H     0.45659  0.45659  0.00000  0.08683
       8     C     3.16071  3.16071  0.00000 -0.32142
       9     O     4.20378  4.20378  0.00000 -0.40755
      10     H     0.44916  0.44916  0.00000  0.10167
      11     H     0.42951  0.42951  0.00000  0.14098
      12     H     0.44567  0.44567  0.00000  0.10867

   Total alpha = 20.00000, Total beta = 20.00000, Total charge =  0.00000

*** Psi4 exiting successfully. Buy a developer a beer!
