                              Psi4 1.0.54 Driver

  ==> Input File <==

--------------------------------------------------------------------------
set {
	reference rhf
	basis cc-pvtz
}

set_num_threads( 4 )
memory 2 gb

molecule MOL {
0 1

H	 -2.362939	 -1.309000	 -0.383250
C	 -1.359344	 -1.272457	 0.020748
C	 -0.684082	 0.000127	 -0.464918
H	 -0.825835	 -2.151141	 -0.318537
H	 -1.416276	 -1.292399	 1.099455
C	 -1.359089	 1.272668	 0.021259
N	 0.742439	 -0.000109	 0.007333
H	 -0.596914	 0.000345	 -1.538146
H	 -2.362696	 1.309620	 -0.382686
H	 -0.825392	 2.151374	 -0.317674
H	 -1.415983	 1.292181	 1.099973
O	 1.146129	 0.988610	 0.520280
O	 1.374407	 -0.989064	 -0.162594

	symmetry c1
}
set optking {
	frozen_dihedral = ("
		12 7 3 8
	")
}

ee,wfn = optimize('scf', return_wfn=True)
oeprop( wfn, 'DIPOLE', 'QUADRUPOLE', 'MULLIKEN_CHARGES')
f=open( 'psi4out.xyz', 'w' )
f.write( "13  " )
f.write( str(ee) + "\n" )
f.write( MOL.save_string_xyz() )
f.close()
--------------------------------------------------------------------------

    Molecular point group: c1
  Charge       = 0
  Multiplicity = 1
  Basis Set: CC-PVTZ
  Basis Set:
  @DF-RHF Final Energy:  -321.86163264923101
    Total Energy =                       -321.8616326492309554
    Molecular point group: c1
  Basis Set: CC-PVTZ
  Basis Set:
  Basis Set: CC-PVTZ
  Basis Set:
  @DF-RHF Final Energy:  -321.85814280734235
    Total Energy =                       -321.8581428073420625
  Basis Set: CC-PVTZ
  Basis Set:
  Basis Set: CC-PVTZ
  Basis Set:
  @DF-RHF Final Energy:  -321.85534679979889
    Total Energy =                       -321.8553467997990083
  Basis Set: CC-PVTZ
  Basis Set:
  Basis Set: CC-PVTZ
  Basis Set:
  @DF-RHF Final Energy:  -321.85883713704266
    Total Energy =                       -321.8588371370426557
  Basis Set: CC-PVTZ
  Basis Set:
  Basis Set: CC-PVTZ
  Basis Set:
  @DF-RHF Final Energy:  -321.86050126310499
    Total Energy =                       -321.8605012631049931
  Basis Set: CC-PVTZ
  Basis Set:
  Basis Set: CC-PVTZ
  Basis Set:
  @DF-RHF Final Energy:  -321.86254770354213
    Total Energy =                       -321.8625477035422477
  Basis Set: CC-PVTZ
  Basis Set:
  Basis Set: CC-PVTZ
  Basis Set:
  @DF-RHF Final Energy:  -321.86260851642731
    Total Energy =                       -321.8626085164270307
  Basis Set: CC-PVTZ
  Basis Set:
  Charge       = 0
  Multiplicity = 1
  Basis Set: CC-PVTZ
  Basis Set:

    Orbital Energies (a.u.)
    -----------------------

    Doubly Occupied:

       1A    -20.591080     2A    -20.585915     3A    -15.833761
       4A    -11.306658     5A    -11.240844     6A    -11.237286
       7A     -1.634474     8A     -1.418187     9A     -1.140091
      10A     -0.968472    11A     -0.958102    12A     -0.815196
      13A     -0.763835    14A     -0.730127    15A     -0.723391
      16A     -0.641412    17A     -0.594711    18A     -0.587178
      19A     -0.570328    20A     -0.523576    21A     -0.521442
      22A     -0.483814    23A     -0.472406    24A     -0.451778

  @DF-RHF Final Energy:  -321.86261036231292

   => Energetics <=

    Nuclear Repulsion Energy =            257.2496769400785297
    One-Electron Energy =                -948.6364509144957538
    Two-Electron Energy =                 369.5241636121045303
    DFT Exchange-Correlation Energy =       0.0000000000000000
    Empirical Dispersion Energy =           0.0000000000000000
    PCM Polarization Energy =               0.0000000000000000
    EFP Energy =                            0.0000000000000000
    Total Energy =                       -321.8626103623126937
    Molecular point group: c1
  Basis Set: CC-PVTZ
  Basis Set:

  -Total Gradient:
     Atom            X                  Y                   Z
    ------   -----------------  -----------------  -----------------
       1       -0.000002331757     0.000009946291    -0.000006376312
       2        0.000051822983     0.000002336154     0.000067196792
       3       -0.000356693473    -0.001139029468    -0.000573116798
       4       -0.000007291584    -0.000009223801    -0.000010790295
       5       -0.000018471236    -0.000017168895     0.000021877308
       6        0.000030237220    -0.000014955729     0.000029439966
       7       -0.000477177761    -0.000480776387     0.001514402408
       8        0.000336107323     0.001176492694     0.000029106060
       9       -0.000016948623     0.000007915435    -0.000003779520
      10        0.000006583636     0.000001537863    -0.000007684827
      11       -0.000000024985     0.000008833266     0.000015945275
      12        0.000361067665     0.000300065502    -0.001138073020
      13        0.000093120588     0.000154027074     0.000061852965

  **** Optimization is complete! (in 8 steps) ****
    Final optimized geometry and variables:
    Molecular point group: c1

    Geometry (in Angstrom), charge = 0, multiplicity = 1:

    H           -2.633001327913    -0.685383230585    -0.164038444493
    C           -1.615511729625    -0.925133797177     0.115829017439
    C           -0.701472294373     0.187618883031    -0.374341422523
    H           -1.348693894439    -1.874941114134    -0.318404627169
    H           -1.572543282717    -1.008707988732     1.195218720580
    C           -1.060798051250     1.553636171216     0.177513501527
    N            0.730934620191    -0.170708597686    -0.050438486261
    H           -0.695484541464     0.214493182933    -1.455736543750
    H           -2.073603321748     1.784815179785    -0.128487211422
    H           -0.403077235525     2.322036787369    -0.197678830314
    H           -1.017725685499     1.564339148611     1.258131657847
    O            1.422585608763     0.653293237690     0.442798908293
    O            1.085613508987    -1.262098600581    -0.349782031080

  Mulliken Charges: (a.u.)
   Center  Symbol    Alpha    Beta     Spin     Total
       1     H     0.45009  0.45009  0.00000  0.09983
       2     C     3.14433  3.14433  0.00000 -0.28866
       3     C     3.00660  3.00660  0.00000 -0.01320
       4     H     0.43058  0.43058  0.00000  0.13884
       5     H     0.44667  0.44667  0.00000  0.10666
       6     C     3.14235  3.14235  0.00000 -0.28470
       7     N     3.27543  3.27543  0.00000  0.44915
       8     H     0.43002  0.43002  0.00000  0.13996
       9     H     0.45044  0.45044  0.00000  0.09912
      10     H     0.43518  0.43518  0.00000  0.12965
      11     H     0.44392  0.44392  0.00000  0.11215
      12     O     4.16933  4.16933  0.00000 -0.33867
      13     O     4.17506  4.17506  0.00000 -0.35013

   Total alpha = 24.00000, Total beta = 24.00000, Total charge = -0.00000

*** Psi4 exiting successfully. Buy a developer a beer!
