                              Psi4 1.0.54 Driver

  ==> Input File <==

--------------------------------------------------------------------------
set {
	reference rhf
	basis cc-pvtz
}

set_num_threads( 4 )
memory 2 gb

molecule MOL {
0 1

H	 -3.323694	 0.014198	 1.072003
O	 -2.537535	 -0.510669	 1.085671
C	 -1.540041	 0.211951	 0.583912
C	 -0.246947	 -0.557272	 0.568676
O	 -1.695757	 1.320675	 0.203842
C	 0.926581	 0.227233	 0.000178
H	 -0.423644	 -1.467437	 0.004668
H	 -0.052674	 -0.875030	 1.587993
C	 2.220156	 -0.582071	 -0.000088
H	 0.690185	 0.542991	 -1.009697
H	 1.061620	 1.136139	 0.575570
C	 3.466689	 0.296012	 -0.000457
H	 2.239073	 -1.234095	 -0.869382
H	 2.239505	 -1.233985	 0.869270
H	 3.493549	 0.935857	 -0.875887
H	 4.368821	 -0.304526	 -0.001199
H	 3.494559	 0.935166	 0.875458

	symmetry c1
}
set optking {
	frozen_dihedral = ("
		10 6 9 13
	")
}

ee,wfn = optimize('scf', return_wfn=True)
oeprop( wfn, 'DIPOLE', 'QUADRUPOLE', 'MULLIKEN_CHARGES')
f=open( 'psi4out.xyz', 'w' )
f.write( "17  " )
f.write( str(ee) + "\n" )
f.write( MOL.save_string_xyz() )
f.close()
--------------------------------------------------------------------------

    Molecular point group: c1
  Charge       = 0
  Multiplicity = 1
  Basis Set: CC-PVTZ
  Basis Set:
  @DF-RHF Final Energy:  -345.04688436078351
    Total Energy =                       -345.0468843607832241
    Molecular point group: c1
  Basis Set: CC-PVTZ
  Basis Set:
  Basis Set: CC-PVTZ
  Basis Set:
  @DF-RHF Final Energy:  -345.04702254418845
    Total Energy =                       -345.0470225441883940
  Basis Set: CC-PVTZ
  Basis Set:
  Basis Set: CC-PVTZ
  Basis Set:
  @DF-RHF Final Energy:  -345.04696999816247
    Total Energy =                       -345.0469699981623535
  Basis Set: CC-PVTZ
  Basis Set:
  Basis Set: CC-PVTZ
  Basis Set:
  @DF-RHF Final Energy:  -345.04715932345721
    Total Energy =                       -345.0471593234570946
  Basis Set: CC-PVTZ
  Basis Set:
  Basis Set: CC-PVTZ
  Basis Set:
  @DF-RHF Final Energy:  -345.04716222842359
    Total Energy =                       -345.0471622284237014
  Basis Set: CC-PVTZ
  Basis Set:
  Charge       = 0
  Multiplicity = 1
  Basis Set: CC-PVTZ
  Basis Set:

    Orbital Energies (a.u.)
    -----------------------

    Doubly Occupied:

       1A    -20.604052     2A    -20.540679     3A    -11.373503
       4A    -11.239258     5A    -11.221410     6A    -11.220746
       7A    -11.210657     8A     -1.477617     9A     -1.369134
      10A     -1.092207    11A     -1.019505    12A     -0.914503
      13A     -0.824944    14A     -0.790642    15A     -0.703853
      16A     -0.688889    17A     -0.671276    18A     -0.631019
      19A     -0.593539    20A     -0.587914    21A     -0.573653
      22A     -0.536152    23A     -0.512059    24A     -0.484641
      25A     -0.480706    26A     -0.478431    27A     -0.472426
      28A     -0.445903

  @DF-RHF Final Energy:  -345.04716240326707

   => Energetics <=

    Nuclear Repulsion Energy =            304.7760609091778861
    One-Electron Energy =               -1074.1278133683376836
    Two-Electron Energy =                 424.3045900558926178
    DFT Exchange-Correlation Energy =       0.0000000000000000
    Empirical Dispersion Energy =           0.0000000000000000
    PCM Polarization Energy =               0.0000000000000000
    EFP Energy =                            0.0000000000000000
    Total Energy =                       -345.0471624032671798
    Molecular point group: c1
  Basis Set: CC-PVTZ
  Basis Set:

  -Total Gradient:
     Atom            X                  Y                   Z
    ------   -----------------  -----------------  -----------------
       1        0.000001645290     0.000002784629     0.000001283532
       2        0.000002730467    -0.000009286597    -0.000008637516
       3        0.000000824645     0.000003735098     0.000011349792
       4       -0.000000959798    -0.000011889958    -0.000019246393
       5        0.000000292640     0.000009465434    -0.000000115783
       6        0.003125460946     0.004804684975     0.000184719612
       7        0.000003283001    -0.000001291886     0.000011472021
       8       -0.000003620245     0.000002226931     0.000008847608
       9       -0.002755225645    -0.004321076173     0.002497410562
      10       -0.002172829283    -0.003342316243    -0.000542434809
      11       -0.000001482388    -0.000006165826    -0.000003989445
      12        0.000000657158     0.000002484429     0.000005749440
      13        0.001810619154     0.002852002339    -0.002138680094
      14       -0.000010075219     0.000011651482    -0.000006709408
      15        0.000001702303     0.000000072163     0.000006348719
      16       -0.000007510626     0.000004725642    -0.000000126059
      17        0.000004487596    -0.000001806438    -0.000007241776

  **** Optimization is complete! (in 6 steps) ****
    Final optimized geometry and variables:
    Molecular point group: c1

    Geometry (in Angstrom), charge = 0, multiplicity = 1:

    H           -3.376063911673    -0.047997056550     0.675677129191
    O           -2.588608596359    -0.570154792968     0.707555754953
    C           -1.584787101532     0.152392322541     0.218313300366
    C           -0.288044135825    -0.610612446619     0.234862877497
    O           -1.737505757092     1.258257168660    -0.171438207646
    C            0.896232355335     0.178451668609    -0.309741368941
    H           -0.447142855098    -1.522855041924    -0.331528777452
    H           -0.116111362149    -0.925569715795     1.258824897775
    C            2.179133347964    -0.655995111423    -0.337536854454
    H            0.649059102807     0.501673138868    -1.313726646905
    H            1.035872417344     1.071210856385     0.287576915025
    C            3.436961494007     0.206424285035    -0.405589363897
    H            2.165857704077    -1.301627797530    -1.210540936415
    H            2.230969744585    -1.297367791179     0.536863113027
    H            3.416105363212     0.857736698241    -1.272984906392
    H            4.329074177125    -0.405454933897    -0.472717086193
    H            3.529270219057     0.833685478936     0.474404646831

  Mulliken Charges: (a.u.)
   Center  Symbol    Alpha    Beta     Spin     Total
       1     H     0.38243  0.38243  0.00000  0.23515
       2     O     4.15984  4.15984  0.00000 -0.31968
       3     C     2.80516  2.80516  0.00000  0.38968
       4     C     3.11127  3.11127  0.00000 -0.22253
       5     O     4.19113  4.19113  0.00000 -0.38225
       6     C     3.08295  3.08295  0.00000 -0.16591
       7     H     0.43769  0.43769  0.00000  0.12462
       8     H     0.43831  0.43831  0.00000  0.12339
       9     C     3.08647  3.08647  0.00000 -0.17294
      10     H     0.44514  0.44514  0.00000  0.10973
      11     H     0.44669  0.44669  0.00000  0.10661
      12     C     3.14846  3.14846  0.00000 -0.29693
      13     H     0.45269  0.45269  0.00000  0.09461
      14     H     0.45562  0.45562  0.00000  0.08877
      15     H     0.45289  0.45289  0.00000  0.09423
      16     H     0.44863  0.44863  0.00000  0.10275
      17     H     0.45465  0.45465  0.00000  0.09070

   Total alpha = 28.00000, Total beta = 28.00000, Total charge = -0.00000

*** Psi4 exiting successfully. Buy a developer a beer!
