  ==> Input File <==

--------------------------------------------------------------------------
set {
	reference rhf
	basis 6-31G*
}

set_num_threads( 4 )
memory 2 gb

molecule MOL {
0 1

H	 2.182833	 1.023805	 -2.298034
O	 1.345396	 1.183752	 -1.887174
C	 1.392388	 0.775851	 -0.543085
C	 0.031547	 1.023609	 0.088541
H	 2.147803	 1.340855	 0.000061
H	 1.662311	 -0.275470	 -0.472600
C	 -1.134819	 0.293262	 -0.585751
H	 -0.159434	 2.092811	 0.063631
H	 0.088952	 0.737604	 1.137409
C	 -1.917817	 -0.639439	 0.339494
H	 -0.758119	 -0.268455	 -1.433105
H	 -1.813832	 1.041889	 -0.986690
H	 -2.777680	 -1.057197	 -0.174994
H	 -1.310268	 -1.471279	 0.680599
H	 -2.283753	 -0.111424	 1.216626

	symmetry c1
}
set optking {
	frozen_dihedral = ("
		8 4 7 11
	")
}

ee = optimize('scf')
oeprop('DIPOLE', 'QUADRUPOLE', 'MULLIKEN_CHARGES')
f=open( 'psi4out.xyz', 'w' )
f.write( "15  " )
f.write( str(ee) + "\n" )
f.write( MOL.save_string_xyz() )
f.close()
--------------------------------------------------------------------------

    Molecular point group: c1
  Charge       = 0
  Multiplicity = 1
  Basis Set: 6-31G*
  Basis Set:
  @DF-RHF Final Energy:  -232.13927611173801
    Total Energy =                       -232.1392761117378996
    Molecular point group: c1
  Basis Set: 6-31G*
  Basis Set:
  Basis Set: 6-31G*
  Basis Set:
  @DF-RHF Final Energy:  -232.13988895213785
    Total Energy =                       -232.1398889521379942
  Basis Set: 6-31G*
  Basis Set:
  Basis Set: 6-31G*
  Basis Set:
  @DF-RHF Final Energy:  -232.13994853509618
    Total Energy =                       -232.1399485350961527
  Basis Set: 6-31G*
  Basis Set:
  Basis Set: 6-31G*
  Basis Set:
  @DF-RHF Final Energy:  -232.13994974098082
    Total Energy =                       -232.1399497409810238
  Basis Set: 6-31G*
  Basis Set:
  Charge       = 0
  Multiplicity = 1
  Basis Set: 6-31G*
  Basis Set:

    Orbital Energies (a.u.)
    -----------------------

    Doubly Occupied:

       1A    -20.553083     2A    -11.268212     3A    -11.211833
       4A    -11.209034     5A    -11.206064     6A     -1.359940
       7A     -1.062144     8A     -0.973478     9A     -0.857977
      10A     -0.785582    11A     -0.702754    12A     -0.647807
      13A     -0.600826    14A     -0.584045    15A     -0.554674
      16A     -0.536461    17A     -0.501234    18A     -0.475186
      19A     -0.469588    20A     -0.452512    21A     -0.429826

  @DF-RHF Final Energy:  -232.13994999325865

   => Energetics <=

    Nuclear Repulsion Energy =            188.8834621609620967
    One-Electron Energy =                -689.1623051603446584
    Two-Electron Energy =                 268.1388930061237943
    DFT Exchange-Correlation Energy =       0.0000000000000000
    Empirical Dispersion Energy =           0.0000000000000000
    PCM Polarization Energy =               0.0000000000000000
    EFP Energy =                            0.0000000000000000
    Total Energy =                       -232.1399499932587673
    Molecular point group: c1
  Basis Set: 6-31G*
  Basis Set:

  -Total Gradient:
     Atom            X                  Y                   Z
    ------   -----------------  -----------------  -----------------
       1       -0.000005843518    -0.000005877634     0.000014794324
       2       -0.000020989617     0.000048018593     0.000027937823
       3        0.000060267625    -0.000051932594    -0.000020195183
       4       -0.000174647692    -0.000015695926     0.000217654543
       5        0.000024139759     0.000000825975    -0.000047173258
       6        0.000013504363     0.000013326069     0.000053420778
       7        0.000125330363    -0.000255929507     0.000183099945
       8        0.000098019756     0.000032200399    -0.000247099010
       9       -0.000016096919    -0.000002965701    -0.000035203448
      10       -0.000047403972    -0.000034731678    -0.000042938622
      11       -0.000049570028     0.000218680517    -0.000136312429
      12       -0.000003630321     0.000040403965     0.000034487610
      13        0.000006049964    -0.000032492026     0.000028459327
      14        0.000002817196     0.000022142223    -0.000012147068
      15       -0.000011946963     0.000024027322    -0.000018785331

  **** Optimization is complete! (in 5 steps) ****
    Final optimized geometry and variables:
    Molecular point group: c1

    Geometry (in Angstrom), charge = 0, multiplicity = 1:

    H            2.186661499913     0.498360272480    -1.747057068329
    O            1.372004255533     0.708087180562    -1.313235795993
    C            1.393219175508     0.212309352861     0.001254629510
    C            0.042476564539     0.486075132652     0.639580986678
    H            2.179916750543     0.696113184761     0.577530684564
    H            1.594934883955    -0.858452503075     0.003186019790
    C           -1.127439233020    -0.250581356639    -0.049281280573
    H           -0.121095009336     1.558846779240     0.621546395152
    H            0.103536802888     0.198816279126     1.686801757035
    C           -1.894008429659    -1.180644863191     0.891694273498
    H           -0.750350012130    -0.820158082481    -0.892426274877
    H           -1.816330747791     0.473538280301    -0.471956034390
    H           -2.704899187214    -1.683915095537     0.373826205750
    H           -1.241663156678    -1.945143137832     1.305879969083
    H           -2.324138520791    -0.630042395924     1.723886336336

  Mulliken Charges: (a.u.)
   Center  Symbol    Alpha    Beta     Spin     Total
       1     H     0.28077  0.28077  0.00000  0.43847
       2     O     4.36899  4.36899  0.00000 -0.73798
       3     C     3.00023  3.00023  0.00000 -0.00045
       4     C     3.16190  3.16190  0.00000 -0.32380
       5     H     0.42977  0.42977  0.00000  0.14046
       6     H     0.43303  0.43303  0.00000  0.13393
       7     C     3.15351  3.15351  0.00000 -0.30702
       8     H     0.41213  0.41213  0.00000  0.17574
       9     H     0.42140  0.42140  0.00000  0.15720
      10     C     3.24126  3.24126  0.00000 -0.48253
      11     H     0.41260  0.41260  0.00000  0.17480
      12     H     0.41730  0.41730  0.00000  0.16540
      13     H     0.42028  0.42028  0.00000  0.15945
      14     H     0.42443  0.42443  0.00000  0.15113
      15     H     0.42240  0.42240  0.00000  0.15520

   Total alpha = 21.00000, Total beta = 21.00000, Total charge =  0.00000
