  ==> Input File <==

--------------------------------------------------------------------------
set {
	reference rhf
	basis 6-31G*
}

set_num_threads( 1 )
memory 2 gb

molecule MOL {
0 1

H	 2.591676	 2.013956	 0.335017
O	 3.341076	 1.666752	 -0.126416
C	 3.569581	 0.339145	 0.272707
C	 2.539767	 -0.640285	 -0.279495
H	 4.553106	 0.084646	 -0.100901
H	 3.608576	 0.269204	 1.359154
C	 1.115811	 -0.397273	 0.226630
H	 2.556196	 -0.582511	 -1.364741
H	 2.852081	 -1.648031	 -0.010655
C	 0.829774	 1.082024	 0.499910
H	 0.956936	 -0.971412	 1.135195
H	 0.401864	 -0.769231	 -0.508399
C	 -0.609564	 1.391225	 0.927743
H	 1.517428	 1.444819	 1.261722
H	 1.050283	 1.649472	 -0.401800
C	 -1.013863	 0.820100	 2.289666
H	 -0.733448	 2.471853	 0.954427
H	 -1.297053	 1.027534	 0.165559
C	 -2.420168	 1.242959	 2.719706
H	 -0.296449	 1.144305	 3.042208
H	 -0.964594	 -0.265936	 2.269653
C	 -2.828698	 0.668990	 4.075924
H	 -2.473886	 2.328879	 2.756843
H	 -3.137253	 0.928392	 1.964245
H	 -2.148993	 0.992326	 4.859300
H	 -3.828581	 0.988090	 4.353491
H	 -2.820855	 -0.417323	 4.060826

	symmetry c1
}
set optking {
	frozen_dihedral = ("
		14 10 7 4,
		14 10 13 16,
		8 4 3 2,
		10 13 16 20,
		20 16 19 22,
		4 3 2 1
	")
}

ee = energy('scf')
oeprop('DIPOLE', 'QUADRUPOLE', 'MULLIKEN_CHARGES')
f=open( 'psi4out.xyz', 'w' )
f.write( "27  " )
f.write( str(ee) + "\n" )
f.write( MOL.save_string_xyz() )
f.close()
--------------------------------------------------------------------------

    Molecular point group: c1

    Geometry (in Angstrom), charge = 0, multiplicity = 1:

       Center              X                  Y                   Z               Mass
    ------------   -----------------  -----------------  -----------------  -----------------
           H          2.053487148771     1.310730028172    -0.841501228342     1.007825032070
           O          2.802887148771     0.963526028172    -1.302934228342    15.994914619560
           C          3.031392148771    -0.364080971828    -0.903811228342    12.000000000000
           C          2.001578148771    -1.343510971828    -1.456013228342    12.000000000000
           H          4.014917148771    -0.618579971828    -1.277419228342     1.007825032070
           H          3.070387148771    -0.434021971828     0.182635771658     1.007825032070
           C          0.577622148771    -1.100498971828    -0.949888228342    12.000000000000
           H          2.018007148771    -1.285736971828    -2.541259228342     1.007825032070
           H          2.313892148771    -2.351256971828    -1.187173228342     1.007825032070
           C          0.291585148771     0.378798028172    -0.676608228342    12.000000000000
           H          0.418747148771    -1.674637971828    -0.041323228342     1.007825032070
           H         -0.136324851229    -1.472456971828    -1.684917228342     1.007825032070
           C         -1.147752851229     0.687999028172    -0.248775228342    12.000000000000
           H          0.979239148771     0.741593028172     0.085203771658     1.007825032070
           H          0.512094148771     0.946246028172    -1.578318228342     1.007825032070
           C         -1.552051851229     0.116874028172     1.113147771658    12.000000000000
           H         -1.271636851229     1.768627028172    -0.222091228342     1.007825032070
           H         -1.835241851229     0.324308028172    -1.010959228342     1.007825032070
           C         -2.958356851229     0.539733028172     1.543187771658    12.000000000000
           H         -0.834637851229     0.441079028172     1.865689771658     1.007825032070
           H         -1.502782851229    -0.969161971828     1.093134771658     1.007825032070
           C         -3.366886851229    -0.034235971828     2.899405771658    12.000000000000
           H         -3.012074851229     1.625653028172     1.580324771658     1.007825032070
           H         -3.675441851229     0.225166028172     0.787726771658     1.007825032070
           H         -2.687181851229     0.289100028172     3.682781771658     1.007825032070
           H         -4.366769851229     0.284864028172     3.176972771658     1.007825032070
           H         -3.359043851229    -1.120548971828     2.884307771658     1.007825032070

  Charge       = 0
  Multiplicity = 1
  Basis Set: 6-31G*
  Basis Set:

    Orbital Energies (a.u.)
    -----------------------

    Doubly Occupied:

       1A    -20.540721     2A    -11.264986     3A    -11.225343
       4A    -11.221009     5A    -11.219541     6A    -11.218067
       7A    -11.217069     8A    -11.214657     9A    -11.210922
      10A     -1.356724    11A     -1.099483    12A     -1.063008
      13A     -1.015595    14A     -0.952844    15A     -0.889675
      16A     -0.825689    17A     -0.804765    18A     -0.787879
      19A     -0.695192    20A     -0.649977    21A     -0.633037
      22A     -0.625231    23A     -0.594454    24A     -0.583596
      25A     -0.574073    26A     -0.556007    27A     -0.554146
      28A     -0.535004    29A     -0.519196    30A     -0.500878
      31A     -0.481063    32A     -0.475998    33A     -0.469111
      34A     -0.461340    35A     -0.452105    36A     -0.440290
      37A     -0.415282

  @DF-RHF Final Energy:  -388.26005389054563

   => Energetics <=

    Nuclear Repulsion Energy =            474.7114831640545276
    One-Electron Energy =               -1467.2551977959299165
    Two-Electron Energy =                 604.2836607413303227
    DFT Exchange-Correlation Energy =       0.0000000000000000
    Empirical Dispersion Energy =           0.0000000000000000
    PCM Polarization Energy =               0.0000000000000000
    EFP Energy =                            0.0000000000000000
    Total Energy =                       -388.2600538905451231

  Mulliken Charges: (a.u.)
   Center  Symbol    Alpha    Beta     Spin     Total
       1     H     0.26962  0.26962  0.00000  0.46075
       2     O     4.37795  4.37795  0.00000 -0.75590
       3     C     3.00481  3.00481  0.00000 -0.00963
       4     C     3.16297  3.16297  0.00000 -0.32594
       5     H     0.41354  0.41354  0.00000  0.17293
       6     H     0.43133  0.43133  0.00000  0.13734
       7     C     3.15264  3.15264  0.00000 -0.30528
       8     H     0.41455  0.41455  0.00000  0.17090
       9     H     0.42153  0.42153  0.00000  0.15695
      10     C     3.19347  3.19347  0.00000 -0.38693
      11     H     0.41891  0.41891  0.00000  0.16218
      12     H     0.41767  0.41767  0.00000  0.16466
      13     C     3.14978  3.14978  0.00000 -0.29956
      14     H     0.42792  0.42792  0.00000  0.14416
      15     H     0.40296  0.40296  0.00000  0.19408
      16     C     3.15368  3.15368  0.00000 -0.30736
      17     H     0.42118  0.42118  0.00000  0.15764
      18     H     0.42121  0.42121  0.00000  0.15759
      19     C     3.15143  3.15143  0.00000 -0.30285
      20     H     0.42466  0.42466  0.00000  0.15067
      21     H     0.42140  0.42140  0.00000  0.15719
      22     C     3.23935  3.23935  0.00000 -0.47869
      23     H     0.42270  0.42270  0.00000  0.15459
      24     H     0.42252  0.42252  0.00000  0.15496
      25     H     0.42169  0.42169  0.00000  0.15663
      26     H     0.41876  0.41876  0.00000  0.16248
      27     H     0.42178  0.42178  0.00000  0.15644

   Total alpha = 37.00000, Total beta = 37.00000, Total charge = -0.00000
