  ==> Input File <==

--------------------------------------------------------------------------
set {
	reference rhf
	basis 6-31G*
}

set_num_threads( 4 )
memory 2 gb

molecule MOL {
0 1

H	 1.136379	 0.211822	 1.465562
C	 1.135357	 0.094285	 0.374742
C	 0.065331	 0.871482	 -0.349150
O	 1.941633	 -0.601957	 -0.151457
C	 -0.429674	 2.079283	 0.459348
H	 -0.746798	 0.194435	 -0.587830
H	 0.498115	 1.219770	 -1.285929
C	 -1.180143	 1.687636	 1.732860
H	 -1.078720	 2.675107	 -0.174483
H	 0.415510	 2.716173	 0.711688
H	 -2.048815	 1.079501	 1.500250
H	 -1.522626	 2.568711	 2.265523
H	 -0.552756	 1.116090	 2.410437

	symmetry c1
}
set optking {
	frozen_dihedral = ("
		6 3 2 4
	")
}

ee = optimize('scf')
oeprop('DIPOLE', 'QUADRUPOLE', 'MULLIKEN_CHARGES')
f=open( 'psi4out.xyz', 'w' )
f.write( "13  " )
f.write( str(ee) + "\n" )
f.write( MOL.save_string_xyz() )
f.close()
--------------------------------------------------------------------------

    Molecular point group: c1
  Charge       = 0
  Multiplicity = 1
  Basis Set: 6-31G*
  Basis Set:
  @DF-RHF Final Energy:  -230.98154542362201
    Total Energy =                       -230.9815454236219807
    Molecular point group: c1
  Basis Set: 6-31G*
  Basis Set:
  Basis Set: 6-31G*
  Basis Set:
  @DF-RHF Final Energy:  -230.98235813399896
    Total Energy =                       -230.9823581339990426
  Basis Set: 6-31G*
  Basis Set:
  Basis Set: 6-31G*
  Basis Set:
  @DF-RHF Final Energy:  -230.98260583911406
    Total Energy =                       -230.9826058391141146
  Basis Set: 6-31G*
  Basis Set:
  Basis Set: 6-31G*
  Basis Set:
  @DF-RHF Final Energy:  -230.98260587563365
    Total Energy =                       -230.9826058756337659
  Basis Set: 6-31G*
  Basis Set:
  Basis Set: 6-31G*
  Basis Set:
  @DF-RHF Final Energy:  -230.98269020165003
    Total Energy =                       -230.9826902016500014
  Basis Set: 6-31G*
  Basis Set:
  Basis Set: 6-31G*
  Basis Set:
  @DF-RHF Final Energy:  -230.98271033457232
    Total Energy =                       -230.9827103345722037
  Basis Set: 6-31G*
  Basis Set:
  Basis Set: 6-31G*
  Basis Set:
  @DF-RHF Final Energy:  -230.98271445833404
    Total Energy =                       -230.9827144583342431
  Basis Set: 6-31G*
  Basis Set:
  Charge       = 0
  Multiplicity = 1
  Basis Set: 6-31G*
  Basis Set:

    Orbital Energies (a.u.)
    -----------------------

    Doubly Occupied:

       1A    -20.561613     2A    -11.327491     3A    -11.237733
       4A    -11.236023     5A    -11.225753     6A     -1.402316
       7A     -1.086808     8A     -0.973044     9A     -0.850167
      10A     -0.790947    11A     -0.667320    12A     -0.650171
      13A     -0.615222    14A     -0.594074    15A     -0.580702
      16A     -0.525064    17A     -0.507662    18A     -0.493744
      19A     -0.483878    20A     -0.409287

  @DF-RHF Final Energy:  -230.98271533855936

   => Energetics <=

    Nuclear Repulsion Energy =            171.9229380180696864
    One-Electron Energy =                -653.3732721644826142
    Two-Electron Energy =                 250.4676188078533983
    DFT Exchange-Correlation Energy =       0.0000000000000000
    Empirical Dispersion Energy =           0.0000000000000000
    PCM Polarization Energy =               0.0000000000000000
    EFP Energy =                            0.0000000000000000
    Total Energy =                       -230.9827153385595579
    Molecular point group: c1
  Basis Set: 6-31G*
  Basis Set:

  -Total Gradient:
     Atom            X                  Y                   Z
    ------   -----------------  -----------------  -----------------
       1       -0.000016636015     0.000013336559     0.000000868817
       2        0.000046061019     0.000040747717    -0.000015712350
       3       -0.000116505439    -0.000043231694     0.000119976415
       4       -0.000022885650    -0.000014702018    -0.000006503898
       5        0.000037269699     0.000032252688    -0.000012515570
       6        0.000045018083    -0.000015825001    -0.000011902420
       7       -0.000020411911     0.000038587120    -0.000034060751
       8       -0.000001605787    -0.000044900714    -0.000024545851
       9        0.000027723781     0.000019314718    -0.000026165538
      10        0.000007528410    -0.000026253489     0.000022139949
      11        0.000011867582    -0.000010803483    -0.000002605750
      12       -0.000000743521     0.000006864094    -0.000026612496
      13        0.000003319744     0.000004613504     0.000017639444

  **** Optimization is complete! (in 8 steps) ****
    Final optimized geometry and variables:
    Molecular point group: c1

    Geometry (in Angstrom), charge = 0, multiplicity = 1:

    H            0.998159342540    -0.606550056860     1.018506228333
    C            0.890105500951    -0.721290042604    -0.065387513232
    C           -0.242477164010     0.040190774583    -0.716899254529
    O            1.641497950230    -1.420091580425    -0.664938146822
    C           -0.730509120950     1.252240994430     0.084912068815
    H           -1.060647425124    -0.662455151197    -0.867291667509
    H            0.098312563169     0.330546840690    -1.704832368011
    C           -1.559095136032     0.886353920158     1.318143309441
    H           -1.330323025413     1.877454499291    -0.568913713043
    H            0.122254236456     1.859233958428     0.381616870407
    H           -2.445209230114     0.325258673648     1.035960651157
    H           -1.884979753734     1.778759704992     1.842113168293
    H           -0.998604400966     0.281484476506     2.024506256781

  Mulliken Charges: (a.u.)
   Center  Symbol    Alpha    Beta     Spin     Total
       1     H     0.42922  0.42922  0.00000  0.14156
       2     C     2.83386  2.83386  0.00000  0.33229
       3     C     3.20837  3.20837  0.00000 -0.41674
       4     O     4.24038  4.24038  0.00000 -0.48077
       5     C     3.16684  3.16684  0.00000 -0.33368
       6     H     0.40205  0.40205  0.00000  0.19590
       7     H     0.39641  0.39641  0.00000  0.20718
       8     C     3.24381  3.24381  0.00000 -0.48762
       9     H     0.41132  0.41132  0.00000  0.17737
      10     H     0.41656  0.41656  0.00000  0.16688
      11     H     0.41783  0.41783  0.00000  0.16434
      12     H     0.41360  0.41360  0.00000  0.17279
      13     H     0.41975  0.41975  0.00000  0.16049

   Total alpha = 20.00000, Total beta = 20.00000, Total charge = -0.00000
