  ==> Input File <==

--------------------------------------------------------------------------
set {
	reference rhf
	basis 6-31G*
}

set_num_threads( 4 )
memory 2 gb

molecule MOL {
0 1

O	 -2.821601	 1.309235	 -0.001213
C	 -2.668563	 0.129746	 -0.000350
C	 -3.801572	 -0.864014	 -0.000442
O	 -1.481751	 -0.454642	 0.000584
H	 -4.417280	 -0.689587	 -0.874708
H	 -3.443784	 -1.883046	 -0.000565
H	 -4.417179	 -0.689832	 0.873954
C	 -0.334255	 0.388708	 0.000906
C	 0.891947	 -0.504646	 0.000751
H	 -0.365390	 1.025305	 -0.873475
H	 -0.365484	 1.024911	 0.875569
C	 2.191998	 0.301789	 0.000897
H	 0.855148	 -1.151283	 -0.871571
H	 0.855132	 -1.151660	 0.872805
C	 3.441114	 -0.581407	 0.000108
H	 2.215074	 0.954890	 -0.869742
H	 2.215465	 0.953923	 0.872248
C	 3.343558	 -1.749421	 -0.980246
H	 3.610453	 -0.965034	 1.003717
H	 4.309828	 0.025217	 -0.245680
H	 2.503022	 -2.394175	 -0.739817
H	 4.242984	 -2.356682	 -0.957824
H	 3.208000	 -1.396495	 -1.998616

	symmetry c1
}
set optking {
	frozen_dihedral = ("
		19 15 12 16
	")
}

ee = optimize('scf')
oeprop('DIPOLE', 'QUADRUPOLE', 'MULLIKEN_CHARGES')
f=open( 'psi4out.xyz', 'w' )
f.write( "23  " )
f.write( str(ee) + "\n" )
f.write( MOL.save_string_xyz() )
f.close()
--------------------------------------------------------------------------

    Molecular point group: c1
  Charge       = 0
  Multiplicity = 1
  Basis Set: 6-31G*
  Basis Set:
  @DF-RHF Final Energy:  -422.97465797114182
    Total Energy =                       -422.9746579711413688
    Molecular point group: c1
  Basis Set: 6-31G*
  Basis Set:
  Basis Set: 6-31G*
  Basis Set:
  @DF-RHF Final Energy:  -422.97563392906682
    Total Energy =                       -422.9756339290664755
  Basis Set: 6-31G*
  Basis Set:
  Basis Set: 6-31G*
  Basis Set:
  @DF-RHF Final Energy:  -422.97664354142955
    Total Energy =                       -422.9766435414300076
  Basis Set: 6-31G*
  Basis Set:
  Basis Set: 6-31G*
  Basis Set:
  @DF-RHF Final Energy:  -422.97672728200206
    Total Energy =                       -422.9767272820024573
  Basis Set: 6-31G*
  Basis Set:
  Basis Set: 6-31G*
  Basis Set:
  @DF-RHF Final Energy:  -422.97661057944606
    Total Energy =                       -422.9766105794460600
  Basis Set: 6-31G*
  Basis Set:
  Basis Set: 6-31G*
  Basis Set:
  @DF-RHF Final Energy:  -422.97670849322145
    Total Energy =                       -422.9767084932216221
  Basis Set: 6-31G*
  Basis Set:
  Basis Set: 6-31G*
  Basis Set:
  @DF-RHF Final Energy:  -422.97674175779696
    Total Energy =                       -422.9767417577971855
  Basis Set: 6-31G*
  Basis Set:
  Charge       = 0
  Multiplicity = 1
  Basis Set: 6-31G*
  Basis Set:

    Orbital Energies (a.u.)
    -----------------------

    Doubly Occupied:

       1A    -20.602971     2A    -20.540515     3A    -11.374074
       4A    -11.281487     5A    -11.232383     6A    -11.224436
       7A    -11.223740     8A    -11.222005     9A    -11.213139
      10A     -1.467939    11A     -1.360722    12A     -1.093812
      13A     -1.040815    14A     -1.001752    15A     -0.931558
      16A     -0.856703    17A     -0.791046    18A     -0.770439
      19A     -0.691382    20A     -0.684875    21A     -0.669979
      22A     -0.638040    23A     -0.612685    24A     -0.601230
      25A     -0.574686    26A     -0.570099    27A     -0.548871
      28A     -0.538445    29A     -0.526496    30A     -0.507671
      31A     -0.498026    32A     -0.469450    33A     -0.467068
      34A     -0.465619    35A     -0.451265    36A     -0.435332

  @DF-RHF Final Energy:  -422.97674183168419

   => Energetics <=

    Nuclear Repulsion Energy =            454.5924403645200300
    One-Electron Energy =               -1476.7768475926181964
    Two-Electron Energy =                 599.2076653964129491
    DFT Exchange-Correlation Energy =       0.0000000000000000
    Empirical Dispersion Energy =           0.0000000000000000
    PCM Polarization Energy =               0.0000000000000000
    EFP Energy =                            0.0000000000000000
    Total Energy =                       -422.9767418316852172
    Molecular point group: c1
  Basis Set: 6-31G*
  Basis Set:

  -Total Gradient:
     Atom            X                  Y                   Z
    ------   -----------------  -----------------  -----------------
       1       -0.000001591140    -0.000002157207     0.000001246521
       2       -0.000003775230     0.000000216038    -0.000004655095
       3        0.000000617612     0.000001499344     0.000006491313
       4       -0.000004054773     0.000000342922    -0.000007422567
       5        0.000001088701    -0.000000805414    -0.000001873115
       6        0.000000783072     0.000000217238    -0.000000380918
       7       -0.000000812868     0.000001255323    -0.000001499139
       8       -0.000000838748    -0.000003217338     0.000016362601
       9        0.000003198732     0.000000367319     0.000001940920
      10       -0.000002140440     0.000000928455    -0.000002397702
      11        0.000005495993     0.000000126514    -0.000005097858
      12       -0.001605192691    -0.002689833430    -0.002364850523
      13        0.000003911390    -0.000001988360    -0.000000679590
      14       -0.000004527739    -0.000000582172     0.000001617418
      15       -0.002128700338    -0.003248629511    -0.000551094338
      16        0.001698843480     0.002777432023     0.002069415595
      17        0.000001241429    -0.000002477547     0.000002037456
      18       -0.000003641423     0.000004449759     0.000003929996
      19        0.002036583576     0.003162966226     0.000834250787
      20        0.000004566182    -0.000002119742    -0.000000869524
      21        0.000001525093    -0.000002837765     0.000002850249
      22        0.000002353273     0.000002998045    -0.000000941675
      23       -0.000004933135     0.000001849277     0.000001619186

  **** Optimization is complete! (in 8 steps) ****
    Final optimized geometry and variables:
    Molecular point group: c1

    Geometry (in Angstrom), charge = 0, multiplicity = 1:

    O           -2.660831750616     1.568668694519     0.197892139694
    C           -2.530785837356     0.387427633930     0.148948000802
    C           -3.682790055281    -0.584147769020     0.134494024567
    O           -1.355894447213    -0.218682515076     0.101296591065
    H           -4.313677412831    -0.363129755983    -0.718137292191
    H           -3.345133416091    -1.608874717907     0.085781988129
    H           -4.275866539323    -0.433859517868     1.028674726275
    C           -0.192260377997     0.602298150599     0.110022605868
    C            1.015935998048    -0.313357283474     0.047073672703
    H           -0.228942613467     1.273628916351    -0.737895432819
    H           -0.192878017649     1.203658898621     1.009417326493
    C            2.324096516084     0.479504017129     0.028752276747
    H            0.931347396812    -0.935701478351    -0.837390725466
    H            0.996450818168    -0.980323202286     0.905275012829
    C            3.600934534275    -0.368474448843     0.118713885986
    H            2.371716258171     1.110534595825    -0.856819185382
    H            2.326948638202     1.170885652164     0.869746309056
    C            3.679618511197    -1.539697166435    -0.859940322157
    H            3.728484229261    -0.720183931934     1.139964837686
    H            4.446688853746     0.291145630822    -0.060900627805
    H            2.930793939119    -2.296119441960    -0.650659806570
    H            4.651742966205    -2.019163821152    -0.803560237995
    H            3.536386797115    -1.204914275257    -1.883945521104

  Mulliken Charges: (a.u.)
   Center  Symbol    Alpha    Beta     Spin     Total
       1     O     4.28391  4.28391  0.00000 -0.56783
       2     C     2.61535  2.61535  0.00000  0.76930
       3     C     3.28774  3.28774  0.00000 -0.57548
       4     O     4.31282  4.31282  0.00000 -0.62564
       5     H     0.39750  0.39750  0.00000  0.20501
       6     H     0.39990  0.39990  0.00000  0.20019
       7     H     0.39750  0.39750  0.00000  0.20499
       8     C     2.99531  2.99531  0.00000  0.00939
       9     C     3.16722  3.16722  0.00000 -0.33444
      10     H     0.41064  0.41064  0.00000  0.17873
      11     H     0.41061  0.41061  0.00000  0.17877
      12     C     3.16228  3.16228  0.00000 -0.32457
      13     H     0.41143  0.41143  0.00000  0.17714
      14     H     0.41479  0.41479  0.00000  0.17041
      15     C     3.15188  3.15188  0.00000 -0.30375
      16     H     0.42020  0.42020  0.00000  0.15959
      17     H     0.41980  0.41980  0.00000  0.16039
      18     C     3.24320  3.24320  0.00000 -0.48641
      19     H     0.42109  0.42109  0.00000  0.15782
      20     H     0.41947  0.41947  0.00000  0.16106
      21     H     0.41847  0.41847  0.00000  0.16305
      22     H     0.41760  0.41760  0.00000  0.16481
      23     H     0.42127  0.42127  0.00000  0.15746

   Total alpha = 36.00000, Total beta = 36.00000, Total charge = -0.00000
