  ==> Input File <==

--------------------------------------------------------------------------
set {
	reference rhf
	basis cc-pvtz
}

set_num_threads( 4 )
memory 2 gb

molecule MOL {
0 1

H	 3.683483	 0.673224	 -0.886299
N	 2.905629	 0.048403	 -0.873682
C	 1.860978	 0.530248	 0.016256
H	 3.247059	 -0.840876	 -0.573753
C	 0.644130	 -0.381765	 -0.031064
H	 1.576468	 1.523643	 -0.314089
H	 2.195950	 0.628211	 1.049770
C	 -0.678115	 0.376691	 0.025731
H	 0.693998	 -0.977147	 -0.936845
H	 0.693309	 -1.082142	 0.800523
C	 -1.900706	 -0.535531	 -0.022488
H	 -0.725296	 1.079516	 -0.802982
H	 -0.715474	 0.974884	 0.933278
C	 -3.220513	 0.226854	 0.028039
H	 -1.865036	 -1.134397	 -0.928236
H	 -1.857948	 -1.236381	 0.806820
H	 -3.309098	 0.911849	 -0.808725
H	 -4.066838	 -0.449485	 -0.008086
H	 -3.301685	 0.809374	 0.939860

	symmetry c1
}
set optking {
	frozen_dihedral = ("
		6 3 5 9
	")
}

ee = optimize('scf')
oeprop('DIPOLE', 'QUADRUPOLE', 'MULLIKEN_CHARGES')
f=open( 'psi4out.xyz', 'w' )
f.write( "19  " )
f.write( str(ee) + "\n" )
f.write( MOL.save_string_xyz() )
f.close()
--------------------------------------------------------------------------

    Molecular point group: c1
  Charge       = 0
  Multiplicity = 1
  Basis Set: CC-PVTZ
  Basis Set:
  @DF-RHF Final Energy:  -251.44389489964971
    Total Energy =                       -251.4438948996499903
    Molecular point group: c1
  Basis Set: CC-PVTZ
  Basis Set:
  Basis Set: CC-PVTZ
  Basis Set:
  @DF-RHF Final Energy:  -251.44419540673027
    Total Energy =                       -251.4441954067302731
  Basis Set: CC-PVTZ
  Basis Set:
  Basis Set: CC-PVTZ
  Basis Set:
  @DF-RHF Final Energy:  -251.44425841196173
    Total Energy =                       -251.4442584119615276
  Basis Set: CC-PVTZ
  Basis Set:
  Basis Set: CC-PVTZ
  Basis Set:
  @DF-RHF Final Energy:  -251.44426058677865
    Total Energy =                       -251.4442605867785687
  Basis Set: CC-PVTZ
  Basis Set:
  Charge       = 0
  Multiplicity = 1
  Basis Set: CC-PVTZ
  Basis Set:

    Orbital Energies (a.u.)
    -----------------------

    Doubly Occupied:

       1A    -15.527327     2A    -11.237847     3A    -11.211433
       4A    -11.210460     5A    -11.207545     6A    -11.205090
       7A     -1.178021     8A     -1.073736     9A     -0.998423
      10A     -0.900604    11A     -0.814250    12A     -0.790262
      13A     -0.655276    14A     -0.652660    15A     -0.614555
      16A     -0.593978    17A     -0.557459    18A     -0.548772
      19A     -0.538887    20A     -0.492442    21A     -0.481934
      22A     -0.464416    23A     -0.459491    24A     -0.452678
      25A     -0.382455

  @DF-RHF Final Energy:  -251.44426084646074

   => Energetics <=

    Nuclear Repulsion Energy =            245.9793635575718440
    One-Electron Energy =                -826.3472527945849606
    Two-Electron Energy =                 328.9236283905520395
    DFT Exchange-Correlation Energy =       0.0000000000000000
    Empirical Dispersion Energy =           0.0000000000000000
    PCM Polarization Energy =               0.0000000000000000
    EFP Energy =                            0.0000000000000000
    Total Energy =                       -251.4442608464610203
    Molecular point group: c1
  Basis Set: CC-PVTZ
  Basis Set:

  -Total Gradient:
     Atom            X                  Y                   Z
    ------   -----------------  -----------------  -----------------
       1        0.000049599634     0.000006574347    -0.000015393736
       2       -0.000053376349     0.000050450825     0.000030571347
       3        0.001751150874    -0.002037531363    -0.004718935349
       4        0.000006371781    -0.000019172952     0.000014412309
       5       -0.002948479589     0.004161180915    -0.001638353394
       6       -0.001039853038     0.001045259244     0.004144406422
       7        0.000025176556    -0.000002369911     0.000027988972
       8        0.000035198219    -0.000035503718     0.000003178541
       9        0.002185779446    -0.003159979115     0.002123119648
      10       -0.000000960275    -0.000007538011     0.000011076829
      11       -0.000011969922     0.000011700064     0.000029936200
      12        0.000011685968    -0.000001381953     0.000007967998
      13        0.000008409988    -0.000015095679    -0.000001105670
      14       -0.000018475858    -0.000010127789    -0.000024680402
      15        0.000000899535     0.000005903740     0.000007854664
      16        0.000004585621     0.000004215114     0.000000603371
      17       -0.000003225812     0.000006964488     0.000001522698
      18       -0.000006707981     0.000004366179    -0.000006217095
      19        0.000004191202    -0.000007914426     0.000002046645

  **** Optimization is complete! (in 5 steps) ****
    Final optimized geometry and variables:
    Molecular point group: c1

    Geometry (in Angstrom), charge = 0, multiplicity = 1:

    H            3.775520308249     0.599824016129    -0.621392210049
    N            2.976323386699     0.005950366475    -0.693286513296
    C            1.893267369827     0.487632786011     0.149265246142
    H            3.265678633450    -0.907153505139    -0.409069799205
    C            0.663268521506    -0.421887204033     0.065150548714
    H            1.627997173005     1.491046061838    -0.164961370481
    H            2.187843397913     0.582950297934     1.195312305838
    C           -0.660935889186     0.329008076196     0.144895064334
    H            0.723160531315    -1.000456186578    -0.850679168597
    H            0.704816366964    -1.151434192594     0.871012353423
    C           -1.879983173358    -0.588322367324     0.141456265000
    H           -0.728557781222     1.019792233711    -0.691700146994
    H           -0.675673799290     0.939474916288     1.045577745280
    C           -3.201624216330     0.170195918089     0.202400984955
    H           -1.859714078272    -1.205651113489    -0.752420169540
    H           -1.817791484137    -1.271369635394     0.984251067491
    H           -3.309705810967     0.836839591250    -0.646712556941
    H           -4.045791396162    -0.509826821985     0.197819469346
    H           -3.266617559052     0.771583681028     1.103225921040

  Mulliken Charges: (a.u.)
   Center  Symbol    Alpha    Beta     Spin     Total
       1     H     0.43086  0.43086  0.00000  0.13827
       2     N     3.68491  3.68491  0.00000 -0.36982
       3     C     3.02841  3.02841  0.00000 -0.05683
       4     H     0.43111  0.43111  0.00000  0.13778
       5     C     3.08818  3.08818  0.00000 -0.17635
       6     H     0.45944  0.45944  0.00000  0.08113
       7     H     0.46781  0.46781  0.00000  0.06437
       8     C     3.08999  3.08999  0.00000 -0.17998
       9     H     0.45052  0.45052  0.00000  0.09897
      10     H     0.45748  0.45748  0.00000  0.08505
      11     C     3.08437  3.08437  0.00000 -0.16874
      12     H     0.45265  0.45265  0.00000  0.09470
      13     H     0.45584  0.45584  0.00000  0.08833
      14     C     3.15008  3.15008  0.00000 -0.30016
      15     H     0.45379  0.45379  0.00000  0.09242
      16     H     0.45521  0.45521  0.00000  0.08958
      17     H     0.45490  0.45490  0.00000  0.09019
      18     H     0.44871  0.44871  0.00000  0.10258
      19     H     0.45575  0.45575  0.00000  0.08851

   Total alpha = 25.00000, Total beta = 25.00000, Total charge =  0.00000
