                              Psi4 1.0.54 Driver

  ==> Input File <==

--------------------------------------------------------------------------
set {
	reference rhf
	basis cc-pvtz
}

set_num_threads( 4 )
memory 2 gb

molecule MOL {
0 1

H	 3.721907	 -0.933076	 -0.066039
O	 2.824271	 -1.154299	 0.131461
C	 2.076458	 -0.067370	 -0.038225
C	 0.626018	 -0.337582	 0.258241
O	 2.538288	 0.965419	 -0.381593
C	 -0.267326	 0.883135	 0.076490
H	 0.325620	 -1.161483	 -0.378003
H	 0.574537	 -0.713685	 1.275261
C	 -1.726822	 0.642622	 0.463839
H	 -0.210803	 1.217591	 -0.953497
H	 0.129920	 1.693110	 0.675679
C	 -2.743324	 1.522475	 -0.261849
H	 -1.823563	 0.812717	 1.531998
H	 -1.977102	 -0.403646	 0.302190
C	 -4.168336	 1.312504	 0.239874
H	 -2.466872	 2.565722	 -0.134395
H	 -2.714337	 1.326615	 -1.328973
H	 -4.868418	 1.948962	 -0.288794
H	 -4.247925	 1.539499	 1.297625
H	 -4.484923	 0.284356	 0.099019

	symmetry c1
}
set optking {
	frozen_dihedral = ("
		12 9 6 10
	")
}

ee,wfn = optimize('scf', return_wfn=True)
oeprop( wfn, 'DIPOLE', 'QUADRUPOLE', 'MULLIKEN_CHARGES')
f=open( 'psi4out.xyz', 'w' )
f.write( "20  " )
f.write( str(ee) + "\n" )
f.write( MOL.save_string_xyz() )
f.close()
--------------------------------------------------------------------------

    Molecular point group: c1
  Charge       = 0
  Multiplicity = 1
  Basis Set: CC-PVTZ
  Basis Set:
  @DF-RHF Final Energy:  -384.09383969901938
    Total Energy =                       -384.0938396990194974
    Molecular point group: c1
  Basis Set: CC-PVTZ
  Basis Set:
  Basis Set: CC-PVTZ
  Basis Set:
  @DF-RHF Final Energy:  -384.09435532515050
    Total Energy =                       -384.0943553251501612
  Basis Set: CC-PVTZ
  Basis Set:
  Basis Set: CC-PVTZ
  Basis Set:
  @DF-RHF Final Energy:  -384.09388735513210
    Total Energy =                       -384.0938873551316419
  Basis Set: CC-PVTZ
  Basis Set:
  Basis Set: CC-PVTZ
  Basis Set:
  @DF-RHF Final Energy:  -384.09441144280242
    Total Energy =                       -384.0944114428026523
  Basis Set: CC-PVTZ
  Basis Set:
  Charge       = 0
  Multiplicity = 1
  Basis Set: CC-PVTZ
  Basis Set:

    Orbital Energies (a.u.)
    -----------------------

    Doubly Occupied:

       1A    -20.604091     2A    -20.540692     3A    -11.373561
       4A    -11.239632     5A    -11.220437     6A    -11.218223
       7A    -11.216859     8A    -11.209223     9A     -1.477593
      10A     -1.369204    11A     -1.096379    12A     -1.044015
      13A     -0.960412    14A     -0.869781    15A     -0.805711
      16A     -0.791454    17A     -0.703906    18A     -0.689914
      19A     -0.670333    20A     -0.639307    21A     -0.598046
      22A     -0.595922    23A     -0.570527    24A     -0.564364
      25A     -0.541226    26A     -0.510286    27A     -0.489467
      28A     -0.484543    29A     -0.473472    30A     -0.467249
      31A     -0.463667    32A     -0.444163

  @DF-RHF Final Energy:  -384.09441192714360

   => Energetics <=

    Nuclear Repulsion Energy =            372.2177751811215103
    One-Electron Energy =               -1260.7370553790840404
    Two-Electron Energy =                 504.4248682708186493
    DFT Exchange-Correlation Energy =       0.0000000000000000
    Empirical Dispersion Energy =           0.0000000000000000
    PCM Polarization Energy =               0.0000000000000000
    EFP Energy =                            0.0000000000000000
    Total Energy =                       -384.0944119271438808
    Molecular point group: c1
  Basis Set: CC-PVTZ
  Basis Set:

  -Total Gradient:
     Atom            X                  Y                   Z
    ------   -----------------  -----------------  -----------------
       1       -0.000042087518     0.000019547996     0.000010993005
       2        0.000033961360    -0.000150522411     0.000116325111
       3        0.000028339326    -0.000085631294    -0.000260686116
       4        0.000124334098    -0.000048517699    -0.000012008004
       5       -0.000113571008     0.000111848156     0.000099305861
       6        0.000135003770    -0.005992604219    -0.002337279812
       7        0.000072024765     0.000014135897    -0.000006485380
       8        0.000002437171     0.000046763389    -0.000021212721
       9        0.000499291254     0.003895632337     0.003210770312
      10       -0.000373330036     0.003983512614     0.001311255157
      11       -0.000043849171     0.000087877973     0.000065501038
      12       -0.000348733546    -0.001950035039    -0.002064449193
      13        0.000131931844     0.000069163407    -0.000050413765
      14        0.000049193197    -0.000080759514     0.000077242441
      15       -0.000101285905     0.000024800010    -0.000137628865
      16       -0.000051117778     0.000077115406     0.000017589257
      17        0.000008354492     0.000018489517    -0.000014158188
      18       -0.000045935383    -0.000021109831     0.000000135214
      19        0.000045518731     0.000031501160    -0.000004914567
      20       -0.000010479652    -0.000051207852     0.000000119216

  **** Optimization is complete! (in 5 steps) ****
    Final optimized geometry and variables:
    Molecular point group: c1

    Geometry (in Angstrom), charge = 0, multiplicity = 1:

    H            3.746364752370    -1.451237001423    -0.200970723243
    O            2.852059032111    -1.647946639937     0.034002882261
    C            2.121072849411    -0.549942099364    -0.137653772173
    C            0.677270356409    -0.780828980894     0.217232517261
    O            2.589994683283     0.464445717709    -0.523727533345
    C           -0.204109612703     0.444412688245     0.032088307782
    H            0.329133828257    -1.612796844950    -0.385845787367
    H            0.653092051903    -1.130505880555     1.244497471146
    C           -1.654772150595     0.206424746386     0.463010338956
    H           -0.170202757265     0.780282492262    -0.997699724187
    H            0.211720990634     1.266595100119     0.603736048550
    C           -2.652854220673     1.110417528462    -0.256098534601
    H           -1.743324899559     0.337166638396     1.537680775421
    H           -1.929805045548    -0.827130703339     0.263313638962
    C           -4.091973563639     0.897559832181     0.200503942982
    H           -2.376330441618     2.150468939193    -0.103529797285
    H           -2.582099213727     0.931224931340    -1.324900416001
    H           -4.774908807712     1.542041308490    -0.340729327011
    H           -4.202928035391     1.112339830268     1.258122120974
    H           -4.406551608918    -0.128219327727     0.037981342440

  Mulliken Charges: (a.u.)
   Center  Symbol    Alpha    Beta     Spin     Total
       1     H     0.38241  0.38241  0.00000  0.23518
       2     O     4.15980  4.15980  0.00000 -0.31959
       3     C     2.80546  2.80546  0.00000  0.38908
       4     C     3.11114  3.11114  0.00000 -0.22227
       5     O     4.19108  4.19108  0.00000 -0.38216
       6     C     3.08739  3.08739  0.00000 -0.17477
       7     H     0.43788  0.43788  0.00000  0.12424
       8     H     0.43700  0.43700  0.00000  0.12599
       9     C     3.08940  3.08940  0.00000 -0.17881
      10     H     0.44609  0.44609  0.00000  0.10781
      11     H     0.44480  0.44480  0.00000  0.11040
      12     C     3.08420  3.08420  0.00000 -0.16839
      13     H     0.45196  0.45196  0.00000  0.09608
      14     H     0.45764  0.45764  0.00000  0.08473
      15     C     3.15028  3.15028  0.00000 -0.30055
      16     H     0.45218  0.45218  0.00000  0.09564
      17     H     0.45356  0.45356  0.00000  0.09287
      18     H     0.44761  0.44761  0.00000  0.10479
      19     H     0.45475  0.45475  0.00000  0.09049
      20     H     0.45538  0.45538  0.00000  0.08924

   Total alpha = 32.00000, Total beta = 32.00000, Total charge =  0.00000

*** Psi4 exiting successfully. Buy a developer a beer!
