                              Psi4 1.0.54 Driver

  ==> Input File <==

--------------------------------------------------------------------------
set {
	reference rhf
	basis cc-pvtz
}

set_num_threads( 4 )
memory 2 gb

molecule MOL {
0 1

H	 2.828711	 -0.346904	 0.001083
C	 1.876752	 0.015931	 -0.363450
C	 0.776285	 -0.474665	 0.563092
H	 1.728113	 -0.357244	 -1.367440
H	 1.906171	 1.096574	 -0.386153
N	 -0.540022	 0.017605	 0.071630
H	 0.707111	 -1.548969	 0.573035
H	 0.886169	 -0.084184	 1.560432
O	 -0.831525	 1.136654	 0.330377
O	 -1.219353	 -0.751976	 -0.520528

	symmetry c1
}
set optking {
	frozen_dihedral = ("
		9 6 3 2
	")
}

ee,wfn = optimize('scf', return_wfn=True)
oeprop( wfn, 'DIPOLE', 'QUADRUPOLE', 'MULLIKEN_CHARGES')
f=open( 'psi4out.xyz', 'w' )
f.write( "10  " )
f.write( str(ee) + "\n" )
f.write( MOL.save_string_xyz() )
f.close()
--------------------------------------------------------------------------

    Molecular point group: c1
  Charge       = 0
  Multiplicity = 1
  Basis Set: CC-PVTZ
  Basis Set:
  @DF-RHF Final Energy:  -282.81314286915199
    Total Energy =                       -282.8131428691521023
    Molecular point group: c1
  Basis Set: CC-PVTZ
  Basis Set:
  Basis Set: CC-PVTZ
  Basis Set:
  @DF-RHF Final Energy:  -282.80807606295753
    Total Energy =                       -282.8080760629576389
  Basis Set: CC-PVTZ
  Basis Set:
  Basis Set: CC-PVTZ
  Basis Set:
  @DF-RHF Final Energy:  -282.81242225886149
    Total Energy =                       -282.8124222588616021
  Basis Set: CC-PVTZ
  Basis Set:
  Basis Set: CC-PVTZ
  Basis Set:
  @DF-RHF Final Energy:  -282.81333765908607
    Total Energy =                       -282.8133376590861872
  Basis Set: CC-PVTZ
  Basis Set:
  Basis Set: CC-PVTZ
  Basis Set:
  @DF-RHF Final Energy:  -282.81334098137529
    Total Energy =                       -282.8133409813752905
  Basis Set: CC-PVTZ
  Basis Set:
  Charge       = 0
  Multiplicity = 1
  Basis Set: CC-PVTZ
  Basis Set:

    Orbital Energies (a.u.)
    -----------------------

    Doubly Occupied:

       1A    -20.592791     2A    -20.590953     3A    -15.838386
       4A    -11.301843     5A    -11.250759     6A     -1.637690
       7A     -1.422089     8A     -1.126526     9A     -0.966831
      10A     -0.839693    11A     -0.763602    12A     -0.739772
      13A     -0.730170    14A     -0.659642    15A     -0.590582
      16A     -0.560284    17A     -0.549514    18A     -0.488504
      19A     -0.479348    20A     -0.454868

  @DF-RHF Final Energy:  -282.81334239595787

   => Energetics <=

    Nuclear Repulsion Energy =            186.7761710354016031
    One-Electron Energy =                -756.0113303267428364
    Two-Electron Energy =                 286.4218168953832446
    DFT Exchange-Correlation Energy =       0.0000000000000000
    Empirical Dispersion Energy =           0.0000000000000000
    PCM Polarization Energy =               0.0000000000000000
    EFP Energy =                            0.0000000000000000
    Total Energy =                       -282.8133423959579886
    Molecular point group: c1
  Basis Set: CC-PVTZ
  Basis Set:

  -Total Gradient:
     Atom            X                  Y                   Z
    ------   -----------------  -----------------  -----------------
       1       -0.000000263960     0.000002170689     0.000000238915
       2        0.000003489166     0.000020576836     0.000017802146
       3        0.000007146895    -0.000040385700    -0.000034105794
       4        0.000006391349     0.000003798362    -0.000003382959
       5       -0.000009450682     0.000001365362     0.000012259547
       6       -0.000046784863     0.000025163724     0.000076674182
       7        0.000006057109     0.000005204277    -0.000007569640
       8        0.000016470189    -0.000005364354     0.000008390477
       9        0.000014376263    -0.000085829914    -0.000108091994
      10        0.000002568537     0.000073300718     0.000037785120

  **** Optimization is complete! (in 6 steps) ****
    Final optimized geometry and variables:
    Molecular point group: c1

    Geometry (in Angstrom), charge = 0, multiplicity = 1:

    H            2.819028695331    -0.427555139069    -0.021372873853
    C            1.875603115471    -0.036632842623    -0.379101510303
    C            0.768855443975    -0.490904919630     0.557977494120
    H            1.708520087115    -0.409391972499    -1.380872303617
    H            1.936390519530     1.042008524701    -0.406787695846
    N           -0.538948306669     0.032697099720     0.075287651505
    H            0.670398818309    -1.562172007073     0.582089456348
    H            0.897618466816    -0.092353374889     1.550610958400
    O           -0.794926648205     1.161224508276     0.331984993581
    O           -1.223300854918    -0.702741328764    -0.552490741545

  Mulliken Charges: (a.u.)
   Center  Symbol    Alpha    Beta     Spin     Total
       1     H     0.44795  0.44795  0.00000  0.10410
       2     C     3.14083  3.14083  0.00000 -0.28166
       3     C     3.03742  3.03742  0.00000 -0.07483
       4     H     0.44228  0.44228  0.00000  0.11544
       5     H     0.43935  0.43935  0.00000  0.12130
       6     N     3.27660  3.27660  0.00000  0.44680
       7     H     0.43402  0.43402  0.00000  0.13196
       8     H     0.43564  0.43564  0.00000  0.12871
       9     O     4.17450  4.17450  0.00000 -0.34900
      10     O     4.17141  4.17141  0.00000 -0.34283

   Total alpha = 20.00000, Total beta = 20.00000, Total charge = -0.00000

*** Psi4 exiting successfully. Buy a developer a beer!
