  ==> Input File <==

--------------------------------------------------------------------------
set {
	reference rhf
	basis cc-pvtz
}

set_num_threads( 4 )
memory 2 gb

molecule MOL {
0 1

H	 -1.835082	 1.385983	 0.000069
C	 -1.300516	 0.441153	 -0.000028
O	 -0.006604	 0.654344	 -0.000106
O	 -1.828920	 -0.612308	 0.000113
C	 0.544549	 1.384445	 1.092142
C	 2.033434	 1.498117	 0.866308
H	 0.318955	 0.861872	 2.010828
H	 0.072356	 2.355524	 1.136883
H	 2.492187	 0.518650	 0.819821
H	 2.484516	 2.050022	 1.682262
H	 2.244352	 2.019790	 -0.058538

	symmetry c1
}
set optking {
	frozen_dihedral = ("
		5 3 2 4
	")
}

ee = optimize('scf')
oeprop('DIPOLE', 'QUADRUPOLE', 'MULLIKEN_CHARGES')
f=open( 'psi4out.xyz', 'w' )
f.write( "11  " )
f.write( str(ee) + "\n" )
f.write( MOL.save_string_xyz() )
f.close()
--------------------------------------------------------------------------

    Molecular point group: c1
  Charge       = 0
  Multiplicity = 1
  Basis Set: CC-PVTZ
  Basis Set:
  @DF-RHF Final Energy:  -266.91465366566354
    Total Energy =                       -266.9146536656635931
    Molecular point group: c1
  Basis Set: CC-PVTZ
  Basis Set:
  Basis Set: CC-PVTZ
  Basis Set:
  @DF-RHF Final Energy:  -266.91570375863171
    Total Energy =                       -266.9157037586317074
  Basis Set: CC-PVTZ
  Basis Set:
  Basis Set: CC-PVTZ
  Basis Set:
  @DF-RHF Final Energy:  -266.91432307931257
    Total Energy =                       -266.9143230793122825
  Basis Set: CC-PVTZ
  Basis Set:
  Basis Set: CC-PVTZ
  Basis Set:
  @DF-RHF Final Energy:  -266.91599495385492
    Total Energy =                       -266.9159949538548062
  Basis Set: CC-PVTZ
  Basis Set:
  Basis Set: CC-PVTZ
  Basis Set:
  @DF-RHF Final Energy:  -266.91601211809842
    Total Energy =                       -266.9160121180984220
  Basis Set: CC-PVTZ
  Basis Set:
  Basis Set: CC-PVTZ
  Basis Set:
  @DF-RHF Final Energy:  -266.91602246550974
    Total Energy =                       -266.9160224655096272
  Basis Set: CC-PVTZ
  Basis Set:
  Charge       = 0
  Multiplicity = 1
  Basis Set: CC-PVTZ
  Basis Set:

    Orbital Energies (a.u.)
    -----------------------

    Doubly Occupied:

       1A    -20.592535     2A    -20.556377     3A    -11.373448
       4A    -11.302853     5A    -11.229622     6A     -1.472420
       7A     -1.384872     8A     -1.052320     9A     -0.887613
      10A     -0.839542    11A     -0.743720    12A     -0.693979
      13A     -0.658000    14A     -0.633342    15A     -0.567880
      16A     -0.547200    17A     -0.539153    18A     -0.510498
      19A     -0.467615    20A     -0.456568

  @DF-RHF Final Energy:  -266.91602304099615

   => Energetics <=

    Nuclear Repulsion Energy =            176.9390102121044777
    One-Electron Energy =                -714.6909514765502536
    Two-Electron Energy =                 270.8359182234496529
    DFT Exchange-Correlation Energy =       0.0000000000000000
    Empirical Dispersion Energy =           0.0000000000000000
    PCM Polarization Energy =               0.0000000000000000
    EFP Energy =                            0.0000000000000000
    Total Energy =                       -266.9160230409961514
    Molecular point group: c1
  Basis Set: CC-PVTZ
  Basis Set:

  -Total Gradient:
     Atom            X                  Y                   Z
    ------   -----------------  -----------------  -----------------
       1       -0.000005545163    -0.000013454881     0.000010624808
       2        0.000483438342    -0.002409601849    -0.007122727182
       3       -0.000346178039     0.005375837188    -0.000878374794
       4       -0.000291967474     0.000508345191     0.005542948207
       5        0.000146712838    -0.003476882514     0.002421691064
       6        0.000006863589     0.000002995413     0.000014518254
       7        0.000008510921    -0.000000658841    -0.000001651926
       8        0.000000311083     0.000015662210     0.000006944899
       9        0.000000781513     0.000000492204    -0.000001900409
      10        0.000004872000    -0.000000257193     0.000002562580
      11       -0.000007799616    -0.000002476929     0.000005364501

  **** Optimization is complete! (in 7 steps) ****
    Final optimized geometry and variables:
    Molecular point group: c1

    Geometry (in Angstrom), charge = 0, multiplicity = 1:

    H           -1.687104904027     0.765567154082    -0.519088672805
    C           -1.188886323755    -0.200354363827    -0.423359825592
    O            0.137506187016    -0.105000646230    -0.369822316905
    O           -1.775526603823    -1.211930025774    -0.362951768069
    C            0.672210309638     0.665978833783     0.693150784407
    C            2.151499065489     0.850646165328     0.452413188211
    H            0.492134419887     0.143907652041     1.625244771118
    H            0.166099325552     1.626381621014     0.738365640992
    H            2.648193503358    -0.109069195390     0.399631537253
    H            2.587856676002     1.422375069054     1.262748828770
    H            2.323835675241     1.378874181233    -0.476406669026

  Mulliken Charges: (a.u.)
   Center  Symbol    Alpha    Beta     Spin     Total
       1     H     0.47254  0.47254  0.00000  0.05492
       2     C     2.84022  2.84022  0.00000  0.31955
       3     O     4.14543  4.14543  0.00000 -0.29087
       4     O     4.16450  4.16450  0.00000 -0.32900
       5     C     2.97199  2.97199  0.00000  0.05601
       6     C     3.13314  3.13314  0.00000 -0.26627
       7     H     0.45645  0.45645  0.00000  0.08711
       8     H     0.46554  0.46554  0.00000  0.06892
       9     H     0.44514  0.44514  0.00000  0.10972
      10     H     0.45563  0.45563  0.00000  0.08874
      11     H     0.44942  0.44942  0.00000  0.10117

   Total alpha = 20.00000, Total beta = 20.00000, Total charge = -0.00000
