                              Psi4 1.0.54 Driver

  ==> Input File <==

--------------------------------------------------------------------------
set {
	reference rhf
	basis cc-pvtz
}

set_num_threads( 4 )
memory 2 gb

molecule MOL {
0 1

H	 -4.024094	 -0.454727	 0.000004
C	 -2.962215	 -0.297920	 0.000004
C	 -2.454736	 0.988978	 0.000025
C	 -2.105837	 -1.382632	 -0.000016
H	 -3.120052	 1.830438	 0.000041
C	 -1.090106	 1.189676	 0.000026
H	 -2.500390	 -2.380229	 -0.000033
C	 -0.739175	 -1.183302	 -0.000016
H	 -0.680214	 2.179144	 0.000042
C	 -0.227341	 0.104540	 0.000006
H	 -0.073209	 -2.021168	 -0.000032
C	 1.238974	 0.374429	 0.000004
O	 1.955036	 -0.653621	 0.415159
O	 1.719942	 1.404151	 -0.336928
C	 3.359217	 -0.490292	 0.449251
H	 3.740666	 -0.277428	 -0.537947
H	 3.756857	 -1.424880	 0.809830
H	 3.631714	 0.314191	 1.115547

	symmetry c1
}
set optking {
	frozen_dihedral = ("
		13 12 10 6
	")
}

ee,wfn = optimize('scf', return_wfn=True)
oeprop( wfn, 'DIPOLE', 'QUADRUPOLE', 'MULLIKEN_CHARGES')
f=open( 'psi4out.xyz', 'w' )
f.write( "18  " )
f.write( str(ee) + "\n" )
f.write( MOL.save_string_xyz() )
f.close()
--------------------------------------------------------------------------

    Molecular point group: c1
  Charge       = 0
  Multiplicity = 1
  Basis Set: CC-PVTZ
  Basis Set:
  @DF-RHF Final Energy:  -457.50918244436167
    Total Energy =                       -457.5091824443620681
    Molecular point group: c1
  Basis Set: CC-PVTZ
  Basis Set:
  Basis Set: CC-PVTZ
  Basis Set:
  @DF-RHF Final Energy:  -457.50808097413477
    Total Energy =                       -457.5080809741346002
  Basis Set: CC-PVTZ
  Basis Set:
  Basis Set: CC-PVTZ
  Basis Set:
  @DF-RHF Final Energy:  -457.50922158084290
    Total Energy =                       -457.5092215808426772
  Basis Set: CC-PVTZ
  Basis Set:
  Basis Set: CC-PVTZ
  Basis Set:
  @DF-RHF Final Energy:  -457.50928334299545
    Total Energy =                       -457.5092833429951042
  Basis Set: CC-PVTZ
  Basis Set:
  Charge       = 0
  Multiplicity = 1
  Basis Set: CC-PVTZ
  Basis Set:

    Orbital Energies (a.u.)
    -----------------------

    Doubly Occupied:

       1A    -20.601403     2A    -20.534998     3A    -11.371859
       4A    -11.281393     5A    -11.245469     6A    -11.243049
       7A    -11.242788     8A    -11.240439     9A    -11.236389
      10A    -11.235653    11A     -1.477235    12A     -1.368823
      13A     -1.171038    14A     -1.052077    15A     -1.029267
      16A     -0.980717    17A     -0.863261    18A     -0.839079
      19A     -0.781531    20A     -0.744625    21A     -0.687900
      22A     -0.681998    23A     -0.677234    24A     -0.633904
      25A     -0.630820    26A     -0.601176    27A     -0.588772
      28A     -0.563168    29A     -0.532928    30A     -0.520167
      31A     -0.510233    32A     -0.502998    33A     -0.463889
      34A     -0.449557    35A     -0.349960    36A     -0.346523

  @DF-RHF Final Energy:  -457.50928452524022

   => Energetics <=

    Nuclear Repulsion Energy =            493.9722821731429576
    One-Electron Energy =               -1602.3984973355900365
    Two-Electron Energy =                 650.9169306372068604
    DFT Exchange-Correlation Energy =       0.0000000000000000
    Empirical Dispersion Energy =           0.0000000000000000
    PCM Polarization Energy =               0.0000000000000000
    EFP Energy =                            0.0000000000000000
    Total Energy =                       -457.5092845252402185
    Molecular point group: c1
  Basis Set: CC-PVTZ
  Basis Set:

  -Total Gradient:
     Atom            X                  Y                   Z
    ------   -----------------  -----------------  -----------------
       1       -0.000000074290     0.000000486599     0.000002325808
       2        0.000008302530    -0.000039178341    -0.000008328754
       3        0.000033314207     0.000015455590    -0.000001986824
       4       -0.000047073579     0.000000716878     0.000005135965
       5       -0.000004486098    -0.000003177412    -0.000001248225
       6       -0.000067565034     0.000011477234     0.002371873036
       7       -0.000006068964     0.000001641448     0.000001649473
       8        0.000013787003     0.000002747812    -0.000002590983
       9        0.000010766808    -0.000010781061     0.000002656625
      10        0.000040365404     0.000311029278    -0.002609835565
      11       -0.000005114248     0.000010426583    -0.000016417952
      12        0.000308519962    -0.001243230361    -0.001933637515
      13       -0.000299036136     0.000846575632     0.002232606138
      14       -0.000055800895     0.000109397696    -0.000049904992
      15        0.000102448596     0.000009527047     0.000006534978
      16       -0.000002668190    -0.000003373456     0.000022517567
      17       -0.000018522216    -0.000000326523    -0.000002179811
      18       -0.000011094858    -0.000019414642    -0.000019168969

  **** Optimization is complete! (in 5 steps) ****
    Final optimized geometry and variables:
    Molecular point group: c1

    Geometry (in Angstrom), charge = 0, multiplicity = 1:

    H           -4.018816903024    -0.479458723904    -0.054599231593
    C           -2.957605811169    -0.318257341132    -0.059011948282
    C           -2.455530993323     0.970645418298    -0.063044103054
    C           -2.096446421647    -1.399314261215    -0.057828686816
    H           -3.124439181454     1.809329863194    -0.058333569413
    C           -1.091550576679     1.177470865612    -0.074535851563
    H           -2.486622919619    -2.398670516592    -0.053982593309
    C           -0.730650633736    -1.193850416756    -0.054560052460
    H           -0.686743797288     2.169248422210    -0.087194210411
    C           -0.225138235464     0.095878818580    -0.074046111776
    H           -0.060405392303    -2.028750198045    -0.040266697906
    C            1.240676910257     0.369115530421    -0.063005270189
    O            1.953093885040    -0.661067197310     0.352314545775
    O            1.719922367296     1.409228868457    -0.368333856837
    C            3.357622558442    -0.501405595235     0.390180760539
    H            3.742108483753    -0.279278695296    -0.593983675376
    H            3.752784190840    -1.440121769106     0.742650426533
    H            3.630179141218     0.295926062174     1.064959070424

  Mulliken Charges: (a.u.)
   Center  Symbol    Alpha    Beta     Spin     Total
       1     H     0.42043  0.42043  0.00000  0.15915
       2     C     3.07143  3.07143  0.00000 -0.14286
       3     C     3.07386  3.07386  0.00000 -0.14772
       4     C     3.07358  3.07358  0.00000 -0.14715
       5     H     0.42056  0.42056  0.00000  0.15889
       6     C     3.08013  3.08013  0.00000 -0.16026
       7     H     0.42182  0.42182  0.00000  0.15636
       8     C     3.08339  3.08339  0.00000 -0.16677
       9     H     0.40818  0.40818  0.00000  0.18365
      10     C     2.99258  2.99258  0.00000  0.01484
      11     H     0.41313  0.41313  0.00000  0.17374
      12     C     2.79770  2.79770  0.00000  0.40460
      13     O     4.14714  4.14714  0.00000 -0.29428
      14     O     4.20956  4.20956  0.00000 -0.41911
      15     C     3.03657  3.03657  0.00000 -0.07315
      16     H     0.45324  0.45324  0.00000  0.09352
      17     H     0.44478  0.44478  0.00000  0.11044
      18     H     0.45194  0.45194  0.00000  0.09613

   Total alpha = 36.00000, Total beta = 36.00000, Total charge =  0.00000

*** Psi4 exiting successfully. Buy a developer a beer!
