  ==> Input File <==

--------------------------------------------------------------------------
set {
	reference rhf
	basis 6-31G*
}

set_num_threads( 1 )
memory 2 gb

molecule MOL {
0 1

H	 2.176868	 -0.646004	 -0.217325
O	 1.337496	 -0.537251	 0.205931
C	 0.702312	 0.627605	 -0.264544
C	 -0.714990	 0.596302	 0.266387
H	 0.682322	 0.642550	 -1.350929
H	 1.215941	 1.520383	 0.085680
O	 -1.405996	 -0.526611	 -0.195820
H	 -1.257453	 1.468809	 -0.075599
H	 -0.688972	 0.618407	 1.353696
H	 -2.290948	 -0.255547	 -0.404143

	symmetry c1
}
set optking {
	frozen_dihedral = ("
		5 3 4 7
	")
}

ee = energy('scf')
oeprop('DIPOLE', 'QUADRUPOLE', 'MULLIKEN_CHARGES')
f=open( 'psi4out.xyz', 'w' )
f.write( "10  " )
f.write( str(ee) + "\n" )
f.write( MOL.save_string_xyz() )
f.close()
--------------------------------------------------------------------------

    Molecular point group: c1

    Geometry (in Angstrom), charge = 0, multiplicity = 1:

       Center              X                  Y                   Z               Mass
    ------------   -----------------  -----------------  -----------------  -----------------
           H          2.199617395008    -0.662853730746    -0.210401012436     1.007825032070
           O          1.360245395008    -0.554100730746     0.212854987564    15.994914619560
           C          0.725061395008     0.610755269254    -0.257620012436    12.000000000000
           C         -0.692240604992     0.579452269254     0.273310987564    12.000000000000
           H          0.705071395008     0.625700269254    -1.344005012436     1.007825032070
           H          1.238690395008     1.503533269254     0.092603987564     1.007825032070
           O         -1.383246604992    -0.543460730746    -0.188896012436    15.994914619560
           H         -1.234703604992     1.451959269254    -0.068675012436     1.007825032070
           H         -0.666222604992     0.601557269254     1.360619987564     1.007825032070
           H         -2.268198604992    -0.272396730746    -0.397219012436     1.007825032070

  Charge       = 0
  Multiplicity = 1
  Basis Set: 6-31G*
  Basis Set:

    Orbital Energies (a.u.)
    -----------------------

    Doubly Occupied:

       1A    -20.551070     2A    -20.550947     3A    -11.271185
       4A    -11.269606     5A     -1.370417     6A     -1.347913
       7A     -0.999734     8A     -0.832232     9A     -0.722267
      10A     -0.686096    11A     -0.638327    12A     -0.593420
      13A     -0.577233    14A     -0.515160    15A     -0.486561
      16A     -0.440123    17A     -0.432297

  @DF-RHF Final Energy:  -228.91563501475923

   => Energetics <=

    Nuclear Repulsion Energy =            133.6964407626539924
    One-Electron Energy =                -578.6549828940751468
    Two-Electron Energy =                 216.0429071166619224
    DFT Exchange-Correlation Energy =       0.0000000000000000
    Empirical Dispersion Energy =           0.0000000000000000
    PCM Polarization Energy =               0.0000000000000000
    EFP Energy =                            0.0000000000000000
    Total Energy =                       -228.9156350147592320

  Mulliken Charges: (a.u.)
   Center  Symbol    Alpha    Beta     Spin     Total
       1     H     0.28028  0.28028  0.00000  0.43945
       2     O     4.36557  4.36557  0.00000 -0.73113
       3     C     2.99876  2.99876  0.00000  0.00248
       4     C     2.99970  2.99970  0.00000  0.00061
       5     H     0.42753  0.42753  0.00000  0.14494
       6     H     0.43096  0.43096  0.00000  0.13808
       7     O     4.36248  4.36248  0.00000 -0.72497
       8     H     0.43453  0.43453  0.00000  0.13093
       9     H     0.41968  0.41968  0.00000  0.16063
      10     H     0.28051  0.28051  0.00000  0.43898

   Total alpha = 17.00000, Total beta = 17.00000, Total charge =  0.00000
