  ==> Input File <==

--------------------------------------------------------------------------
set {
	reference rhf
	basis 6-31G*
}

set_num_threads( 4 )
memory 2 gb

molecule MOL {
0 1

H	 2.548937	 -5.580792	 -1.403861
C	 2.408077	 -4.554396	 -1.117957
C	 1.157576	 -4.100031	 -0.712959
C	 3.464258	 -3.667211	 -1.146872
H	 0.322713	 -4.777532	 -0.684245
C	 0.973147	 -2.784637	 -0.345640
H	 4.438612	 -4.000814	 -1.457402
C	 3.294797	 -2.336560	 -0.779301
H	 0.012810	 -2.420599	 -0.030896
C	 2.044290	 -1.894206	 -0.377261
H	 4.135529	 -1.671171	 -0.812375
O	 1.765256	 -0.628444	 0.000000
C	 2.778419	 0.335181	 0.000000
H	 2.731280	 0.961222	 -0.884976
H	 3.711703	 -0.207767	 0.000000
H	 2.731280	 0.961222	 0.884976

	symmetry c1
}
set optking {
	frozen_dihedral = ("
		10 12 13 14
	")
}

ee = optimize('scf')
oeprop('DIPOLE', 'QUADRUPOLE', 'MULLIKEN_CHARGES')
f=open( 'psi4out.xyz', 'w' )
f.write( "16  " )
f.write( str(ee) + "\n" )
f.write( MOL.save_string_xyz() )
f.close()
--------------------------------------------------------------------------

    Molecular point group: c1
  Charge       = 0
  Multiplicity = 1
  Basis Set: 6-31G*
  Basis Set:
  @DF-RHF Final Energy:  -344.57351883241284
    Total Energy =                       -344.5735188324129012
    Molecular point group: c1
  Basis Set: 6-31G*
  Basis Set:
  Basis Set: 6-31G*
  Basis Set:
  @DF-RHF Final Energy:  -344.57378350328150
    Total Energy =                       -344.5737835032813905
  Basis Set: 6-31G*
  Basis Set:
  Basis Set: 6-31G*
  Basis Set:
  @DF-RHF Final Energy:  -344.57847980500600
    Total Energy =                       -344.5784798050058271
  Basis Set: 6-31G*
  Basis Set:
  Basis Set: 6-31G*
  Basis Set:
  @DF-RHF Final Energy:  -344.57933025711770
    Total Energy =                       -344.5793302571178174
  Basis Set: 6-31G*
  Basis Set:
  @DF-RHF Final Energy:  -344.57996794730104
    Total Energy =                       -344.5799679473012702
  Basis Set: 6-31G*
  Basis Set:
  @DF-RHF Final Energy:  -344.58004195153904
    Total Energy =                       -344.5800419515389308
  Basis Set: 6-31G*
  Basis Set:
  Basis Set: 6-31G*
  Basis Set:
  @DF-RHF Final Energy:  -344.58004961729893
    Total Energy =                       -344.5800496172990393
  Basis Set: 6-31G*
  Basis Set:
  Basis Set: 6-31G*
  Basis Set:
  @DF-RHF Final Energy:  -344.58005119662164
    Total Energy =                       -344.5800511966215822
  Basis Set: 6-31G*
  Basis Set:
  Charge       = 0
  Multiplicity = 1
  Basis Set: 6-31G*
  Basis Set:

    Orbital Energies (a.u.)
    -----------------------

    Doubly Occupied:

       1A    -20.580124     2A    -11.292523     3A    -11.278714
       4A    -11.233059     5A    -11.231492     6A    -11.224223
       7A    -11.220487     8A    -11.219701     9A     -1.408671
      10A     -1.145935    11A     -1.020405    12A     -1.013021
      13A     -0.939691    14A     -0.831321    15A     -0.804755
      16A     -0.718904    17A     -0.663935    18A     -0.661262
      19A     -0.651234    20A     -0.615016    21A     -0.588403
      22A     -0.579172    23A     -0.525996    24A     -0.515113
      25A     -0.507678    26A     -0.479284    27A     -0.453136
      28A     -0.334423    29A     -0.307180

  @DF-RHF Final Energy:  -344.58005145726031

   => Energetics <=

    Nuclear Repulsion Energy =            347.7801026005041649
    One-Electron Energy =               -1156.6305985012809288
    Two-Electron Energy =                 464.2704444435163396
    DFT Exchange-Correlation Energy =       0.0000000000000000
    Empirical Dispersion Energy =           0.0000000000000000
    PCM Polarization Energy =               0.0000000000000000
    EFP Energy =                            0.0000000000000000
    Total Energy =                       -344.5800514572604243
    Molecular point group: c1
  Basis Set: 6-31G*
  Basis Set:

  -Total Gradient:
     Atom            X                  Y                   Z
    ------   -----------------  -----------------  -----------------
       1       -0.000005316989    -0.000005477575     0.000001178505
       2        0.000013723875     0.000012751404     0.000011133110
       3       -0.000005069294     0.000007314755    -0.000024107774
       4        0.000008089091    -0.000024432887    -0.000011694517
       5        0.000010232258    -0.000001705179     0.000004389534
       6       -0.000020567493     0.000047894395    -0.000003155567
       7       -0.000006557224    -0.000000471495     0.000002287616
       8       -0.000007767137     0.000034250910     0.000004143621
       9       -0.000001423307    -0.000001265738     0.000000838953
      10       -0.000521385597    -0.000664753194     0.002608926352
      11       -0.000011262967    -0.000006222719    -0.000013078372
      12        0.000242612207     0.001519264580    -0.003670493734
      13        0.002431792546    -0.003077554379     0.000540358848
      14       -0.002125245034     0.002197278559     0.000564110590
      15        0.000010828797     0.000002357306     0.000007340655
      16       -0.000012683730    -0.000039228747    -0.000022177819

  **** Optimization is complete! (in 9 steps) ****
    Final optimized geometry and variables:
    Molecular point group: c1

    Geometry (in Angstrom), charge = 0, multiplicity = 1:

    H            0.312502630688    -3.274690480100    -0.630185675228
    C            0.167597222654    -2.226459904708    -0.441815796940
    C           -1.061899202819    -1.754318433285    -0.000829795806
    C            1.200451497206    -1.329769672479    -0.639142392101
    H           -1.875997493185    -2.439610209018     0.155706887885
    C           -1.250982570721    -0.409370133751     0.247655204179
    H            2.155938464235    -1.678021813023    -0.989523430157
    C            1.021861931058     0.026445640953    -0.400706035227
    H           -2.195125242955    -0.031194248383     0.593120371079
    C           -0.205608548082     0.486211899042     0.052197202953
    H            1.829234406659     0.711071875007    -0.582198668312
    O           -0.475363854795     1.790551519923     0.284755848231
    C            0.543649826587     2.654320014488     0.714511291981
    H            0.925308120428     3.238075475215    -0.116009576474
    H            1.351913887900     2.119442063328     1.195994612079
    H            0.098425327044     3.335001586261     1.427761058803

  Mulliken Charges: (a.u.)
   Center  Symbol    Alpha    Beta     Spin     Total
       1     H     0.40103  0.40103  0.00000  0.19795
       2     C     3.11114  3.11114  0.00000 -0.22228
       3     C     3.09276  3.09276  0.00000 -0.18552
       4     C     3.09206  3.09206  0.00000 -0.18413
       5     H     0.39875  0.39875  0.00000  0.20250
       6     C     3.12509  3.12509  0.00000 -0.25018
       7     H     0.39941  0.39941  0.00000  0.20117
       8     C     3.13832  3.13832  0.00000 -0.27664
       9     H     0.39317  0.39317  0.00000  0.21366
      10     C     2.78688  2.78688  0.00000  0.42624
      11     H     0.39738  0.39738  0.00000  0.20524
      12     O     4.32945  4.32945  0.00000 -0.65889
      13     C     3.08837  3.08837  0.00000 -0.17675
      14     H     0.41831  0.41831  0.00000  0.16337
      15     H     0.41894  0.41894  0.00000  0.16213
      16     H     0.40893  0.40893  0.00000  0.18214

   Total alpha = 29.00000, Total beta = 29.00000, Total charge = -0.00000
