  ==> Input File <==

--------------------------------------------------------------------------
set {
	reference rhf
	basis 6-31G*
}

set_num_threads( 1 )
memory 2 gb

molecule MOL {
0 1

H	 2.800025	 0.311483	 0.759848
C	 1.951159	 -0.223429	 0.317018
C	 0.692068	 0.589600	 0.160137
O	 2.064046	 -1.362851	 -0.000951
C	 -0.558097	 -0.297372	 0.091132
H	 0.791645	 1.202255	 -0.728243
H	 0.616171	 1.253469	 1.020572
C	 -1.850991	 0.512573	 -0.019058
H	 -0.476753	 -0.965681	 -0.762987
H	 -0.604799	 -0.930658	 0.975228
C	 -3.096943	 -0.368295	 -0.099594
H	 -1.800724	 1.150330	 -0.898172
H	 -1.931651	 1.177355	 0.838044
H	 -3.060452	 -1.020287	 -0.967456
H	 -3.996858	 0.233488	 -0.175704
H	 -3.191959	 -0.995686	 0.782074

	symmetry c1
}
set optking {
	frozen_dihedral = ("
		9 5 8 12,
		6 3 5 9
	")
}

ee = energy('scf')
oeprop('DIPOLE', 'QUADRUPOLE', 'MULLIKEN_CHARGES')
f=open( 'psi4out.xyz', 'w' )
f.write( "16  " )
f.write( str(ee) + "\n" )
f.write( MOL.save_string_xyz() )
f.close()
--------------------------------------------------------------------------

    Molecular point group: c1

    Geometry (in Angstrom), charge = 0, multiplicity = 1:

       Center              X                  Y                   Z               Mass
    ------------   -----------------  -----------------  -----------------  -----------------
           H          2.942690916476     0.518453576939     0.687465266789     1.007825032070
           C          2.093824916476    -0.016458423061     0.244635266789    12.000000000000
           C          0.834733916476     0.796570576939     0.087754266789    12.000000000000
           O          2.206711916476    -1.155880423061    -0.073333733211    15.994914619560
           C         -0.415431083524    -0.090401423061     0.018749266789    12.000000000000
           H          0.934310916476     1.409225576939    -0.800625733211     1.007825032070
           H          0.758836916476     1.460439576939     0.948189266789     1.007825032070
           C         -1.708325083524     0.719543576939    -0.091440733211    12.000000000000
           H         -0.334087083524    -0.758710423061    -0.835369733211     1.007825032070
           H         -0.462133083524    -0.723687423061     0.902845266789     1.007825032070
           C         -2.954277083524    -0.161324423061    -0.171976733211    12.000000000000
           H         -1.658058083524     1.357300576939    -0.970554733211     1.007825032070
           H         -1.788985083524     1.384325576939     0.765661266789     1.007825032070
           H         -2.917786083524    -0.813316423061    -1.039838733211     1.007825032070
           H         -3.854192083524     0.440458576939    -0.248086733211     1.007825032070
           H         -3.049293083524    -0.788715423061     0.709691266789     1.007825032070

  Charge       = 0
  Multiplicity = 1
  Basis Set: 6-31G*
  Basis Set:

    Orbital Energies (a.u.)
    -----------------------

    Doubly Occupied:

       1A    -20.564040     2A    -11.328159     3A    -11.236941
       4A    -11.223087     5A    -11.221711     6A    -11.212320
       7A     -1.404366     8A     -1.088095     9A     -1.015069
      10A     -0.907120    11A     -0.812832    12A     -0.772257
      13A     -0.676007    14A     -0.655720    15A     -0.628539
      16A     -0.600521    17A     -0.582341    18A     -0.536109
      19A     -0.526999    20A     -0.499993    21A     -0.481264
      22A     -0.476684    23A     -0.471996    24A     -0.410478

  @DF-RHF Final Energy:  -270.01997165215369

   => Energetics <=

    Nuclear Repulsion Energy =            231.9978513465018182
    One-Electron Energy =                -825.3703466376725828
    Two-Electron Energy =                 323.3525236390168516
    DFT Exchange-Correlation Energy =       0.0000000000000000
    Empirical Dispersion Energy =           0.0000000000000000
    PCM Polarization Energy =               0.0000000000000000
    EFP Energy =                            0.0000000000000000
    Total Energy =                       -270.0199716521538562

  Mulliken Charges: (a.u.)
   Center  Symbol    Alpha    Beta     Spin     Total
       1     H     0.42742  0.42742  0.00000  0.14516
       2     C     2.83761  2.83761  0.00000  0.32479
       3     C     3.21137  3.21137  0.00000 -0.42273
       4     O     4.23657  4.23657  0.00000 -0.47314
       5     C     3.15098  3.15098  0.00000 -0.30196
       6     H     0.40179  0.40179  0.00000  0.19641
       7     H     0.41256  0.41256  0.00000  0.17489
       8     C     3.15291  3.15291  0.00000 -0.30583
       9     H     0.40809  0.40809  0.00000  0.18383
      10     H     0.41609  0.41609  0.00000  0.16782
      11     C     3.23960  3.23960  0.00000 -0.47920
      12     H     0.42305  0.42305  0.00000  0.15390
      13     H     0.42384  0.42384  0.00000  0.15232
      14     H     0.41936  0.41936  0.00000  0.16128
      15     H     0.41853  0.41853  0.00000  0.16294
      16     H     0.42023  0.42023  0.00000  0.15954

   Total alpha = 24.00000, Total beta = 24.00000, Total charge = -0.00000
