  ==> Input File <==

--------------------------------------------------------------------------
set {
	reference rhf
	basis 6-31G*
}

set_num_threads( 4 )
memory 2 gb

molecule MOL {
0 1

H	 -4.236494	 0.538104	 0.039757
O	 -3.517110	 -0.026191	 -0.205115
C	 -2.306886	 0.532354	 0.237577
C	 -1.177863	 -0.397191	 -0.171080
H	 -2.156308	 1.517575	 -0.201710
H	 -2.315015	 0.655684	 1.319734
C	 0.198102	 0.111031	 0.262842
H	 -1.208843	 -0.518759	 -1.250427
H	 -1.368741	 -1.376554	 0.258909
C	 1.331804	 -0.827780	 -0.158768
H	 0.361943	 1.100838	 -0.156218
H	 0.217265	 0.229072	 1.345532
C	 2.723619	 -0.410569	 0.329459
H	 1.342964	 -0.912588	 -1.244120
H	 1.116806	 -1.824343	 0.220779
C	 3.185489	 -1.111190	 1.608576
H	 2.719436	 0.662806	 0.502486
H	 3.449906	 -0.586722	 -0.461516
H	 2.471482	 -0.962684	 2.414293
H	 3.305916	 -2.180013	 1.466130
H	 4.141878	 -0.717932	 1.939367

	symmetry c1
}
set optking {
	frozen_dihedral = ("
		16 13 10 14
	")
}

ee = optimize('scf')
oeprop('DIPOLE', 'QUADRUPOLE', 'MULLIKEN_CHARGES')
f=open( 'psi4out.xyz', 'w' )
f.write( "21  " )
f.write( str(ee) + "\n" )
f.write( MOL.save_string_xyz() )
f.close()
--------------------------------------------------------------------------

    Molecular point group: c1
  Charge       = 0
  Multiplicity = 1
  Basis Set: 6-31G*
  Basis Set:
  @DF-RHF Final Energy:  -310.20992835079278
    Total Energy =                       -310.2099283507928931
    Molecular point group: c1
  Basis Set: 6-31G*
  Basis Set:
  Basis Set: 6-31G*
  Basis Set:
  @DF-RHF Final Energy:  -310.21029848414008
    Total Energy =                       -310.2102984841401394
  Basis Set: 6-31G*
  Basis Set:
  Basis Set: 6-31G*
  Basis Set:
  @DF-RHF Final Energy:  -310.21035654330944
    Total Energy =                       -310.2103565433095582
  Basis Set: 6-31G*
  Basis Set:
  Basis Set: 6-31G*
  Basis Set:
  @DF-RHF Final Energy:  -310.21035875924065
    Total Energy =                       -310.2103587592407621
  Basis Set: 6-31G*
  Basis Set:
  Charge       = 0
  Multiplicity = 1
  Basis Set: 6-31G*
  Basis Set:

    Orbital Energies (a.u.)
    -----------------------

    Doubly Occupied:

       1A    -20.551896     2A    -11.267165     3A    -11.216516
       4A    -11.214641     5A    -11.213076     6A    -11.210629
       7A    -11.208462     8A     -1.358723     9A     -1.085437
      10A     -1.033319    11A     -0.955493    12A     -0.870549
      13A     -0.805061    14A     -0.786560    15A     -0.692653
      16A     -0.661144    17A     -0.618686    18A     -0.609233
      19A     -0.585978    20A     -0.565374    21A     -0.538819
      22A     -0.521853    23A     -0.507552    24A     -0.487097
      25A     -0.479212    26A     -0.463171    27A     -0.453790
      28A     -0.442356    29A     -0.434042

  @DF-RHF Final Energy:  -310.21035900799615

   => Energetics <=

    Nuclear Repulsion Energy =            311.0046929837859011
    One-Electron Energy =               -1036.7531301199362588
    Two-Electron Energy =                 415.5380781281542113
    DFT Exchange-Correlation Energy =       0.0000000000000000
    Empirical Dispersion Energy =           0.0000000000000000
    PCM Polarization Energy =               0.0000000000000000
    EFP Energy =                            0.0000000000000000
    Total Energy =                       -310.2103590079962032
    Molecular point group: c1
  Basis Set: 6-31G*
  Basis Set:

  -Total Gradient:
     Atom            X                  Y                   Z
    ------   -----------------  -----------------  -----------------
       1       -0.000000549878     0.000000183185    -0.000000205636
       2        0.000000468630     0.000002057610    -0.000003883258
       3        0.000003702188    -0.000004279290     0.000003526956
       4       -0.000004240679    -0.000000578873     0.000003448393
       5       -0.000001779999     0.000000187523    -0.000000444400
       6        0.000000069118     0.000000794503     0.000000107136
       7        0.000005651916    -0.000007317090    -0.000021420095
       8        0.000003746408     0.000000074665     0.000002933527
       9       -0.000001824631     0.000000810536     0.000001329787
      10       -0.000761725023     0.003409766163    -0.000872239081
      11       -0.000004535342    -0.000010268895    -0.000002682277
      12        0.000009789238    -0.000006221411    -0.000003292695
      13       -0.001284859025     0.001728888395     0.001979101581
      14        0.000945597136    -0.003289696646     0.000271653960
      15       -0.000006277365     0.000002921479     0.000008764030
      16        0.001091930873    -0.001822985451    -0.001365699747
      17       -0.000009706642    -0.000005219129    -0.000000373898
      18        0.000013264748    -0.000003626691     0.000004152415
      19       -0.000001740462     0.000009301973    -0.000013683477
      20        0.000001049937     0.000003616918     0.000003439972
      21        0.000001968866    -0.000008409475     0.000005466810

  **** Optimization is complete! (in 5 steps) ****
    Final optimized geometry and variables:
    Molecular point group: c1

    Geometry (in Angstrom), charge = 0, multiplicity = 1:

    H           -4.222186719634     0.838379905142    -0.226943433192
    O           -3.505896599808     0.272283202692    -0.476708778324
    C           -2.292406898253     0.821597886347    -0.031446297382
    C           -1.168403863099    -0.110111824346    -0.448958662375
    H           -2.137716934651     1.809428490267    -0.463338019878
    H           -2.298419339548     0.936576506125     1.051647911937
    C            0.210174861441     0.387739974669    -0.013865473336
    H           -1.201495405028    -0.223544281027    -1.529149685283
    H           -1.363004734135    -1.091805524809    -0.025959829185
    C            1.345912069757    -0.540657001583    -0.448161006237
    H            0.386139443590     1.380229231313    -0.425403507520
    H            0.231656409533     0.499028960897     1.069328736593
    C            2.735321339268    -0.096966211406     0.048823052727
    H            1.350457287605    -0.635039871544    -1.531075794739
    H            1.141355624792    -1.543771095615    -0.078157450842
    C            3.173290678118    -0.799643409221     1.334909501580
    H            2.746401582034     0.980136076743     0.197064069640
    H            3.476765847190    -0.299943071992    -0.719236833173
    H            2.462173124188    -0.636867258281     2.140454219048
    H            3.255358207831    -1.871358366330     1.180167531579
    H            4.140028097600    -0.437790378515     1.671819562098

  Mulliken Charges: (a.u.)
   Center  Symbol    Alpha    Beta     Spin     Total
       1     H     0.28117  0.28117  0.00000  0.43766
       2     O     4.37176  4.37176  0.00000 -0.74353
       3     C     2.98978  2.98978  0.00000  0.02045
       4     C     3.15964  3.15964  0.00000 -0.31929
       5     H     0.43281  0.43281  0.00000  0.13438
       6     H     0.43290  0.43290  0.00000  0.13421
       7     C     3.16093  3.16093  0.00000 -0.32187
       8     H     0.41474  0.41474  0.00000  0.17053
       9     H     0.41459  0.41459  0.00000  0.17082
      10     C     3.15440  3.15440  0.00000 -0.30880
      11     H     0.42312  0.42312  0.00000  0.15375
      12     H     0.42324  0.42324  0.00000  0.15351
      13     C     3.15486  3.15486  0.00000 -0.30973
      14     H     0.41976  0.41976  0.00000  0.16048
      15     H     0.42136  0.42136  0.00000  0.15729
      16     C     3.23964  3.23964  0.00000 -0.47928
      17     H     0.42170  0.42170  0.00000  0.15660
      18     H     0.42022  0.42022  0.00000  0.15957
      19     H     0.42237  0.42237  0.00000  0.15527
      20     H     0.42088  0.42088  0.00000  0.15824
      21     H     0.42013  0.42013  0.00000  0.15973

   Total alpha = 29.00000, Total beta = 29.00000, Total charge =  0.00000
