                              Psi4 1.0.54 Driver

  ==> Input File <==

--------------------------------------------------------------------------
set {
	reference rhf
	basis cc-pvtz
}

set_num_threads( 4 )
memory 2 gb

molecule MOL {
0 1

H	 -3.436473	 1.252944	 -1.023892
O	 -3.458596	 0.315260	 -0.960865
C	 -3.176635	 -0.080824	 0.355601
C	 -1.763371	 0.265266	 0.799691
H	 -3.321825	 -1.153438	 0.379502
H	 -3.895468	 0.357385	 1.043382
C	 -0.702669	 -0.712355	 0.302208
H	 -1.523099	 1.271923	 0.460905
H	 -1.750222	 0.300258	 1.886425
C	 0.712662	 -0.332046	 0.729027
H	 -0.752490	 -0.773936	 -0.779291
H	 -0.936210	 -1.706914	 0.674790
C	 1.768869	 -1.317240	 0.232168
H	 0.934775	 0.665667	 0.362799
H	 0.759729	 -0.276032	 1.814616
C	 3.194725	 -1.023557	 0.701777
H	 1.749252	 -1.345657	 -0.854873
H	 1.496007	 -2.314958	 0.564921
C	 3.795650	 0.266815	 0.149534
H	 3.829682	 -1.854588	 0.410241
H	 3.215434	 -0.994273	 1.788117
H	 3.782836	 0.268632	 -0.935782
H	 4.826390	 0.377357	 0.466704
H	 3.256142	 1.143202	 0.487888

	symmetry c1
}
set optking {
	frozen_dihedral = ("
		7 4 3 2
	")
}

ee,wfn = optimize('scf', return_wfn=True)
oeprop( wfn, 'DIPOLE', 'QUADRUPOLE', 'MULLIKEN_CHARGES')
f=open( 'psi4out.xyz', 'w' )
f.write( "24  " )
f.write( str(ee) + "\n" )
f.write( MOL.save_string_xyz() )
f.close()
--------------------------------------------------------------------------

    Molecular point group: c1
  Charge       = 0
  Multiplicity = 1
  Basis Set: CC-PVTZ
  Basis Set:
  @DF-RHF Final Energy:  -349.37895660856123
    Total Energy =                       -349.3789566085614524
    Molecular point group: c1
  Basis Set: CC-PVTZ
  Basis Set:
  Basis Set: CC-PVTZ
  Basis Set:
  @DF-RHF Final Energy:  -349.37902695040452
    Total Energy =                       -349.3790269504042953
  Basis Set: CC-PVTZ
  Basis Set:
  Basis Set: CC-PVTZ
  Basis Set:
  @DF-RHF Final Energy:  -349.37904454490786
    Total Energy =                       -349.3790445449077424
  Basis Set: CC-PVTZ
  Basis Set:
  Charge       = 0
  Multiplicity = 1
  Basis Set: CC-PVTZ
  Basis Set:

    Orbital Energies (a.u.)
    -----------------------

    Doubly Occupied:

       1A    -20.545263     2A    -11.265300     3A    -11.215277
       4A    -11.212451     5A    -11.211025     6A    -11.210480
       7A    -11.209917     8A    -11.205464     9A     -1.363252
      10A     -1.090558    11A     -1.049827    12A     -0.986489
      13A     -0.915430    14A     -0.851351    15A     -0.803664
      16A     -0.777083    17A     -0.682815    18A     -0.652532
      19A     -0.625517    20A     -0.622464    21A     -0.597855
      22A     -0.584917    23A     -0.561997    24A     -0.538466
      25A     -0.517642    26A     -0.514204    27A     -0.496133
      28A     -0.477226    29A     -0.467083    30A     -0.461439
      31A     -0.456855    32A     -0.452046    33A     -0.419598

  @DF-RHF Final Energy:  -349.37904495167641

   => Energetics <=

    Nuclear Repulsion Energy =            383.7568473063688543
    One-Electron Energy =               -1234.1885402897041786
    Two-Electron Energy =                 501.0526480316589186
    DFT Exchange-Correlation Energy =       0.0000000000000000
    Empirical Dispersion Energy =           0.0000000000000000
    PCM Polarization Energy =               0.0000000000000000
    EFP Energy =                            0.0000000000000000
    Total Energy =                       -349.3790449516764056
    Molecular point group: c1
  Basis Set: CC-PVTZ
  Basis Set:

  -Total Gradient:
     Atom            X                  Y                   Z
    ------   -----------------  -----------------  -----------------
       1        0.000001423422    -0.000053251728     0.000008317348
       2       -0.001085235783     0.003000371606     0.001109461913
       3        0.001312980613    -0.004686297950    -0.000569395922
       4        0.000222922526     0.003539907116    -0.003117549798
       5        0.000035228173     0.000037961676     0.000009540227
       6        0.000016128672    -0.000008685706     0.000033933896
       7       -0.000452801517    -0.001779181553     0.002559904370
       8       -0.000047812346    -0.000051891325     0.000016900265
       9       -0.000004097641    -0.000012875511    -0.000013707978
      10        0.000004761847     0.000007015629     0.000003765963
      11        0.000015658797    -0.000038476267    -0.000037656346
      12       -0.000013691812     0.000028687482     0.000013556738
      13        0.000000169582     0.000019866030    -0.000030317441
      14        0.000002129885    -0.000007967808     0.000011821066
      15       -0.000007688289    -0.000011585166     0.000005578416
      16       -0.000008183275     0.000014461910     0.000001357597
      17        0.000001922315    -0.000004108993    -0.000003850071
      18        0.000003960336     0.000012131886     0.000001370942
      19        0.000008981732     0.000000124724    -0.000002063893
      20       -0.000006369565    -0.000002634535     0.000002472168
      21       -0.000003550386     0.000004523086    -0.000002730494
      22       -0.000000609211     0.000001341170     0.000001986176
      23       -0.000001706901    -0.000002683994    -0.000003547404
      24        0.000005478836    -0.000006751780     0.000000852262

  **** Optimization is complete! (in 4 steps) ****
    Final optimized geometry and variables:
    Molecular point group: c1

    Geometry (in Angstrom), charge = 0, multiplicity = 1:

    H           -3.375992474302     1.578084990219    -1.299099089627
    O           -3.419534095719     0.640676629529    -1.252289710863
    C           -3.171034438781     0.221391400216     0.064347446903
    C           -1.763482271243     0.558384700988     0.543578737896
    H           -3.329644744953    -0.848776367768     0.075786419473
    H           -3.903651194459     0.662746721584     0.735422817799
    C           -0.697873518568    -0.416624925923     0.050359542892
    H           -1.520697433804     1.572658609884     0.235391393549
    H           -1.761656249888     0.562388507913     1.630913401020
    C            0.717399357284    -0.032494497269     0.472917990383
    H           -0.747428755615    -0.482805381627    -1.032593239063
    H           -0.930521625144    -1.408519380844     0.429245639358
    C            1.774011227304    -1.022581341894    -0.013264890927
    H            0.939047357301     0.961332697135     0.096493268500
    H            0.763420439593     0.034617673347     1.558021397006
    C            3.200029493757    -0.722226165537     0.451715339826
    H            1.753531996404    -1.063728766468    -1.099864352836
    H            1.502344320705    -2.016569948163     0.331530029241
    C            3.799890169137     0.561561602392    -0.116816767606
    H            3.835205312273    -1.556429143627     0.169914782502
    H            3.221514687777    -0.679710703952     1.537606746890
    H            3.784579937937     0.550883136308    -1.202015397350
    H            4.831350714532     0.675532682502     0.196726199144
    H            3.261347599883     1.441925499138     0.212580440504

  Mulliken Charges: (a.u.)
   Center  Symbol    Alpha    Beta     Spin     Total
       1     H     0.39524  0.39524  0.00000  0.20952
       2     O     4.20473  4.20473  0.00000 -0.40947
       3     C     2.97440  2.97440  0.00000  0.05120
       4     C     3.09362  3.09362  0.00000 -0.18723
       5     H     0.45945  0.45945  0.00000  0.08111
       6     H     0.46287  0.46287  0.00000  0.07427
       7     C     3.09110  3.09110  0.00000 -0.18220
       8     H     0.46093  0.46093  0.00000  0.07814
       9     H     0.45487  0.45487  0.00000  0.09026
      10     C     3.09278  3.09278  0.00000 -0.18557
      11     H     0.44698  0.44698  0.00000  0.10604
      12     H     0.45456  0.45456  0.00000  0.09089
      13     C     3.09460  3.09460  0.00000 -0.18919
      14     H     0.45256  0.45256  0.00000  0.09488
      15     H     0.45605  0.45605  0.00000  0.08790
      16     C     3.09026  3.09026  0.00000 -0.18052
      17     H     0.45331  0.45331  0.00000  0.09337
      18     H     0.44994  0.44994  0.00000  0.10012
      19     C     3.15243  3.15243  0.00000 -0.30487
      20     H     0.44856  0.44856  0.00000  0.10287
      21     H     0.45523  0.45523  0.00000  0.08954
      22     H     0.45465  0.45465  0.00000  0.09070
      23     H     0.44662  0.44662  0.00000  0.10676
      24     H     0.45427  0.45427  0.00000  0.09147

   Total alpha = 33.00000, Total beta = 33.00000, Total charge = -0.00000

*** Psi4 exiting successfully. Buy a developer a beer!
