                              Psi4 1.0.54 Driver

  ==> Input File <==

--------------------------------------------------------------------------
set {
	reference rhf
	basis cc-pvtz
}

set_num_threads( 4 )
memory 2 gb

molecule MOL {
0 1

H	 1.626518	 -2.696030	 -1.607509
O	 1.563561	 -2.215016	 -0.796116
C	 0.777834	 -1.159875	 -0.992945
C	 0.626018	 -0.337582	 0.258241
O	 0.280009	 -0.934352	 -2.041350
C	 -0.267326	 0.883135	 0.076490
H	 0.254247	 -1.004544	 1.026880
H	 1.624565	 -0.049927	 0.572237
C	 -1.726822	 0.642622	 0.463839
H	 -0.210803	 1.217591	 -0.953497
H	 0.129920	 1.693110	 0.675679
C	 -2.480891	 -0.340606	 -0.429852
H	 -2.243098	 1.597649	 0.438609
H	 -1.776542	 0.301208	 1.495542
C	 -3.955933	 -0.460128	 -0.060472
H	 -2.393755	 -0.020485	 -1.464726
H	 -2.024244	 -1.323637	 -0.374360
H	 -4.467673	 -1.160944	 -0.709827
H	 -4.458917	 0.497287	 -0.144505
H	 -4.076458	 -0.806900	 0.960497

	symmetry c1
}
set optking {
	frozen_dihedral = ("
		7 4 6 10
	")
}

ee,wfn = optimize('scf', return_wfn=True)
oeprop( wfn, 'DIPOLE', 'QUADRUPOLE', 'MULLIKEN_CHARGES')
f=open( 'psi4out.xyz', 'w' )
f.write( "20  " )
f.write( str(ee) + "\n" )
f.write( MOL.save_string_xyz() )
f.close()
--------------------------------------------------------------------------

    Molecular point group: c1
  Charge       = 0
  Multiplicity = 1
  Basis Set: CC-PVTZ
  Basis Set:
  @DF-RHF Final Energy:  -384.09154646993824
    Total Energy =                       -384.0915464699382937
    Molecular point group: c1
  Basis Set: CC-PVTZ
  Basis Set:
  Basis Set: CC-PVTZ
  Basis Set:
  @DF-RHF Final Energy:  -384.09201089559576
    Total Energy =                       -384.0920108955957630
  Basis Set: CC-PVTZ
  Basis Set:
  Basis Set: CC-PVTZ
  Basis Set:
  @DF-RHF Final Energy:  -384.09217668128275
    Total Energy =                       -384.0921766812824671
  Basis Set: CC-PVTZ
  Basis Set:
  Basis Set: CC-PVTZ
  Basis Set:
  @DF-RHF Final Energy:  -384.09164277023422
    Total Energy =                       -384.0916427702343299
  Basis Set: CC-PVTZ
  Basis Set:
  @DF-RHF Final Energy:  -384.09231098784835
    Total Energy =                       -384.0923109878483501
  Basis Set: CC-PVTZ
  Basis Set:
  @DF-RHF Final Energy:  -384.09236070466642
    Total Energy =                       -384.0923607046669304
  Basis Set: CC-PVTZ
  Basis Set:
  Basis Set: CC-PVTZ
  Basis Set:
  @DF-RHF Final Energy:  -384.09237118536254
    Total Energy =                       -384.0923711853625946
  Basis Set: CC-PVTZ
  Basis Set:
  Basis Set: CC-PVTZ
  Basis Set:
  @DF-RHF Final Energy:  -384.09237499306488
    Total Energy =                       -384.0923749930648228
  Basis Set: CC-PVTZ
  Basis Set:
  Charge       = 0
  Multiplicity = 1
  Basis Set: CC-PVTZ
  Basis Set:

    Orbital Energies (a.u.)
    -----------------------

    Doubly Occupied:

       1A    -20.604781     2A    -20.540544     3A    -11.374109
       4A    -11.239241     5A    -11.220652     6A    -11.215912
       7A    -11.212545     8A    -11.206490     9A     -1.478302
      10A     -1.369367    11A     -1.094777    12A     -1.038538
      13A     -0.960558    14A     -0.871511    15A     -0.814452
      16A     -0.775013    17A     -0.704961    18A     -0.694748
      19A     -0.665671    20A     -0.631460    21A     -0.604060
      22A     -0.594155    23A     -0.576130    24A     -0.553755
      25A     -0.537002    26A     -0.514819    27A     -0.495806
      28A     -0.486419    29A     -0.465005    30A     -0.463782
      31A     -0.456305    32A     -0.445347

  @DF-RHF Final Energy:  -384.09237582322646

   => Energetics <=

    Nuclear Repulsion Energy =            388.7394217477998382
    One-Electron Energy =               -1293.8511616131381743
    Two-Electron Energy =                 521.0193640421118744
    DFT Exchange-Correlation Energy =       0.0000000000000000
    Empirical Dispersion Energy =           0.0000000000000000
    PCM Polarization Energy =               0.0000000000000000
    EFP Energy =                            0.0000000000000000
    Total Energy =                       -384.0923758232264618
    Molecular point group: c1
  Basis Set: CC-PVTZ
  Basis Set:

  -Total Gradient:
     Atom            X                  Y                   Z
    ------   -----------------  -----------------  -----------------
       1        0.000013975583    -0.000036776301    -0.000005568791
       2       -0.000046257796     0.000110321576    -0.000054878000
       3        0.000105003982    -0.000149053288     0.000069486240
       4        0.000767269593     0.000794750937     0.001252209894
       5       -0.000009421183     0.000027178520    -0.000016801763
       6        0.001198118001     0.000797258328     0.000184607356
       7       -0.000861061640    -0.000743778447    -0.001069068372
       8        0.000012199826    -0.000017964986     0.000012457042
       9        0.000044444967     0.000045802932    -0.000017984131
      10       -0.001193226780    -0.000836677771    -0.000376774240
      11        0.000016585509     0.000028044375    -0.000018237099
      12       -0.000008448322    -0.000053038796     0.000066112918
      13       -0.000031990279    -0.000003380628     0.000013209171
      14        0.000003972644    -0.000001499556    -0.000003311251
      15       -0.000015207933     0.000017285620    -0.000012686813
      16        0.000015941224     0.000008508028    -0.000017054328
      17       -0.000017574464     0.000011657632    -0.000004980192
      18        0.000006445584    -0.000000372862    -0.000006040432
      19       -0.000001625816     0.000004789431     0.000005788619
      20        0.000000857302    -0.000003054746    -0.000000485826

  **** Optimization is complete! (in 9 steps) ****
    Final optimized geometry and variables:
    Molecular point group: c1

    Geometry (in Angstrom), charge = 0, multiplicity = 1:

    H            2.052568570275    -2.327071826078    -1.101552877678
    O            1.933655649357    -1.864933739412    -0.285385402575
    C            1.414464248464    -0.669788297495    -0.551058475997
    C            1.245549544613     0.151489595646     0.701972660499
    O            1.160938608013    -0.328357095253    -1.654441694590
    C            0.388475087774     1.409559805970     0.534881321522
    H            0.853780976927    -0.506125136569     1.468461071943
    H            2.253615015113     0.406836288314     1.012251438875
    C           -1.082356571555     1.230245814978     0.918863285657
    H            0.453333315229     1.744492496431    -0.492171814215
    H            0.807385223557     2.194292537569     1.153721875651
    C           -1.862146947881     0.236977619404     0.059994727916
    H           -1.567560430917     2.200167238901     0.856159433029
    H           -1.145701011978     0.928786331293     1.962433561818
    C           -3.335811111260     0.159619308588     0.445884340885
    H           -1.772040623115     0.516806775137    -0.984323523882
    H           -1.424878490026    -0.753508044842     0.145695662671
    H           -3.866330483689    -0.552909881647    -0.175021500370
    H           -3.820922755576     1.123281707208     0.331546117440
    H           -3.455910323017    -0.148562422705     1.479451549347

  Mulliken Charges: (a.u.)
   Center  Symbol    Alpha    Beta     Spin     Total
       1     H     0.38199  0.38199  0.00000  0.23602
       2     O     4.16124  4.16124  0.00000 -0.32247
       3     C     2.79961  2.79961  0.00000  0.40079
       4     C     3.12226  3.12226  0.00000 -0.24452
       5     O     4.19466  4.19466  0.00000 -0.38933
       6     C     3.10306  3.10306  0.00000 -0.20611
       7     H     0.43405  0.43405  0.00000  0.13190
       8     H     0.42780  0.42780  0.00000  0.14440
       9     C     3.09633  3.09633  0.00000 -0.19267
      10     H     0.43874  0.43874  0.00000  0.12251
      11     H     0.44122  0.44122  0.00000  0.11755
      12     C     3.08720  3.08720  0.00000 -0.17440
      13     H     0.44831  0.44831  0.00000  0.10338
      14     H     0.45470  0.45470  0.00000  0.09060
      15     C     3.15028  3.15028  0.00000 -0.30057
      16     H     0.44322  0.44322  0.00000  0.11357
      17     H     0.45684  0.45684  0.00000  0.08633
      18     H     0.44755  0.44755  0.00000  0.10489
      19     H     0.45447  0.45447  0.00000  0.09106
      20     H     0.45646  0.45646  0.00000  0.08707

   Total alpha = 32.00000, Total beta = 32.00000, Total charge = -0.00000

*** Psi4 exiting successfully. Buy a developer a beer!
