  ==> Input File <==

--------------------------------------------------------------------------
set {
	reference rhf
	basis 6-31G*
}

set_num_threads( 4 )
memory 2 gb

molecule MOL {
0 1

H	 -3.161837	 0.500524	 -0.000234
C	 -2.367097	 -0.232926	 -0.000000
O	 -1.158440	 0.455814	 -0.000122
H	 -2.468853	 -0.861886	 -0.882833
H	 -2.468942	 -0.861421	 0.883154
C	 -0.029776	 -0.365156	 0.000148
C	 1.166350	 0.445770	 -0.467125
H	 -0.187680	 -1.220631	 -0.657977
H	 0.147742	 -0.758935	 1.001813
C	 2.453691	 -0.376805	 -0.498817
H	 0.949608	 0.841050	 -1.454768
H	 1.282769	 1.299497	 0.193402
H	 2.366494	 -1.223694	 -1.173798
H	 3.290360	 0.226280	 -0.835148
H	 2.701713	 -0.762656	 0.486073

	symmetry c1
}
set optking {
	frozen_dihedral = ("
		8 6 3 2
	")
}

ee = optimize('scf')
oeprop('DIPOLE', 'QUADRUPOLE', 'MULLIKEN_CHARGES')
f=open( 'psi4out.xyz', 'w' )
f.write( "15  " )
f.write( str(ee) + "\n" )
f.write( MOL.save_string_xyz() )
f.close()
--------------------------------------------------------------------------

    Molecular point group: c1
  Charge       = 0
  Multiplicity = 1
  Basis Set: 6-31G*
  Basis Set:
  @DF-RHF Final Energy:  -232.13853674468541
    Total Energy =                       -232.1385367446856662
    Molecular point group: c1
  Basis Set: 6-31G*
  Basis Set:
  Basis Set: 6-31G*
  Basis Set:
  @DF-RHF Final Energy:  -232.13857918491180
    Total Energy =                       -232.1385791849117481
  Basis Set: 6-31G*
  Basis Set:
  Basis Set: 6-31G*
  Basis Set:
  @DF-RHF Final Energy:  -232.13859442570927
    Total Energy =                       -232.1385944257093570
  Basis Set: 6-31G*
  Basis Set:
  Charge       = 0
  Multiplicity = 1
  Basis Set: 6-31G*
  Basis Set:

    Orbital Energies (a.u.)
    -----------------------

    Doubly Occupied:

       1A    -20.552650     2A    -11.266162     3A    -11.264203
       4A    -11.214392     5A    -11.212984     6A     -1.377213
       7A     -1.057253     8A     -0.955446     9A     -0.877541
      10A     -0.809314    11A     -0.673595    12A     -0.653690
      13A     -0.630837    14A     -0.606681    15A     -0.566239
      16A     -0.540755    17A     -0.502864    18A     -0.489367
      19A     -0.478723    20A     -0.462497    21A     -0.411515

  @DF-RHF Final Energy:  -232.13859460401605

   => Energetics <=

    Nuclear Repulsion Energy =            189.7009433011409385
    One-Electron Energy =                -690.4712349611691025
    Two-Electron Energy =                 268.6316970560122286
    DFT Exchange-Correlation Energy =       0.0000000000000000
    Empirical Dispersion Energy =           0.0000000000000000
    PCM Polarization Energy =               0.0000000000000000
    EFP Energy =                            0.0000000000000000
    Total Energy =                       -232.1385946040159638
    Molecular point group: c1
  Basis Set: 6-31G*
  Basis Set:

  -Total Gradient:
     Atom            X                  Y                   Z
    ------   -----------------  -----------------  -----------------
       1       -0.000002217323    -0.000000033505     0.000002877424
       2       -0.000047912937     0.000006700158    -0.001999267053
       3       -0.000175584688    -0.000362646835     0.003343750765
       4        0.000011184580     0.000001051594     0.000004626432
       5        0.000010183869     0.000005701974    -0.000003872401
       6        0.001122113645     0.001654697488    -0.003244422678
       7       -0.000022707593     0.000002562875    -0.000006271889
       8       -0.000899225710    -0.001295367872     0.001888485994
       9        0.000008363390    -0.000003522861     0.000007379672
      10       -0.000000980431    -0.000001736731     0.000022443032
      11       -0.000010552522    -0.000008696534     0.000001450518
      12        0.000004155749     0.000002843421    -0.000007696786
      13        0.000005725208     0.000005286122    -0.000007366565
      14        0.000006500973     0.000000696454     0.000004548916
      15       -0.000009046208    -0.000007535747    -0.000006665382

  **** Optimization is complete! (in 4 steps) ****
    Final optimized geometry and variables:
    Molecular point group: c1

    Geometry (in Angstrom), charge = 0, multiplicity = 1:

    H           -3.143544628560     0.536606907087     0.223515025933
    C           -2.354376349919    -0.202684802200     0.204072773651
    O           -1.141039852436     0.477699501456     0.189616843569
    H           -2.473418003370    -0.822048438701    -0.682931425174
    H           -2.449262156472    -0.838611154118     1.082874145733
    C           -0.011160416751    -0.344197707508     0.168974503452
    C            1.186407950665     0.469574262792    -0.288131455884
    H           -0.175413452895    -1.196898925937    -0.490032130689
    H            0.166154454276    -0.751873008983     1.165175386133
    C            2.478935669356    -0.345464632127    -0.295127091217
    H            0.981398933995     0.858137937601    -1.281021301752
    H            1.288558027969     1.327903291857     0.368837537149
    H            2.406835277836    -1.197468183379    -0.965576877479
    H            3.317177011022     0.260060831694    -0.623150665361
    H            2.714067501831    -0.723362760335     0.695902975757

  Mulliken Charges: (a.u.)
   Center  Symbol    Alpha    Beta     Spin     Total
       1     H     0.41244  0.41244  0.00000  0.17512
       2     C     3.07940  3.07940  0.00000 -0.15880
       3     O     4.30653  4.30653  0.00000 -0.61306
       4     H     0.42992  0.42992  0.00000  0.14017
       5     H     0.43073  0.43073  0.00000  0.13854
       6     C     2.98155  2.98155  0.00000  0.03690
       7     C     3.15943  3.15943  0.00000 -0.31885
       8     H     0.43401  0.43401  0.00000  0.13199
       9     H     0.43174  0.43174  0.00000  0.13653
      10     C     3.24814  3.24814  0.00000 -0.49629
      11     H     0.41564  0.41564  0.00000  0.16873
      12     H     0.41346  0.41346  0.00000  0.17307
      13     H     0.42118  0.42118  0.00000  0.15764
      14     H     0.41542  0.41542  0.00000  0.16917
      15     H     0.42043  0.42043  0.00000  0.15915

   Total alpha = 21.00000, Total beta = 21.00000, Total charge =  0.00000
