                              Psi4 1.0.54 Driver

  ==> Input File <==

--------------------------------------------------------------------------
set {
	reference rhf
	basis cc-pvtz
}

set_num_threads( 4 )
memory 2 gb

molecule MOL {
0 1

H	 1.656344	 3.058822	 3.934756
C	 1.262304	 2.133045	 4.375839
C	 0.000016	 1.615928	 3.740929
O	 1.820872	 1.627467	 5.286718
C	 0.111837	 1.486911	 2.218915
H	 -0.256521	 0.671797	 4.203683
H	 -0.783887	 2.330449	 3.982301
C	 1.089281	 0.404537	 1.765866
H	 -0.873576	 1.272614	 1.819695
H	 0.406343	 2.444856	 1.797251
C	 1.181757	 0.280428	 0.247371
H	 0.783731	 -0.548844	 2.188728
H	 2.077608	 0.608735	 2.169525
C	 2.151032	 -0.811012	 -0.202643
H	 0.190837	 0.085037	 -0.150429
H	 1.497197	 1.233338	 -0.171863
C	 3.580021	 -0.656538	 0.320835
H	 2.170545	 -0.847575	 -1.289412
H	 1.766632	 -1.772905	 0.124928
C	 4.327657	 0.562694	 -0.213579
H	 4.138806	 -1.549270	 0.057813
H	 3.561991	 -0.620783	 1.406976
H	 4.355973	 0.557257	 -1.298551
H	 3.867136	 1.491650	 0.100501
H	 5.351524	 0.571613	 0.142204

	symmetry c1
}
set optking {
	frozen_dihedral = ("
		8 11 14 18
	")
}

ee,wfn = optimize('scf', return_wfn=True)
oeprop( wfn, 'DIPOLE', 'QUADRUPOLE', 'MULLIKEN_CHARGES')
f=open( 'psi4out.xyz', 'w' )
f.write( "25  " )
f.write( str(ee) + "\n" )
f.write( MOL.save_string_xyz() )
f.close()
--------------------------------------------------------------------------

    Molecular point group: c1
  Charge       = 0
  Multiplicity = 1
  Basis Set: CC-PVTZ
  Basis Set:
  @DF-RHF Final Energy:  -387.25766143936829
    Total Energy =                       -387.2576614393681211
    Molecular point group: c1
  Basis Set: CC-PVTZ
  Basis Set:
  Basis Set: CC-PVTZ
  Basis Set:
  @DF-RHF Final Energy:  -387.24575884721406
    Total Energy =                       -387.2457588472140060
  Basis Set: CC-PVTZ
  Basis Set:
  Basis Set: CC-PVTZ
  Basis Set:
  @DF-RHF Final Energy:  -387.25832301961265
    Total Energy =                       -387.2583230196127033
  Basis Set: CC-PVTZ
  Basis Set:
  Basis Set: CC-PVTZ
  Basis Set:
  @DF-RHF Final Energy:  -387.25868649660362
    Total Energy =                       -387.2586864966036728
  Basis Set: CC-PVTZ
  Basis Set:
  @DF-RHF Final Energy:  -387.25673694393561
    Total Energy =                       -387.2567369439354934
  Basis Set: CC-PVTZ
  Basis Set:
  @DF-RHF Final Energy:  -387.25865023892374
    Total Energy =                       -387.2586502389243606
  Basis Set: CC-PVTZ
  Basis Set:
  Basis Set: CC-PVTZ
  Basis Set:
  @DF-RHF Final Energy:  -387.25872420930040
    Total Energy =                       -387.2587242093001123
  Basis Set: CC-PVTZ
  Basis Set:
  Basis Set: CC-PVTZ
  Basis Set:
  @DF-RHF Final Energy:  -387.25872715377380
    Total Energy =                       -387.2587271537734068
  Basis Set: CC-PVTZ
  Basis Set:
  Charge       = 0
  Multiplicity = 1
  Basis Set: CC-PVTZ
  Basis Set:

    Orbital Energies (a.u.)
    -----------------------

    Doubly Occupied:

       1A    -20.551670     2A    -11.321226     3A    -11.233901
       4A    -11.232992     5A    -11.221377     6A    -11.217854
       7A    -11.215496     8A    -11.214509     9A    -11.208433
      10A     -1.406669    11A     -1.105457    12A     -1.069779
      13A     -1.011759    14A     -0.945535    15A     -0.875981
      16A     -0.830916    17A     -0.789361    18A     -0.767877
      19A     -0.669210    20A     -0.662859    21A     -0.633831
      22A     -0.628352    23A     -0.611887    24A     -0.590369
      25A     -0.565503    26A     -0.560302    27A     -0.538502
      28A     -0.523206    29A     -0.517811    30A     -0.500037
      31A     -0.488034    32A     -0.481673    33A     -0.458939
      34A     -0.452572    35A     -0.446760    36A     -0.412107

  @DF-RHF Final Energy:  -387.25872734864038

   => Energetics <=

    Nuclear Repulsion Energy =            450.5755832570660004
    One-Electron Energy =               -1417.7431318077278775
    Two-Electron Energy =                 579.9088212020217270
    DFT Exchange-Correlation Energy =       0.0000000000000000
    Empirical Dispersion Energy =           0.0000000000000000
    PCM Polarization Energy =               0.0000000000000000
    EFP Energy =                            0.0000000000000000
    Total Energy =                       -387.2587273486401500
    Molecular point group: c1
  Basis Set: CC-PVTZ
  Basis Set:

  -Total Gradient:
     Atom            X                  Y                   Z
    ------   -----------------  -----------------  -----------------
       1       -0.000007332834    -0.000008463022     0.000006376946
       2        0.000023678713     0.000026554860    -0.000004436901
       3        0.000003734170    -0.000000596620     0.000006483816
       4       -0.000016227029    -0.000004249203    -0.000004329838
       5        0.000016740349     0.000026066187    -0.000007004872
       6        0.000008364030    -0.000007854016     0.000001866494
       7       -0.000013330509    -0.000006612852    -0.000004734069
       8        0.000498513973     0.000693158700    -0.000146316400
       9       -0.000008072711    -0.000002949287     0.000007986363
      10        0.000002245395     0.000009371326    -0.000004596647
      11       -0.000585995842    -0.000805146538     0.000176061648
      12        0.000005047737    -0.000012817848     0.000008751136
      13        0.000001065558     0.000003261364     0.000000309081
      14       -0.000653659536    -0.000875457868     0.000198450203
      15       -0.000000366832    -0.000004868748    -0.000001833537
      16       -0.000000466921     0.000010864720    -0.000011102989
      17        0.000009216768    -0.000000686749    -0.000001055238
      18        0.000708654783     0.000966683121    -0.000225889002
      19        0.000001271379    -0.000005190806     0.000006510366
      20       -0.000003692725    -0.000002217149    -0.000004749435
      21        0.000005285686    -0.000010565438    -0.000004765811
      22        0.000007811373    -0.000002378979     0.000010611594
      23        0.000000285817    -0.000001313158    -0.000011610820
      24       -0.000013337833     0.000015833187     0.000001074825
      25        0.000010567040    -0.000000425185     0.000007943084

  **** Optimization is complete! (in 9 steps) ****
    Final optimized geometry and variables:
    Molecular point group: c1

    Geometry (in Angstrom), charge = 0, multiplicity = 1:

    H           -0.741725289083     2.615654430664     1.517852588313
    C           -0.810102613673     1.724798055977     2.157071162743
    C           -1.869205757299     0.735276292183     1.753489468181
    O           -0.088298453324     1.606367014055     3.085695821294
    C           -1.770351696984     0.330098429341     0.279776052642
    H           -1.805474539130    -0.124028794338     2.408412230422
    H           -2.828170852550     1.218303650202     1.927704159873
    C           -0.522161767035    -0.487094432465    -0.048445109721
    H           -2.654491471300    -0.242263627803     0.021309859055
    H           -1.796555063541     1.222290843791    -0.341308373940
    C           -0.448753003577    -0.880152367770    -1.522469572447
    H           -0.512921369877    -1.382921955523     0.567653167314
    H            0.362399389845     0.077096771546     0.228632378372
    C            0.710743042789    -1.812891463354    -1.884584910957
    H           -1.375698751025    -1.374364893720    -1.800132019378
    H           -0.399868965334     0.020208685618    -2.128055948784
    C            2.119662215957    -1.303805716473    -1.566426917696
    H            0.658291745630    -2.019758537603    -2.950195340408
    H            0.565300194802    -2.763852055928    -1.379671326948
    C            2.508942275286    -0.021223413770    -2.297124212035
    H            2.824020863190    -2.085013614755    -1.835036536508
    H            2.232315634764    -1.158741606180    -0.497169145190
    H            2.406517656450    -0.137350004829    -3.371406042419
    H            1.894502130265     0.819750575200    -1.997252943157
    H            3.540078817298     0.240926998899    -2.090506558755

  Mulliken Charges: (a.u.)
   Center  Symbol    Alpha    Beta     Spin     Total
       1     H     0.46401  0.46401  0.00000  0.07198
       2     C     2.90571  2.90571  0.00000  0.18858
       3     C     3.08775  3.08775  0.00000 -0.17550
       4     O     4.16618  4.16618  0.00000 -0.33236
       5     C     3.11658  3.11658  0.00000 -0.23316
       6     H     0.44310  0.44310  0.00000  0.11379
       7     H     0.44055  0.44055  0.00000  0.11891
       8     C     3.09299  3.09299  0.00000 -0.18598
       9     H     0.44238  0.44238  0.00000  0.11525
      10     H     0.44942  0.44942  0.00000  0.10115
      11     C     3.10876  3.10876  0.00000 -0.21753
      12     H     0.44863  0.44863  0.00000  0.10273
      13     H     0.44581  0.44581  0.00000  0.10838
      14     C     3.10057  3.10057  0.00000 -0.20115
      15     H     0.44311  0.44311  0.00000  0.11379
      16     H     0.44961  0.44961  0.00000  0.10078
      17     C     3.09948  3.09948  0.00000 -0.19897
      18     H     0.44796  0.44796  0.00000  0.10408
      19     H     0.44775  0.44775  0.00000  0.10450
      20     C     3.15185  3.15185  0.00000 -0.30369
      21     H     0.44408  0.44408  0.00000  0.11184
      22     H     0.44926  0.44926  0.00000  0.10148
      23     H     0.45391  0.45391  0.00000  0.09218
      24     H     0.45580  0.45580  0.00000  0.08841
      25     H     0.44475  0.44475  0.00000  0.11049

   Total alpha = 36.00000, Total beta = 36.00000, Total charge = -0.00000

*** Psi4 exiting successfully. Buy a developer a beer!
