  ==> Input File <==

--------------------------------------------------------------------------
set {
	reference rhf
	basis 6-31G*
}

set_num_threads( 1 )
memory 2 gb

molecule MOL {
0 1

O	 -0.291628	 1.323815	 -0.000732
C	 -0.449655	 0.146360	 0.000961
C	 -1.783294	 -0.549321	 -0.000296
O	 0.550821	 -0.724572	 0.000672
H	 -1.863538	 -1.185371	 -0.874187
H	 -2.574672	 0.185258	 -0.002793
H	 -1.866414	 -1.182381	 0.875436
C	 1.813353	 -0.251538	 -0.433532
H	 1.757229	 0.097441	 -1.454521
H	 2.484067	 -1.093433	 -0.362086
H	 2.154704	 0.554584	 0.199706

	symmetry c1
}
set optking {
	frozen_dihedral = ("
		2 4 8 9
	")
}

ee = energy('scf')
oeprop('DIPOLE', 'QUADRUPOLE', 'MULLIKEN_CHARGES')
f=open( 'psi4out.xyz', 'w' )
f.write( "11  " )
f.write( str(ee) + "\n" )
f.write( MOL.save_string_xyz() )
f.close()
--------------------------------------------------------------------------

    Molecular point group: c1

    Geometry (in Angstrom), charge = 0, multiplicity = 1:

       Center              X                  Y                   Z               Mass
    ------------   -----------------  -----------------  -----------------  -----------------
           O         -0.280859148613     1.336154562889     0.091471809125    15.994914619560
           C         -0.438886148613     0.158699562889     0.093164809125    12.000000000000
           C         -1.772525148613    -0.536981437111     0.091907809125    12.000000000000
           O          0.561589851387    -0.712232437111     0.092875809125    15.994914619560
           H         -1.852769148613    -1.173031437111    -0.781983190875     1.007825032070
           H         -2.563903148613     0.197597562889     0.089410809125     1.007825032070
           H         -1.855645148613    -1.170041437111     0.967639809125     1.007825032070
           C          1.824121851387    -0.239198437111    -0.341328190875    12.000000000000
           H          1.767997851387     0.109780562889    -1.362317190875     1.007825032070
           H          2.494835851387    -1.081093437111    -0.269882190875     1.007825032070
           H          2.165472851387     0.566923562889     0.291909809125     1.007825032070

  Charge       = 0
  Multiplicity = 1
  Basis Set: 6-31G*
  Basis Set:

    Orbital Energies (a.u.)
    -----------------------

    Doubly Occupied:

       1A    -20.603667     2A    -20.547332     3A    -11.376671
       4A    -11.283214     5A    -11.234781     6A     -1.470605
       7A     -1.364738     8A     -1.035373     9A     -0.953969
      10A     -0.778461    11A     -0.695867    12A     -0.680740
      13A     -0.676739    14A     -0.596441    15A     -0.592231
      16A     -0.562272    17A     -0.531029    18A     -0.516934
      19A     -0.457433    20A     -0.441751

  @DF-RHF Final Energy:  -266.83385885814357

   => Energetics <=

    Nuclear Repulsion Energy =            183.2817144305027171
    One-Electron Energy =                -727.4307180379294095
    Two-Electron Energy =                 277.3151447492830926
    DFT Exchange-Correlation Energy =       0.0000000000000000
    Empirical Dispersion Energy =           0.0000000000000000
    PCM Polarization Energy =               0.0000000000000000
    EFP Energy =                            0.0000000000000000
    Total Energy =                       -266.8338588581436284

  Mulliken Charges: (a.u.)
   Center  Symbol    Alpha    Beta     Spin     Total
       1     O     4.27968  4.27968  0.00000 -0.55936
       2     C     2.62246  2.62246  0.00000  0.75508
       3     C     3.28217  3.28217  0.00000 -0.56434
       4     O     4.30000  4.30000  0.00000 -0.60001
       5     H     0.40107  0.40107  0.00000  0.19787
       6     H     0.39690  0.39690  0.00000  0.20621
       7     H     0.39921  0.39921  0.00000  0.20158
       8     C     3.09350  3.09350  0.00000 -0.18700
       9     H     0.41292  0.41292  0.00000  0.17416
      10     H     0.40782  0.40782  0.00000  0.18437
      11     H     0.40428  0.40428  0.00000  0.19143

   Total alpha = 20.00000, Total beta = 20.00000, Total charge = -0.00000
