  ==> Input File <==

--------------------------------------------------------------------------
set {
	reference rhf
	basis 6-31G*
}

set_num_threads( 4 )
memory 2 gb

molecule MOL {
0 1

H	 -3.269016	 -0.876744	 0.468090
C	 -2.809304	 0.000122	 0.025886
N	 -1.391456	 0.000019	 0.300661
H	 -3.037557	 -0.000063	 -1.044252
H	 -3.269223	 0.876956	 0.468000
C	 -0.723556	 1.161421	 -0.253274
C	 -0.746008	 -1.221979	 -0.137432
H	 -0.802443	 1.188215	 -1.344404
H	 -1.200902	 2.055970	 0.133360
C	 0.745744	 1.166596	 0.138769
H	 -1.239757	 -2.065674	 0.333682
H	 -0.826379	 -1.352959	 -1.220896
C	 0.723293	 -1.216804	 0.254612
H	 1.239493	 2.010291	 -0.332343
H	 0.826116	 1.297575	 1.222233
N	 1.391193	 -0.055403	 -0.299324
H	 1.200639	 -2.111353	 -0.132022
H	 0.802180	 -1.243599	 1.345742
C	 2.809041	 -0.055506	 -0.024550
H	 3.276881	 0.794491	 -0.508703
H	 3.260586	 -0.957061	 -0.423463
H	 3.037534	 -0.005509	 1.044370

	symmetry c1
}
set optking {
	frozen_dihedral = ("
		6 3 2 4
	")
}

ee = optimize('scf')
oeprop('DIPOLE', 'QUADRUPOLE', 'MULLIKEN_CHARGES')
f=open( 'psi4out.xyz', 'w' )
f.write( "22  " )
f.write( str(ee) + "\n" )
f.write( MOL.save_string_xyz() )
f.close()
--------------------------------------------------------------------------

    Molecular point group: c1
  Charge       = 0
  Multiplicity = 1
  Basis Set: 6-31G*
  Basis Set:
  @DF-RHF Final Energy:  -344.23063084903634
    Total Energy =                       -344.2306308490360607
    Molecular point group: c1
  Basis Set: 6-31G*
  Basis Set:
  Basis Set: 6-31G*
  Basis Set:
  @DF-RHF Final Energy:  -344.23063580914743
    Total Energy =                       -344.2306358091474294
  Basis Set: 6-31G*
  Basis Set:
  Charge       = 0
  Multiplicity = 1
  Basis Set: 6-31G*
  Basis Set:

    Orbital Energies (a.u.)
    -----------------------

    Doubly Occupied:

       1A    -15.542121     2A    -15.541963     3A    -11.238838
       4A    -11.238814     5A    -11.238209     6A    -11.238191
       7A    -11.235964     8A    -11.235963     9A     -1.255371
      10A     -1.204360    11A     -1.024681    12A     -0.991799
      13A     -0.911400    14A     -0.866897    15A     -0.835352
      16A     -0.755110    17A     -0.665538    18A     -0.636748
      19A     -0.630213    20A     -0.626622    21A     -0.621449
      22A     -0.581165    23A     -0.549656    24A     -0.545775
      25A     -0.542121    26A     -0.517753    27A     -0.496171
      28A     -0.490788    29A     -0.464755    30A     -0.455753
      31A     -0.350604    32A     -0.345053

  @DF-RHF Final Energy:  -344.23063610730298

   => Energetics <=

    Nuclear Repulsion Energy =            421.4414107219257630
    One-Electron Energy =               -1301.5936938597426433
    Two-Electron Energy =                 535.9216470305137818
    DFT Exchange-Correlation Energy =       0.0000000000000000
    Empirical Dispersion Energy =           0.0000000000000000
    PCM Polarization Energy =               0.0000000000000000
    EFP Energy =                            0.0000000000000000
    Total Energy =                       -344.2306361073030985
    Molecular point group: c1
  Basis Set: 6-31G*
  Basis Set:

  -Total Gradient:
     Atom            X                  Y                   Z
    ------   -----------------  -----------------  -----------------
       1       -0.000010090724     0.000004260949     0.000001933761
       2        0.000049809643    -0.001020302741    -0.000146187846
       3       -0.000109028222     0.000524981679     0.000553954883
       4       -0.000002599571     0.000705009628    -0.000003761519
       5       -0.000004030073     0.000005088314    -0.000008350865
       6        0.000061935589    -0.000280337598    -0.000388869268
       7       -0.000028471253     0.000014609969     0.000032142728
       8        0.000011406044     0.000009735581    -0.000002209136
       9        0.000004873619     0.000019637744    -0.000010378209
      10        0.000011407655     0.000021851643    -0.000026128322
      11        0.000006592684    -0.000014872536    -0.000007039977
      12       -0.000006650472     0.000010250986    -0.000007589355
      13        0.000012562277     0.000008542629     0.000014044247
      14        0.000008181119     0.000000262395     0.000002072429
      15       -0.000009366569     0.000002404934    -0.000003376308
      16        0.000000145989     0.000002185239    -0.000005265829
      17       -0.000002846581     0.000002546691    -0.000001295396
      18        0.000005031203    -0.000002166216     0.000005903808
      19        0.000005728291    -0.000011253100     0.000001163032
      20       -0.000005837756    -0.000001295354    -0.000000694292
      21        0.000002598178    -0.000001278385     0.000000663369
      22       -0.000001351073     0.000000137552    -0.000000731935

  **** Optimization is complete! (in 3 steps) ****
    Final optimized geometry and variables:
    Molecular point group: c1

    Geometry (in Angstrom), charge = 0, multiplicity = 1:

    H           -3.273118157668    -0.844006592383     0.470784286632
    C           -2.808916955359     0.028298953952     0.024822359616
    N           -1.391561360991     0.026516676565     0.302839400909
    H           -3.034598341872     0.026910651177    -1.045829177189
    H           -3.266761696743     0.909598871174     0.460812164078
    C           -0.724106416706     1.187693292914    -0.252822653307
    C           -0.745525918346    -1.194531530991    -0.138720949589
    H           -0.804065667142     1.212411031580    -1.343872401370
    H           -1.201941045724     2.082725757768     0.132391472736
    C            0.745460506787     1.194544541905     0.137938987265
    H           -1.238263355209    -2.039678219594     0.330755914291
    H           -0.826103259043    -1.323107948412    -1.222441118042
    C            0.723910039728    -1.189144662931     0.252800125328
    H            1.238139213398     2.038519854511    -0.333843696265
    H            0.826670840162     1.325958891658     1.221268036567
    N            1.391494393930    -0.027134037701    -0.300521497234
    H            1.201460887191    -2.083279628313    -0.134579067006
    H            0.803055854045    -1.216735084431     1.343897174980
    C            2.809229048590    -0.026775264517    -0.025723894803
    H            3.276944650691     0.823609818117    -0.509376164817
    H            3.261118087830    -0.927966782531    -0.425086113040
    H            3.037793484505     0.022601197889     1.043226276131

  Mulliken Charges: (a.u.)
   Center  Symbol    Alpha    Beta     Spin     Total
       1     H     0.41685  0.41685  0.00000  0.16630
       2     C     3.14045  3.14045  0.00000 -0.28091
       3     N     3.78673  3.78673  0.00000 -0.57345
       4     H     0.43336  0.43336  0.00000  0.13328
       5     H     0.41660  0.41660  0.00000  0.16680
       6     C     3.05683  3.05683  0.00000 -0.11366
       7     C     3.05672  3.05672  0.00000 -0.11345
       8     H     0.42835  0.42835  0.00000  0.14330
       9     H     0.41789  0.41789  0.00000  0.16423
      10     C     3.05635  3.05635  0.00000 -0.11270
      11     H     0.41791  0.41791  0.00000  0.16418
      12     H     0.42847  0.42847  0.00000  0.14306
      13     C     3.05644  3.05644  0.00000 -0.11288
      14     H     0.41793  0.41793  0.00000  0.16414
      15     H     0.42844  0.42844  0.00000  0.14311
      16     N     3.78705  3.78705  0.00000 -0.57410
      17     H     0.41794  0.41794  0.00000  0.16412
      18     H     0.42845  0.42845  0.00000  0.14311
      19     C     3.14029  3.14029  0.00000 -0.28058
      20     H     0.41677  0.41677  0.00000  0.16646
      21     H     0.41676  0.41676  0.00000  0.16647
      22     H     0.43341  0.43341  0.00000  0.13317

   Total alpha = 32.00000, Total beta = 32.00000, Total charge = -0.00000
