                              Psi4 1.0.54 Driver

  ==> Input File <==

--------------------------------------------------------------------------
set {
	reference rhf
	basis cc-pvtz
}

set_num_threads( 4 )
memory 2 gb

molecule MOL {
0 1

O	 3.219313	 0.959291	 -0.614106
C	 2.698710	 0.058177	 -0.050237
C	 1.246364	 -0.005813	 0.348416
O	 3.344101	 -1.038700	 0.312317
C	 0.453207	 1.232821	 -0.049003
H	 0.839270	 -0.907818	 -0.092281
H	 1.216683	 -0.160521	 1.422434
C	 -0.998367	 1.217982	 0.432195
H	 0.481498	 1.345443	 -1.127236
H	 0.951413	 2.105557	 0.354893
C	 -1.882951	 0.151251	 -0.211235
H	 -1.429490	 2.193659	 0.228843
H	 -1.019755	 1.099323	 1.513279
C	 -3.342450	 0.243269	 0.226009
H	 -1.826223	 0.246578	 -1.293162
H	 -1.508033	 -0.839650	 0.027695
C	 -3.514091	 0.604880	 1.698609
H	 -3.836008	 -0.705785	 0.030975
H	 -3.854646	 0.982527	 -0.385562
C	 -4.974716	 0.693113	 2.128223
H	 -3.002990	 -0.133027	 2.310972
H	 -3.023724	 1.554607	 1.894605
H	 -5.060988	 0.951428	 3.177420
H	 -5.484657	 -0.252617	 1.977680
H	 -5.505718	 1.447634	 1.557308
C	 4.720529	 -1.114346	 0.001449
H	 4.874321	 -1.055557	 -1.065852
H	 5.057824	 -2.067950	 0.373977
H	 5.264321	 -0.313596	 0.480350

	symmetry c1
}
set optking {
	frozen_dihedral = ("
		17 14 11 15
	")
}

ee,wfn = optimize('scf', return_wfn=True)
oeprop( wfn, 'DIPOLE', 'QUADRUPOLE', 'MULLIKEN_CHARGES')
f=open( 'psi4out.xyz', 'w' )
f.write( "29  " )
f.write( str(ee) + "\n" )
f.write( MOL.save_string_xyz() )
f.close()
--------------------------------------------------------------------------

    Molecular point group: c1
  Charge       = 0
  Multiplicity = 1
  Basis Set: CC-PVTZ
  Basis Set:
  @DF-RHF Final Energy:  -501.21835975226236
    Total Energy =                       -501.2183597522625860
    Molecular point group: c1
  Basis Set: CC-PVTZ
  Basis Set:
  Basis Set: CC-PVTZ
  Basis Set:
  @DF-RHF Final Energy:  -501.21614985093504
    Total Energy =                       -501.2161498509353805
  Basis Set: CC-PVTZ
  Basis Set:
  Basis Set: CC-PVTZ
  Basis Set:
  @DF-RHF Final Energy:  -501.22020942167489
    Total Energy =                       -501.2202094216745536
  Basis Set: CC-PVTZ
  Basis Set:
  Basis Set: CC-PVTZ
  Basis Set:
  @DF-RHF Final Energy:  -501.22044172879612
    Total Energy =                       -501.2204417287962315
  Basis Set: CC-PVTZ
  Basis Set:
  @DF-RHF Final Energy:  -501.22032871679562
    Total Energy =                       -501.2203287167953931
  Basis Set: CC-PVTZ
  Basis Set:
  @DF-RHF Final Energy:  -501.22033245660009
    Total Energy =                       -501.2203324565996354
  Basis Set: CC-PVTZ
  Basis Set:
  Basis Set: CC-PVTZ
  Basis Set:
  @DF-RHF Final Energy:  -501.22046250371625
    Total Energy =                       -501.2204625037164760
  Basis Set: CC-PVTZ
  Basis Set:
  Basis Set: CC-PVTZ
  Basis Set:
  @DF-RHF Final Energy:  -501.22046493868515
    Total Energy =                       -501.2204649386842448
  Basis Set: CC-PVTZ
  Basis Set:
  Charge       = 0
  Multiplicity = 1
  Basis Set: CC-PVTZ
  Basis Set:

    Orbital Energies (a.u.)
    -----------------------

    Doubly Occupied:

       1A    -20.595914     2A    -20.533770     3A    -11.364173
       4A    -11.278190     5A    -11.232835     6A    -11.216825
       7A    -11.215064     8A    -11.214373     9A    -11.213643
      10A    -11.212881    11A    -11.207030    12A     -1.471829
      13A     -1.365398    14A     -1.099101    15A     -1.066635
      16A     -1.018596    17A     -0.977571    18A     -0.929436
      19A     -0.862854    20A     -0.819153    21A     -0.776010
      22A     -0.759358    23A     -0.703084    24A     -0.685373
      25A     -0.675690    26A     -0.648793    27A     -0.627584
      28A     -0.605395    29A     -0.599934    30A     -0.582302
      31A     -0.565664    32A     -0.555334    33A     -0.546433
      34A     -0.525544    35A     -0.515508    36A     -0.507618
      37A     -0.494519    38A     -0.484871    39A     -0.477157
      40A     -0.460606    41A     -0.451985    42A     -0.450264
      43A     -0.444213    44A     -0.439737

  @DF-RHF Final Energy:  -501.22046563348351

   => Energetics <=

    Nuclear Repulsion Energy =            616.6745647463500291
    One-Electron Energy =               -1904.8335725430151797
    Two-Electron Energy =                 786.9385421631818645
    DFT Exchange-Correlation Energy =       0.0000000000000000
    Empirical Dispersion Energy =           0.0000000000000000
    PCM Polarization Energy =               0.0000000000000000
    EFP Energy =                            0.0000000000000000
    Total Energy =                       -501.2204656334833999
    Molecular point group: c1
  Basis Set: CC-PVTZ
  Basis Set:

  -Total Gradient:
     Atom            X                  Y                   Z
    ------   -----------------  -----------------  -----------------
       1        0.000004247255    -0.000066436660     0.000005722382
       2        0.000001532711     0.000074620737     0.000060645372
       3       -0.000014066595    -0.000027493448    -0.000029597305
       4        0.000000047899     0.000013936624    -0.000043377354
       5        0.000010196670     0.000017635219     0.000019537421
       6       -0.000014941278     0.000004575822     0.000006414538
       7        0.000003973177     0.000005907270    -0.000010692710
       8        0.000009318480     0.000026505924    -0.000039090062
       9       -0.000002671449     0.000006300868     0.000009295432
      10        0.000003024999    -0.000017193880     0.000006344401
      11       -0.000408006459    -0.005159672409    -0.000311097678
      12        0.000022743901    -0.000007419282    -0.000017415185
      13       -0.000021687572     0.000004477023    -0.000016646969
      14        0.000191105068    -0.004442326642     0.002326122322
      15        0.000324358882     0.005654193462    -0.000323963635
      16        0.000029328758    -0.000011398798    -0.000001599151
      17       -0.000137049377     0.003928618384    -0.001672878313
      18       -0.000007539617     0.000020208951     0.000011078297
      19       -0.000017159266     0.000006554265     0.000005591714
      20        0.000030307664    -0.000000300288     0.000028412459
      21       -0.000020426955    -0.000010638873     0.000001460266
      22       -0.000003610423    -0.000020862872     0.000002087668
      23       -0.000001634290    -0.000001469578    -0.000010434143
      24        0.000009377988     0.000004356490     0.000002368706
      25        0.000009058436     0.000001999759    -0.000008731028
      26        0.000006258974     0.000001375767     0.000000002109
      27       -0.000001711567    -0.000001639011     0.000007278024
      28        0.000005034008     0.000001918524    -0.000005969162
      29       -0.000009410022    -0.000006333346    -0.000000868416

  **** Optimization is complete! (in 9 steps) ****
    Final optimized geometry and variables:
    Molecular point group: c1

    Geometry (in Angstrom), charge = 0, multiplicity = 1:

    O            3.074779939968     0.657543269966    -1.152321608955
    C            2.608291725410    -0.159843599861    -0.434525938197
    C            1.172306157107    -0.211046133977     0.021226972354
    O            3.308343948571    -1.161777678954     0.072612395319
    C            0.318503870749     0.921400316128    -0.535671498993
    H            0.788724248355    -1.184683740818    -0.258821285424
    H            1.180984701563    -0.196264952358     1.106603896875
    C           -1.114574531330     0.935117261758    -0.000472113603
    H            0.307137968389     0.861685584594    -1.618429206566
    H            0.795381689846     1.863337616259    -0.293962573289
    C           -1.961941263814    -0.264088193728    -0.436062417966
    H           -1.592209917888     1.845817157802    -0.350636866424
    H           -1.088045022951     1.004233437821     1.082537719668
    C           -3.457368741552    -0.159760144640    -0.098516609399
    H           -1.867323618758    -0.332750717809    -1.516112009280
    H           -1.556882333838    -1.176830992626    -0.012325867777
    C           -3.801910983613     0.410554535942     1.276587649816
    H           -3.907085987983    -1.142650239371    -0.202488826669
    H           -3.937299661946     0.467557966096    -0.846350274016
    C           -5.301254425137     0.385157913264     1.556587939193
    H           -3.285070677952    -0.152852888127     2.050033397136
    H           -3.445396778756     1.431064035087     1.352096807279
    H           -5.526399070798     0.807809723297     2.529054517431
    H           -5.686859273232    -0.628689465742     1.538936996056
    H           -5.846913983685     0.957382708271     0.813409299194
    C            4.676515011073    -1.237531606027    -0.272738563100
    H            4.794975159153    -1.343655329800    -1.340882068208
    H            5.063493569390    -2.107414930475     0.232701733211
    H            5.201890173159    -0.352290652097     0.053709357213

  Mulliken Charges: (a.u.)
   Center  Symbol    Alpha    Beta     Spin     Total
       1     O     4.19712  4.19712  0.00000 -0.39424
       2     C     2.80511  2.80511  0.00000  0.38979
       3     C     3.10161  3.10161  0.00000 -0.20321
       4     O     4.14718  4.14718  0.00000 -0.29436
       5     C     3.09232  3.09232  0.00000 -0.18463
       6     H     0.43886  0.43886  0.00000  0.12228
       7     H     0.44012  0.44012  0.00000  0.11976
       8     C     3.10804  3.10804  0.00000 -0.21607
       9     H     0.44653  0.44653  0.00000  0.10693
      10     H     0.43938  0.43938  0.00000  0.12124
      11     C     3.10076  3.10076  0.00000 -0.20151
      12     H     0.44458  0.44458  0.00000  0.11084
      13     H     0.44973  0.44973  0.00000  0.10054
      14     C     3.09186  3.09186  0.00000 -0.18372
      15     H     0.44915  0.44915  0.00000  0.10169
      16     H     0.45115  0.45115  0.00000  0.09770
      17     C     3.08849  3.08849  0.00000 -0.17697
      18     H     0.44935  0.44935  0.00000  0.10129
      19     H     0.45348  0.45348  0.00000  0.09305
      20     C     3.15099  3.15099  0.00000 -0.30198
      21     H     0.45442  0.45442  0.00000  0.09116
      22     H     0.45005  0.45005  0.00000  0.09991
      23     H     0.44827  0.44827  0.00000  0.10346
      24     H     0.45441  0.45441  0.00000  0.09118
      25     H     0.45509  0.45509  0.00000  0.08982
      26     C     3.03811  3.03811  0.00000 -0.07622
      27     H     0.45436  0.45436  0.00000  0.09128
      28     H     0.44527  0.44527  0.00000  0.10946
      29     H     0.45424  0.45424  0.00000  0.09152

   Total alpha = 44.00000, Total beta = 44.00000, Total charge =  0.00000

*** Psi4 exiting successfully. Buy a developer a beer!
