  ==> Input File <==

--------------------------------------------------------------------------
set {
	reference rhf
	basis cc-pvtz
}

set_num_threads( 4 )
memory 2 gb

molecule MOL {
0 1

H	 1.166964	 -1.062386	 0.758429
O	 1.324748	 -0.612467	 -0.052206
C	 0.706474	 0.636793	 -0.025501
C	 -0.491160	 0.761662	 -0.924229
H	 1.456987	 1.356988	 -0.329393
H	 0.414182	 0.903244	 0.988535
C	 -0.912425	 -0.147602	 -1.775159
H	 -1.024045	 1.694043	 -0.835081
H	 -0.398891	 -1.081114	 -1.904815
H	 -1.782016	 0.021139	 -2.381293

	symmetry c1
}
set optking {
	frozen_dihedral = ("
		5 3 2 1
	")
}

ee = optimize('scf')
oeprop('DIPOLE', 'QUADRUPOLE', 'MULLIKEN_CHARGES')
f=open( 'psi4out.xyz', 'w' )
f.write( "10  " )
f.write( str(ee) + "\n" )
f.write( MOL.save_string_xyz() )
f.close()
--------------------------------------------------------------------------

    Molecular point group: c1
  Charge       = 0
  Multiplicity = 1
  Basis Set: CC-PVTZ
  Basis Set:
  @DF-RHF Final Energy:  -191.99668001348078
    Total Energy =                       -191.9966800134806988
    Molecular point group: c1
  Basis Set: CC-PVTZ
  Basis Set:
  Basis Set: CC-PVTZ
  Basis Set:
  @DF-RHF Final Energy:  -191.99709800286035
    Total Energy =                       -191.9970980028602980
  Basis Set: CC-PVTZ
  Basis Set:
  Basis Set: CC-PVTZ
  Basis Set:
  @DF-RHF Final Energy:  -191.99717479917518
    Total Energy =                       -191.9971747991751840
  Basis Set: CC-PVTZ
  Basis Set:
  Basis Set: CC-PVTZ
  Basis Set:
  @DF-RHF Final Energy:  -191.99717685456039
    Total Energy =                       -191.9971768545603936
  Basis Set: CC-PVTZ
  Basis Set:
  Charge       = 0
  Multiplicity = 1
  Basis Set: CC-PVTZ
  Basis Set:

    Orbital Energies (a.u.)
    -----------------------

    Doubly Occupied:

       1A    -20.553599     2A    -11.278531     3A    -11.224531
       4A    -11.209833     5A     -1.373383     6A     -1.058799
       7A     -0.928552     8A     -0.762740     9A     -0.705468
      10A     -0.656212    11A     -0.615586    12A     -0.579602
      13A     -0.514870    14A     -0.509710    15A     -0.450320
      16A     -0.363036

  @DF-RHF Final Energy:  -191.99717716156891

   => Energetics <=

    Nuclear Repulsion Energy =            119.3969398316096431
    One-Electron Energy =                -497.2186915813049950
    Two-Electron Energy =                 185.8245745881263247
    DFT Exchange-Correlation Energy =       0.0000000000000000
    Empirical Dispersion Energy =           0.0000000000000000
    PCM Polarization Energy =               0.0000000000000000
    EFP Energy =                            0.0000000000000000
    Total Energy =                       -191.9971771615690272
    Molecular point group: c1
  Basis Set: CC-PVTZ
  Basis Set:

  -Total Gradient:
     Atom            X                  Y                   Z
    ------   -----------------  -----------------  -----------------
       1        0.001046168476     0.000504229544     0.000568621567
       2       -0.001224431834    -0.000591321710    -0.000442512854
       3       -0.000113928304     0.000013907254    -0.001183870290
       4        0.000014021721     0.000029288877     0.000011841688
       5        0.000275937132     0.000068345297     0.001053861086
       6       -0.000002319902    -0.000009381423    -0.000006117177
       7        0.000028816613     0.000004400478    -0.000026654049
       8       -0.000005227547    -0.000003180148     0.000003456252
       9       -0.000011219246    -0.000011042278     0.000007463484
      10       -0.000007817107    -0.000005245891     0.000013910293

  **** Optimization is complete! (in 5 steps) ****
    Final optimized geometry and variables:
    Molecular point group: c1

    Geometry (in Angstrom), charge = 0, multiplicity = 1:

    H            0.952831859730    -1.225659721886     1.324627448004
    O            1.117713101169    -0.721490402511     0.551252595060
    C            0.479474918252     0.520168501163     0.632512382989
    C           -0.698327782693     0.646431209296    -0.289682508355
    H            1.206479435076     1.289820544204     0.392751062084
    H            0.151867126134     0.721756528926     1.649613239848
    C           -1.141894524872    -0.290738824451    -1.096456299873
    H           -1.189957441308     1.605108457140    -0.259875384791
    H           -0.665582559302    -1.249868450501    -1.153890553105
    H           -1.992370393968    -0.119306617804    -1.728703792987

  Mulliken Charges: (a.u.)
   Center  Symbol    Alpha    Beta     Spin     Total
       1     H     0.38999  0.38999  0.00000  0.22002
       2     O     4.19916  4.19916  0.00000 -0.39831
       3     C     2.94946  2.94946  0.00000  0.10109
       4     C     3.08000  3.08000  0.00000 -0.16000
       5     H     0.46009  0.46009  0.00000  0.07983
       6     H     0.47133  0.47133  0.00000  0.05733
       7     C     3.17568  3.17568  0.00000 -0.35136
       8     H     0.42407  0.42407  0.00000  0.15187
       9     H     0.42084  0.42084  0.00000  0.15832
      10     H     0.42939  0.42939  0.00000  0.14122

   Total alpha = 16.00000, Total beta = 16.00000, Total charge = -0.00000
