  ==> Input File <==

--------------------------------------------------------------------------
set {
	reference rhf
	basis 6-31G*
}

set_num_threads( 4 )
memory 2 gb

molecule MOL {
0 1

H	 -3.881361	 0.686036	 -0.112494
O	 -3.032409	 1.013790	 -0.372560
C	 -2.026376	 0.340750	 0.341611
C	 -0.673256	 0.843270	 -0.132153
H	 -2.132423	 0.523541	 1.409449
H	 -2.099787	 -0.734576	 0.183693
C	 0.486613	 -0.083066	 0.235839
H	 -0.715586	 0.970948	 -1.210718
H	 -0.508072	 1.829858	 0.297090
C	 1.840406	 0.433480	 -0.254303
H	 0.300215	 -1.068318	 -0.178947
H	 0.519509	 -0.203625	 1.318070
C	 3.000220	 -0.489290	 0.118523
H	 1.809207	 0.553576	 -1.335192
H	 2.021860	 1.424500	 0.157276
H	 2.864959	 -1.479103	 -0.307933
H	 3.946603	 -0.099227	 -0.243630
H	 3.080049	 -0.602997	 1.196117

	symmetry c1
}
set optking {
	frozen_dihedral = ("
		2 3 4 8
	")
}

ee = optimize('scf')
oeprop('DIPOLE', 'QUADRUPOLE', 'MULLIKEN_CHARGES')
f=open( 'psi4out.xyz', 'w' )
f.write( "18  " )
f.write( str(ee) + "\n" )
f.write( MOL.save_string_xyz() )
f.close()
--------------------------------------------------------------------------

    Molecular point group: c1
  Charge       = 0
  Multiplicity = 1
  Basis Set: 6-31G*
  Basis Set:
  @DF-RHF Final Energy:  -271.17839330630346
    Total Energy =                       -271.1783933063035192
    Molecular point group: c1
  Basis Set: 6-31G*
  Basis Set:
  Basis Set: 6-31G*
  Basis Set:
  @DF-RHF Final Energy:  -271.17862653595148
    Total Energy =                       -271.1786265359516506
  Basis Set: 6-31G*
  Basis Set:
  Basis Set: 6-31G*
  Basis Set:
  @DF-RHF Final Energy:  -271.17866218977656
    Total Energy =                       -271.1786621897765031
  Basis Set: 6-31G*
  Basis Set:
  Basis Set: 6-31G*
  Basis Set:
  @DF-RHF Final Energy:  -271.17866497195240
    Total Energy =                       -271.1786649719525144
  Basis Set: 6-31G*
  Basis Set:
  Charge       = 0
  Multiplicity = 1
  Basis Set: 6-31G*
  Basis Set:

    Orbital Energies (a.u.)
    -----------------------

    Doubly Occupied:

       1A    -20.552030     2A    -11.267301     3A    -11.216347
       4A    -11.215473     5A    -11.210652     6A    -11.208775
       7A     -1.358748     8A     -1.080215     9A     -1.010755
      10A     -0.913300    11A     -0.820117    12A     -0.792725
      13A     -0.694436    14A     -0.658585    15A     -0.621926
      16A     -0.586889    17A     -0.571485    18A     -0.556213
      19A     -0.531050    20A     -0.493879    21A     -0.490154
      22A     -0.469680    23A     -0.463892    24A     -0.450785
      25A     -0.432962

  @DF-RHF Final Energy:  -271.17866516715139

   => Energetics <=

    Nuclear Repulsion Energy =            245.2201840247804512
    One-Electron Energy =                -853.4609513947700634
    Two-Electron Energy =                 337.0621022028385028
    DFT Exchange-Correlation Energy =       0.0000000000000000
    Empirical Dispersion Energy =           0.0000000000000000
    PCM Polarization Energy =               0.0000000000000000
    EFP Energy =                            0.0000000000000000
    Total Energy =                       -271.1786651671511095
    Molecular point group: c1
  Basis Set: 6-31G*
  Basis Set:

  -Total Gradient:
     Atom            X                  Y                   Z
    ------   -----------------  -----------------  -----------------
       1        0.000011783987    -0.000007842385     0.000004088293
       2        0.000024078706    -0.001926212752    -0.001805006811
       3       -0.000241319666     0.003186136479     0.002444477518
       4        0.001255086615    -0.004515827568    -0.001030796866
       5       -0.000012560130     0.000005278249     0.000001378582
       6       -0.000012026095     0.000008026244    -0.000013176196
       7        0.000002703240     0.000016489761    -0.000021136551
       8       -0.001017283068     0.003218185540     0.000365929963
       9        0.000002641686     0.000002284471     0.000027397353
      10        0.000003616374    -0.000007533994     0.000013374191
      11       -0.000001729202     0.000026798883     0.000003521883
      12        0.000008190966     0.000003078543     0.000009439494
      13       -0.000009675340    -0.000014137846    -0.000010673385
      14       -0.000001575471    -0.000002130299     0.000001815845
      15       -0.000014212707     0.000006405564     0.000007077411
      16        0.000001349944    -0.000004549032     0.000007670613
      17       -0.000001790866     0.000000945058    -0.000005424319
      18        0.000002721023     0.000004605082     0.000000042983

  **** Optimization is complete! (in 5 steps) ****
    Final optimized geometry and variables:
    Molecular point group: c1

    Geometry (in Angstrom), charge = 0, multiplicity = 1:

    H           -3.747973656787     0.410334431622    -0.010214125149
    O           -2.901325538599     0.662853717669    -0.349935284119
    C           -1.889956327849    -0.008671759404     0.356789088628
    C           -0.543717209929     0.482250371692    -0.154061927539
    H           -1.976578318631     0.171591436613     1.426862543419
    H           -1.976071113376    -1.083466134519     0.200560664573
    C            0.617492498045    -0.433004007538     0.231456257161
    H           -0.614952326177     0.592646212505    -1.232118143410
    H           -0.369902756891     1.483336483296     0.233746958640
    C            1.976836347938     0.095939787135    -0.229067627155
    H            0.455344816817    -1.421865413217    -0.193837958711
    H            0.634414797184    -0.565583622107     1.312731964708
    C            3.134984105775    -0.827414130108     0.146784045875
    H            1.960412269981     0.234752823746    -1.307757440646
    H            2.144620361615     1.080121594469     0.202574939924
    H            3.013248068680    -1.810784483712    -0.298648493964
    H            4.084416275136    -0.425866327331    -0.193585461312
    H            3.198549414583    -0.958761701229     1.223400380059

  Mulliken Charges: (a.u.)
   Center  Symbol    Alpha    Beta     Spin     Total
       1     H     0.28129  0.28129  0.00000  0.43742
       2     O     4.37173  4.37173  0.00000 -0.74346
       3     C     2.99032  2.99032  0.00000  0.01937
       4     C     3.16118  3.16118  0.00000 -0.32237
       5     H     0.43194  0.43194  0.00000  0.13612
       6     H     0.43270  0.43270  0.00000  0.13459
       7     C     3.15858  3.15858  0.00000 -0.31717
       8     H     0.41069  0.41069  0.00000  0.17863
       9     H     0.41785  0.41785  0.00000  0.16430
      10     C     3.15110  3.15110  0.00000 -0.30219
      11     H     0.42254  0.42254  0.00000  0.15492
      12     H     0.42468  0.42468  0.00000  0.15063
      13     C     3.23950  3.23950  0.00000 -0.47900
      14     H     0.42123  0.42123  0.00000  0.15754
      15     H     0.42201  0.42201  0.00000  0.15598
      16     H     0.42172  0.42172  0.00000  0.15657
      17     H     0.41884  0.41884  0.00000  0.16232
      18     H     0.42209  0.42209  0.00000  0.15581

   Total alpha = 25.00000, Total beta = 25.00000, Total charge =  0.00000
