                              Psi4 1.0.54 Driver

  ==> Input File <==

--------------------------------------------------------------------------
set {
	reference rhf
	basis cc-pvtz
}

set_num_threads( 4 )
memory 2 gb

molecule MOL {
0 1

H	 -3.436473	 1.252944	 -1.023892
O	 -3.458596	 0.315260	 -0.960865
C	 -3.176635	 -0.080824	 0.355601
C	 -1.763371	 0.265266	 0.799691
H	 -3.321825	 -1.153438	 0.379502
H	 -3.895468	 0.357385	 1.043382
C	 -0.673390	 -0.426948	 -0.013392
H	 -1.631049	 1.344913	 0.747560
H	 -1.664587	 -0.001624	 1.849167
C	 0.656875	 -0.528351	 0.728284
H	 -0.530115	 0.106736	 -0.946434
H	 -1.012761	 -1.424454	 -0.282308
C	 1.742000	 -1.226611	 -0.089019
H	 0.984006	 0.469926	 1.002726
H	 0.509917	 -1.068495	 1.661292
C	 3.071176	 -1.424577	 0.641700
H	 1.917381	 -0.666361	 -1.004558
H	 1.371030	 -2.200162	 -0.397561
C	 3.816656	 -0.133647	 0.971704
H	 3.711968	 -2.047359	 0.025012
H	 2.897032	 -1.983875	 1.557276
H	 3.999710	 0.449986	 0.075077
H	 4.777153	 -0.349717	 1.425577
H	 3.263173	 0.489093	 1.664133

	symmetry c1
}
set optking {
	frozen_dihedral = ("
		11 7 4 3
	")
}

ee,wfn = optimize('scf', return_wfn=True)
oeprop( wfn, 'DIPOLE', 'QUADRUPOLE', 'MULLIKEN_CHARGES')
f=open( 'psi4out.xyz', 'w' )
f.write( "24  " )
f.write( str(ee) + "\n" )
f.write( MOL.save_string_xyz() )
f.close()
--------------------------------------------------------------------------

    Molecular point group: c1
  Charge       = 0
  Multiplicity = 1
  Basis Set: CC-PVTZ
  Basis Set:
  @DF-RHF Final Energy:  -349.37872846484754
    Total Energy =                       -349.3787284648475406
    Molecular point group: c1
  Basis Set: CC-PVTZ
  Basis Set:
  Basis Set: CC-PVTZ
  Basis Set:
  @DF-RHF Final Energy:  -349.37824084266481
    Total Energy =                       -349.3782408426645816
  Basis Set: CC-PVTZ
  Basis Set:
  Basis Set: CC-PVTZ
  Basis Set:
  @DF-RHF Final Energy:  -349.37893733828179
    Total Energy =                       -349.3789373382816734
  Basis Set: CC-PVTZ
  Basis Set:
  Basis Set: CC-PVTZ
  Basis Set:
  @DF-RHF Final Energy:  -349.37896671745142
    Total Energy =                       -349.3789667174511351
  Basis Set: CC-PVTZ
  Basis Set:
  Basis Set: CC-PVTZ
  Basis Set:
  @DF-RHF Final Energy:  -349.37896938921671
    Total Energy =                       -349.3789693892160813
  Basis Set: CC-PVTZ
  Basis Set:
  Charge       = 0
  Multiplicity = 1
  Basis Set: CC-PVTZ
  Basis Set:

    Orbital Energies (a.u.)
    -----------------------

    Doubly Occupied:

       1A    -20.545597     2A    -11.265289     3A    -11.215154
       4A    -11.212194     5A    -11.210435     6A    -11.209867
       7A    -11.209415     8A    -11.205415     9A     -1.363403
      10A     -1.089868    11A     -1.049214    12A     -0.986790
      13A     -0.916193    14A     -0.851323    15A     -0.801343
      16A     -0.776777    17A     -0.680801    18A     -0.653916
      19A     -0.629027    20A     -0.618739    21A     -0.601562
      22A     -0.583955    23A     -0.554775    24A     -0.546597
      25A     -0.517219    26A     -0.503837    27A     -0.502106
      28A     -0.474833    29A     -0.469000    30A     -0.461272
      31A     -0.455279    32A     -0.450902    33A     -0.420815

  @DF-RHF Final Energy:  -349.37897024246206

   => Energetics <=

    Nuclear Repulsion Energy =            384.5377247538589245
    One-Electron Energy =               -1235.7675581598628014
    Two-Electron Energy =                 501.8508631635417032
    DFT Exchange-Correlation Energy =       0.0000000000000000
    Empirical Dispersion Energy =           0.0000000000000000
    PCM Polarization Energy =               0.0000000000000000
    EFP Energy =                            0.0000000000000000
    Total Energy =                       -349.3789702424621737
    Molecular point group: c1
  Basis Set: CC-PVTZ
  Basis Set:

  -Total Gradient:
     Atom            X                  Y                   Z
    ------   -----------------  -----------------  -----------------
       1       -0.000000590366    -0.000017713111     0.000027646463
       2       -0.000010328856    -0.000028077903    -0.000029268622
       3       -0.000041137192    -0.001628447070     0.001782694379
       4        0.000607779315     0.002802703951    -0.002178825979
       5        0.000004200129     0.000022068830    -0.000026740892
       6        0.000005732680    -0.000011528049    -0.000015416260
       7       -0.002903352051    -0.003124731648    -0.000816766468
       8       -0.000001302407    -0.000019200121    -0.000020099924
       9        0.000018599187    -0.000008346979     0.000029079480
      10        0.000002431143    -0.000002604135     0.000022520955
      11        0.002316347762     0.002025786427     0.001199715669
      12       -0.000011600763     0.000007042015     0.000013773296
      13        0.000000434564    -0.000024368583     0.000006493552
      14        0.000010462961     0.000009459679     0.000006318585
      15        0.000014878957     0.000000717580     0.000002511826
      16        0.000012218237    -0.000007990194    -0.000017178862
      17       -0.000007074795    -0.000002700621    -0.000000620729
      18       -0.000007500659    -0.000004188387     0.000002781237
      19       -0.000012049845     0.000004637348     0.000009585234
      20        0.000002827473    -0.000002976665    -0.000007332468
      21        0.000004529145    -0.000009140598     0.000001984905
      22        0.000005608619     0.000000041314    -0.000004614131
      23        0.000001421655     0.000004491674     0.000008405464
      24       -0.000012534892     0.000015065242     0.000003353289

  **** Optimization is complete! (in 6 steps) ****
    Final optimized geometry and variables:
    Molecular point group: c1

    Geometry (in Angstrom), charge = 0, multiplicity = 1:

    H           -3.362039869844     1.422141298277    -1.506316114559
    O           -3.426681029012     0.508945416042    -1.292861021297
    C           -3.156558219707     0.317549147414     0.071045886329
    C           -1.734124735948     0.683165472360     0.463673785461
    H           -3.330311668529    -0.733748882266     0.261111013101
    H           -3.863203748895     0.877424080726     0.678837902536
    C           -0.658919504906    -0.114635912048    -0.276616847817
    H           -1.573825398645     1.749073673919     0.315639361993
    H           -1.643085783354     0.510957245161     1.533818916214
    C            0.683892451935    -0.115876697020     0.452649391203
    H           -0.510926704251     0.308158316006    -1.264466430724
    H           -0.995112497546    -1.137221904954    -0.419106222022
    C            1.777661904542    -0.855797861814    -0.314733214445
    H            0.987497148701     0.910980583747     0.634343508075
    H            0.561258749143    -0.574997049981     1.431224278964
    C            3.115771676803    -0.966771279012     0.418164579554
    H            1.935311349582    -0.368535752565    -1.274256433640
    H            1.424770144619    -1.858468434938    -0.540350720184
    C            3.832328005387     0.362614756241     0.642942916576
    H            3.767256227418    -1.619959494129    -0.154287801122
    H            2.960580774183    -1.458349274700     1.375067938479
    H            3.995743945917     0.880403112927    -0.296919980591
    H            4.800587635831     0.204355205814     1.104098336123
    H            3.268441456505     1.023217541733     1.290449492873

  Mulliken Charges: (a.u.)
   Center  Symbol    Alpha    Beta     Spin     Total
       1     H     0.39519  0.39519  0.00000  0.20963
       2     O     4.20460  4.20460  0.00000 -0.40921
       3     C     2.97672  2.97672  0.00000  0.04656
       4     C     3.10741  3.10741  0.00000 -0.21481
       5     H     0.45861  0.45861  0.00000  0.08277
       6     H     0.46170  0.46170  0.00000  0.07661
       7     C     3.07878  3.07878  0.00000 -0.15756
       8     H     0.45558  0.45558  0.00000  0.08883
       9     H     0.45473  0.45473  0.00000  0.09053
      10     C     3.09293  3.09293  0.00000 -0.18587
      11     H     0.45222  0.45222  0.00000  0.09556
      12     H     0.45206  0.45206  0.00000  0.09588
      13     C     3.09510  3.09510  0.00000 -0.19020
      14     H     0.45337  0.45337  0.00000  0.09326
      15     H     0.45591  0.45591  0.00000  0.08818
      16     C     3.09003  3.09003  0.00000 -0.18006
      17     H     0.45392  0.45392  0.00000  0.09217
      18     H     0.44921  0.44921  0.00000  0.10157
      19     C     3.15246  3.15246  0.00000 -0.30492
      20     H     0.44858  0.44858  0.00000  0.10284
      21     H     0.45511  0.45511  0.00000  0.08978
      22     H     0.45505  0.45505  0.00000  0.08990
      23     H     0.44663  0.44663  0.00000  0.10673
      24     H     0.45409  0.45409  0.00000  0.09182

   Total alpha = 33.00000, Total beta = 33.00000, Total charge =  0.00000

*** Psi4 exiting successfully. Buy a developer a beer!
