  ==> Input File <==

--------------------------------------------------------------------------
set {
	reference rhf
	basis 6-31G*
}

set_num_threads( 1 )
memory 2 gb

molecule MOL {
0 1

H	 2.591676	 2.013956	 0.335017
O	 3.341076	 1.666752	 -0.126416
C	 3.569581	 0.339145	 0.272707
C	 2.501715	 -0.629795	 -0.222817
H	 4.531011	 0.067855	 -0.144101
H	 3.658213	 0.277012	 1.356711
C	 1.106394	 -0.362725	 0.346939
H	 2.468330	 -0.580605	 -1.308097
H	 2.812274	 -1.639773	 0.039603
C	 0.068753	 -1.384356	 -0.126759
H	 0.789018	 0.636142	 0.060755
H	 1.151034	 -0.377731	 1.436031
C	 -1.327831	 -1.213312	 0.482042
H	 -0.004332	 -1.343485	 -1.212040
H	 0.429797	 -2.381825	 0.114909
C	 -2.057698	 0.068266	 0.070546
H	 -1.935134	 -2.067304	 0.189303
H	 -1.254017	 -1.253679	 1.567749
C	 -3.484884	 0.143238	 0.617316
H	 -2.086645	 0.131727	 -1.016305
H	 -1.504725	 0.940001	 0.412016
C	 -4.213486	 1.424496	 0.213360
H	 -4.049880	 -0.718250	 0.267880
H	 -3.458687	 0.070209	 1.702612
H	 -4.285026	 1.510762	 -0.867225
H	 -5.222191	 1.446922	 0.614167
H	 -3.692580	 2.304527	 0.580191

	symmetry c1
}
set optking {
	frozen_dihedral = ("
		14 10 7 4,
		14 10 13 16,
		10 7 4 8,
		8 4 3 2,
		10 13 16 20,
		20 16 19 22
	")
}

ee = energy('scf')
oeprop('DIPOLE', 'QUADRUPOLE', 'MULLIKEN_CHARGES')
f=open( 'psi4out.xyz', 'w' )
f.write( "27  " )
f.write( str(ee) + "\n" )
f.write( MOL.save_string_xyz() )
f.close()
--------------------------------------------------------------------------

    Molecular point group: c1

    Geometry (in Angstrom), charge = 0, multiplicity = 1:

       Center              X                  Y                   Z               Mass
    ------------   -----------------  -----------------  -----------------  -----------------
           H          2.605062174172     1.965483843258     0.166120449733     1.007825032070
           O          3.354462174172     1.618279843258    -0.295312550267    15.994914619560
           C          3.582967174172     0.290672843258     0.103810449733    12.000000000000
           C          2.515101174172    -0.678267156742    -0.391713550267    12.000000000000
           H          4.544397174172     0.019382843258    -0.312997550267     1.007825032070
           H          3.671599174172     0.228539843258     1.187814449733     1.007825032070
           C          1.119780174172    -0.411197156742     0.178042449733    12.000000000000
           H          2.481716174172    -0.629077156742    -1.476993550267     1.007825032070
           H          2.825660174172    -1.688245156742    -0.129293550267     1.007825032070
           C          0.082139174172    -1.432828156742    -0.295655550267    12.000000000000
           H          0.802404174172     0.587669843258    -0.108141550267     1.007825032070
           H          1.164420174172    -0.426203156742     1.267134449733     1.007825032070
           C         -1.314444825828    -1.261784156742     0.313145449733    12.000000000000
           H          0.009054174172    -1.391957156742    -1.380936550267     1.007825032070
           H          0.443183174172    -2.430297156742    -0.053987550267     1.007825032070
           C         -2.044311825828     0.019793843258    -0.098350550267    12.000000000000
           H         -1.921747825828    -2.115776156742     0.020406449733     1.007825032070
           H         -1.240630825828    -1.302151156742     1.398852449733     1.007825032070
           C         -3.471497825828     0.094765843258     0.448419449733    12.000000000000
           H         -2.073258825828     0.083254843258    -1.185201550267     1.007825032070
           H         -1.491338825828     0.891528843258     0.243119449733     1.007825032070
           C         -4.200099825828     1.376023843258     0.044463449733    12.000000000000
           H         -4.036493825828    -0.766722156742     0.098983449733     1.007825032070
           H         -3.445300825828     0.021736843258     1.533715449733     1.007825032070
           H         -4.271639825828     1.462289843258    -1.036121550267     1.007825032070
           H         -5.208804825828     1.398449843258     0.445270449733     1.007825032070
           H         -3.679193825828     2.256054843258     0.411294449733     1.007825032070

  Charge       = 0
  Multiplicity = 1
  Basis Set: 6-31G*
  Basis Set:

    Orbital Energies (a.u.)
    -----------------------

    Doubly Occupied:

       1A    -20.552161     2A    -11.266993     3A    -11.220426
       4A    -11.217713     5A    -11.216336     6A    -11.216010
       7A    -11.215619     8A    -11.214631     9A    -11.209585
      10A     -1.358950    11A     -1.095603    12A     -1.061869
      13A     -1.011774    14A     -0.948755    15A     -0.888442
      16A     -0.820350    17A     -0.801993    18A     -0.778596
      19A     -0.692665    20A     -0.652394    21A     -0.638977
      22A     -0.614412    23A     -0.601053    24A     -0.583214
      25A     -0.580254    26A     -0.553178    27A     -0.541358
      28A     -0.531754    29A     -0.505230    30A     -0.494426
      31A     -0.485826    32A     -0.474702    33A     -0.469158
      34A     -0.461515    35A     -0.452115    36A     -0.441699
      37A     -0.423437

  @DF-RHF Final Energy:  -388.28174340279151

   => Energetics <=

    Nuclear Repulsion Energy =            459.7786625545102765
    One-Electron Energy =               -1437.5344613834038228
    Two-Electron Energy =                 589.4740554261014722
    DFT Exchange-Correlation Energy =       0.0000000000000000
    Empirical Dispersion Energy =           0.0000000000000000
    PCM Polarization Energy =               0.0000000000000000
    EFP Energy =                            0.0000000000000000
    Total Energy =                       -388.2817434027921308

  Mulliken Charges: (a.u.)
   Center  Symbol    Alpha    Beta     Spin     Total
       1     H     0.27978  0.27978  0.00000  0.44044
       2     O     4.37124  4.37124  0.00000 -0.74248
       3     C     2.99666  2.99666  0.00000  0.00668
       4     C     3.16172  3.16172  0.00000 -0.32343
       5     H     0.41439  0.41439  0.00000  0.17122
       6     H     0.43204  0.43204  0.00000  0.13592
       7     C     3.16345  3.16345  0.00000 -0.32690
       8     H     0.41492  0.41492  0.00000  0.17017
       9     H     0.42407  0.42407  0.00000  0.15186
      10     C     3.15204  3.15204  0.00000 -0.30409
      11     H     0.42361  0.42361  0.00000  0.15278
      12     H     0.42500  0.42500  0.00000  0.14999
      13     C     3.15358  3.15358  0.00000 -0.30716
      14     H     0.42157  0.42157  0.00000  0.15686
      15     H     0.42135  0.42135  0.00000  0.15729
      16     C     3.15235  3.15235  0.00000 -0.30471
      17     H     0.42115  0.42115  0.00000  0.15771
      18     H     0.42421  0.42421  0.00000  0.15159
      19     C     3.15125  3.15125  0.00000 -0.30249
      20     H     0.42356  0.42356  0.00000  0.15288
      21     H     0.42397  0.42397  0.00000  0.15207
      22     C     3.23918  3.23918  0.00000 -0.47836
      23     H     0.42280  0.42280  0.00000  0.15440
      24     H     0.42326  0.42326  0.00000  0.15347
      25     H     0.42142  0.42142  0.00000  0.15716
      26     H     0.41916  0.41916  0.00000  0.16168
      27     H     0.42227  0.42227  0.00000  0.15546

   Total alpha = 37.00000, Total beta = 37.00000, Total charge =  0.00000
