  ==> Input File <==

--------------------------------------------------------------------------
set {
	reference rhf
	basis 6-31G*
}

set_num_threads( 4 )
memory 2 gb

molecule MOL {
0 1

H	 1.378956	 -1.156293	 1.403829
C	 0.478886	 -1.272468	 0.815882
O	 0.000000	 0.000000	 0.521119
H	 0.718821	 -1.827871	 -0.089462
H	 -0.245304	 -1.847898	 1.390443
C	 -1.165642	 0.000000	 -0.238270
H	 -1.228672	 0.883184	 -0.872070
H	 -2.003012	 0.000000	 0.445920
H	 -1.228672	 -0.883184	 -0.872070

	symmetry c1
}
set optking {
	frozen_dihedral = ("
		2 3 6 7
	")
}

ee = optimize('scf')
oeprop('DIPOLE', 'QUADRUPOLE', 'MULLIKEN_CHARGES')
f=open( 'psi4out.xyz', 'w' )
f.write( "9  " )
f.write( str(ee) + "\n" )
f.write( MOL.save_string_xyz() )
f.close()
--------------------------------------------------------------------------

    Molecular point group: c1
  Charge       = 0
  Multiplicity = 1
  Basis Set: 6-31G*
  Basis Set:
  @DF-RHF Final Energy:  -154.06155523047411
    Total Energy =                       -154.0615552304740845
    Molecular point group: c1
  Basis Set: 6-31G*
  Basis Set:
  Basis Set: 6-31G*
  Basis Set:
  @DF-RHF Final Energy:  -154.06240789254670
    Total Energy =                       -154.0624078925467870
  Basis Set: 6-31G*
  Basis Set:
  Basis Set: 6-31G*
  Basis Set:
  @DF-RHF Final Energy:  -154.06260220065559
    Total Energy =                       -154.0626022006555900
  Basis Set: 6-31G*
  Basis Set:
  Charge       = 0
  Multiplicity = 1
  Basis Set: 6-31G*
  Basis Set:

    Orbital Energies (a.u.)
    -----------------------

    Doubly Occupied:

       1A    -20.554295     2A    -11.265469     3A    -11.264904
       4A     -1.376735     5A     -0.974908     6A     -0.872952
       7A     -0.659757     8A     -0.653017     9A     -0.643965
      10A     -0.556783    11A     -0.527449    12A     -0.473429
      13A     -0.414965

  @DF-RHF Final Energy:  -154.06260277049461

   => Energetics <=

    Nuclear Repulsion Energy =             84.6223679200157335
    One-Electron Energy =                -376.8926883475176624
    Two-Electron Energy =                 138.2077176570073789
    DFT Exchange-Correlation Energy =       0.0000000000000000
    Empirical Dispersion Energy =           0.0000000000000000
    PCM Polarization Energy =               0.0000000000000000
    EFP Energy =                            0.0000000000000000
    Total Energy =                       -154.0626027704945500
    Molecular point group: c1
  Basis Set: 6-31G*
  Basis Set:

  -Total Gradient:
     Atom            X                  Y                   Z
    ------   -----------------  -----------------  -----------------
       1       -0.000015191702     0.000038286349     0.000001898232
       2        0.001348073958    -0.000068352084    -0.002283410673
       3       -0.001631113573    -0.000290043017     0.002570177653
       4        0.000004401382    -0.000019811472     0.000001764304
       5       -0.000007185663     0.000047672839    -0.000005456429
       6       -0.001267667229     0.001890107097     0.001992288452
       7        0.001524519944    -0.001593668417    -0.002297450664
       8        0.000016352062     0.000010321751     0.000018286266
       9        0.000027810822    -0.000014513046     0.000001902858

  **** Optimization is complete! (in 4 steps) ****
    Final optimized geometry and variables:
    Molecular point group: c1

    Geometry (in Angstrom), charge = 0, multiplicity = 1:

    H            1.636548557792    -0.702579857674     1.023903215543
    C            0.724560952378    -0.834172840687     0.457865329536
    O            0.237365856534     0.432424339391     0.149421021328
    H            0.947577790859    -1.403893187270    -0.442134913456
    H            0.018585887660    -1.403603042737     1.060391774205
    C           -0.943104151921     0.439601533160    -0.592568098460
    H           -0.949428959463     1.331437456341    -1.205623725912
    H           -1.817165394317     0.433115347865     0.053852188916
    H           -1.001129840935    -0.419271823044    -1.257925787140

  Mulliken Charges: (a.u.)
   Center  Symbol    Alpha    Beta     Spin     Total
       1     H     0.41233  0.41233  0.00000  0.17535
       2     C     3.07954  3.07954  0.00000 -0.15908
       3     O     4.29772  4.29772  0.00000 -0.59544
       4     H     0.42963  0.42963  0.00000  0.14074
       5     H     0.43055  0.43055  0.00000  0.13891
       6     C     3.07851  3.07851  0.00000 -0.15702
       7     H     0.41422  0.41422  0.00000  0.17156
       8     H     0.42585  0.42585  0.00000  0.14830
       9     H     0.43165  0.43165  0.00000  0.13669

   Total alpha = 13.00000, Total beta = 13.00000, Total charge = -0.00000
