  ==> Input File <==

--------------------------------------------------------------------------
set {
	reference rhf
	basis 6-31G*
}

set_num_threads( 4 )
memory 2 gb

molecule MOL {
0 1

H	 3.893188	 0.355400	 -0.101367
N	 3.092854	 -0.246221	 -0.068770
C	 1.865559	 0.531981	 0.018834
H	 3.199514	 -0.826043	 0.741946
C	 0.645745	 -0.382037	 -0.029944
H	 1.841966	 1.207024	 -0.831236
H	 1.815756	 1.155410	 0.915079
C	 -0.679275	 0.379305	 0.025956
H	 0.698998	 -0.976915	 -0.937203
H	 0.693479	 -1.083846	 0.802235
C	 -0.521049	 1.882481	 -0.210267
H	 -1.147583	 0.217690	 0.995707
H	 -1.365439	 -0.028381	 -0.714866
C	 -1.847035	 2.639829	 -0.149473
H	 0.163061	 2.292230	 0.529539
H	 -0.055677	 2.047175	 -1.179783
H	 -2.321287	 2.522666	 0.820926
H	 -1.701947	 3.702107	 -0.320115
H	 -2.541509	 2.275952	 -0.901597

	symmetry c1
}
set optking {
	frozen_dihedral = ("
		12 8 5 9
	")
}

ee = optimize('scf')
oeprop('DIPOLE', 'QUADRUPOLE', 'MULLIKEN_CHARGES')
f=open( 'psi4out.xyz', 'w' )
f.write( "19  " )
f.write( str(ee) + "\n" )
f.write( MOL.save_string_xyz() )
f.close()
--------------------------------------------------------------------------

    Molecular point group: c1
  Charge       = 0
  Multiplicity = 1
  Basis Set: 6-31G*
  Basis Set:
  @DF-RHF Final Energy:  -251.33872084761811
    Total Energy =                       -251.3387208476180490
    Molecular point group: c1
  Basis Set: 6-31G*
  Basis Set:
  Basis Set: 6-31G*
  Basis Set:
  @DF-RHF Final Energy:  -251.33942680119875
    Total Energy =                       -251.3394268011985559
  Basis Set: 6-31G*
  Basis Set:
  Basis Set: 6-31G*
  Basis Set:
  @DF-RHF Final Energy:  -251.34277047667527
    Total Energy =                       -251.3427704766754118
  Basis Set: 6-31G*
  Basis Set:
  Basis Set: 6-31G*
  Basis Set:
  @DF-RHF Final Energy:  -251.34327603966713
    Total Energy =                       -251.3432760396670460
  Basis Set: 6-31G*
  Basis Set:
  Basis Set: 6-31G*
  Basis Set:
  @DF-RHF Final Energy:  -251.34333557441084
    Total Energy =                       -251.3433355744108439
  Basis Set: 6-31G*
  Basis Set:
  Basis Set: 6-31G*
  Basis Set:
  @DF-RHF Final Energy:  -251.34335089330557
    Total Energy =                       -251.3433508933056828
  Basis Set: 6-31G*
  Basis Set:
  Basis Set: 6-31G*
  Basis Set:
  @DF-RHF Final Energy:  -251.34335813678180
    Total Energy =                       -251.3433581367816601
  Basis Set: 6-31G*
  Basis Set:
  Charge       = 0
  Multiplicity = 1
  Basis Set: 6-31G*
  Basis Set:

    Orbital Energies (a.u.)
    -----------------------

    Doubly Occupied:

       1A    -15.532330     2A    -11.239598     3A    -11.215051
       4A    -11.213161     5A    -11.209869     6A    -11.208180
       7A     -1.176561     8A     -1.070035     9A     -0.994759
      10A     -0.899789    11A     -0.836080    12A     -0.768407
      13A     -0.663345    14A     -0.639725    15A     -0.614975
      16A     -0.588268    17A     -0.572187    18A     -0.549678
      19A     -0.523950    20A     -0.502771    21A     -0.491037
      22A     -0.458884    23A     -0.453168    24A     -0.446386
      25A     -0.380485

  @DF-RHF Final Energy:  -251.34335783596191

   => Energetics <=

    Nuclear Repulsion Energy =            249.2781420788192008
    One-Electron Energy =                -832.7456417492355740
    Two-Electron Energy =                 332.1241418344542922
    DFT Exchange-Correlation Energy =       0.0000000000000000
    Empirical Dispersion Energy =           0.0000000000000000
    PCM Polarization Energy =               0.0000000000000000
    EFP Energy =                            0.0000000000000000
    Total Energy =                       -251.3433578359620810
    Molecular point group: c1
  Basis Set: 6-31G*
  Basis Set:

  -Total Gradient:
     Atom            X                  Y                   Z
    ------   -----------------  -----------------  -----------------
       1       -0.000002219549     0.000000354053     0.000012750582
       2       -0.000004617609    -0.000009021257     0.000048518016
       3        0.000024973912    -0.000001322796    -0.000149660556
       4        0.000013739721    -0.000010754704     0.000000577299
       5        0.002163643641     0.004131053820    -0.003642896472
       6        0.000020610367    -0.000016330375     0.000012786069
       7       -0.000021713617    -0.000004137341     0.000004379728
       8        0.002656237928     0.004194084265     0.003037498405
       9       -0.002172945443    -0.004111057798     0.002561361429
      10       -0.000014226110    -0.000004516737    -0.000004910613
      11       -0.000020607356     0.000016153138     0.000045073660
      12       -0.002626844190    -0.004180211704    -0.001935859734
      13        0.000001448111     0.000005097747     0.000016857566
      14       -0.000005383676    -0.000012508066    -0.000021966481
      15       -0.000010693340     0.000001385905     0.000013002143
      16        0.000001811506    -0.000001366666     0.000007457524
      17        0.000007195809     0.000005571797    -0.000001003883
      18       -0.000001871779     0.000001722148    -0.000012525664
      19       -0.000008538326    -0.000004195430     0.000008560981

  **** Optimization is complete! (in 8 steps) ****
    Final optimized geometry and variables:
    Molecular point group: c1

    Geometry (in Angstrom), charge = 0, multiplicity = 1:

    H            3.522962706779    -0.676035230232     0.012710796887
    N            2.667698567750    -1.197446886893    -0.002103017166
    C            1.520244028798    -0.307904332194     0.111809969877
    H            2.700838696535    -1.830699019598     0.774286049033
    C            0.230862944060    -1.117105415292     0.003431501076
    H            1.583143398277     0.409383186335    -0.698597887575
    H            1.517841863095     0.265614226678     1.041247523096
    C           -1.102713996112    -0.336225364801     0.112367264135
    H            0.254574895702    -1.696914655736    -0.913182338464
    H            0.246423954558    -1.864331863149     0.795664140054
    C           -1.062309974004     1.166029589187    -0.182219069423
    H           -1.546813173851    -0.507566673162     1.090055489021
    H           -1.807043407809    -0.788592106060    -0.582489927255
    C           -2.447924927522     1.805906948927    -0.096243130458
    H           -0.396209506188     1.669974084844     0.512411880008
    H           -0.654305159147     1.332885702521    -1.176255038813
    H           -2.874142553519     1.685593336918     0.895835475700
    H           -2.403716876565     2.869365275985    -0.310347905932
    H           -3.134031630351     1.353455744459    -0.806614705389

  Mulliken Charges: (a.u.)
   Center  Symbol    Alpha    Beta     Spin     Total
       1     H     0.33239  0.33239  0.00000  0.33523
       2     N     3.92239  3.92239  0.00000 -0.84477
       3     C     3.06320  3.06320  0.00000 -0.12641
       4     H     0.33544  0.33544  0.00000  0.32912
       5     C     3.15533  3.15533  0.00000 -0.31065
       6     H     0.41880  0.41880  0.00000  0.16239
       7     H     0.43386  0.43386  0.00000  0.13227
       8     C     3.15714  3.15714  0.00000 -0.31429
       9     H     0.41088  0.41088  0.00000  0.17825
      10     H     0.42638  0.42638  0.00000  0.14723
      11     C     3.15593  3.15593  0.00000 -0.31186
      12     H     0.42239  0.42239  0.00000  0.15522
      13     H     0.42075  0.42075  0.00000  0.15850
      14     C     3.23917  3.23917  0.00000 -0.47834
      15     H     0.42191  0.42191  0.00000  0.15619
      16     H     0.42134  0.42134  0.00000  0.15732
      17     H     0.42190  0.42190  0.00000  0.15620
      18     H     0.41941  0.41941  0.00000  0.16119
      19     H     0.42140  0.42140  0.00000  0.15720

   Total alpha = 25.00000, Total beta = 25.00000, Total charge =  0.00000
