  ==> Input File <==

--------------------------------------------------------------------------
set {
	reference rhf
	basis 6-31G*
}

set_num_threads( 4 )
memory 2 gb

molecule MOL {
0 1

H	 -2.798360	 -0.862255	 -0.071053
N	 -1.863561	 -0.715187	 0.256814
C	 -1.344686	 0.554728	 -0.219830
H	 -1.300452	 -1.461917	 -0.101532
C	 0.081427	 0.741154	 0.254071
H	 -1.362155	 0.656231	 -1.305829
H	 -1.952773	 1.354456	 0.191809
O	 0.160499	 1.958651	 0.938569
H	 0.369557	 -0.077948	 0.912623
H	 0.753484	 0.744850	 -0.601242
C	 1.443196	 2.299079	 1.358532
H	 1.379154	 3.249147	 1.871335
H	 1.847755	 1.556487	 2.044003
H	 2.124262	 2.398087	 0.515825

	symmetry c1
}
set optking {
	frozen_dihedral = ("
		8 5 3 6
	")
}

ee = optimize('scf')
oeprop('DIPOLE', 'QUADRUPOLE', 'MULLIKEN_CHARGES')
f=open( 'psi4out.xyz', 'w' )
f.write( "14  " )
f.write( str(ee) + "\n" )
f.write( MOL.save_string_xyz() )
f.close()
--------------------------------------------------------------------------

    Molecular point group: c1
  Charge       = 0
  Multiplicity = 1
  Basis Set: 6-31G*
  Basis Set:
  @DF-RHF Final Energy:  -248.11543087336275
    Total Energy =                       -248.1154308733630387
    Molecular point group: c1
  Basis Set: 6-31G*
  Basis Set:
  Basis Set: 6-31G*
  Basis Set:
  @DF-RHF Final Energy:  -248.11618129546403
    Total Energy =                       -248.1161812954640595
  Basis Set: 6-31G*
  Basis Set:
  Basis Set: 6-31G*
  Basis Set:
  @DF-RHF Final Energy:  -248.11642211633080
    Total Energy =                       -248.1164221163307957
  Basis Set: 6-31G*
  Basis Set:
  Basis Set: 6-31G*
  Basis Set:
  @DF-RHF Final Energy:  -248.11644170174009
    Total Energy =                       -248.1164417017399728
  Basis Set: 6-31G*
  Basis Set:
  Charge       = 0
  Multiplicity = 1
  Basis Set: 6-31G*
  Basis Set:

    Orbital Energies (a.u.)
    -----------------------

    Doubly Occupied:

       1A    -20.552802     2A    -15.536828     3A    -11.264053
       4A    -11.262527     5A    -11.241238     6A     -1.377167
       7A     -1.178137     8A     -0.995889     9A     -0.899122
      10A     -0.823715    11A     -0.674217    12A     -0.673507
      13A     -0.642819    14A     -0.618776    15A     -0.607744
      16A     -0.535029    17A     -0.524782    18A     -0.500058
      19A     -0.467437    20A     -0.411875    21A     -0.385755

  @DF-RHF Final Energy:  -248.11644315509861

   => Energetics <=

    Nuclear Repulsion Energy =            190.8942716960806081
    One-Electron Energy =                -715.6744811978467169
    Two-Electron Energy =                 276.6637663466674439
    DFT Exchange-Correlation Energy =       0.0000000000000000
    Empirical Dispersion Energy =           0.0000000000000000
    PCM Polarization Energy =               0.0000000000000000
    EFP Energy =                            0.0000000000000000
    Total Energy =                       -248.1164431550986365
    Molecular point group: c1
  Basis Set: 6-31G*
  Basis Set:

  -Total Gradient:
     Atom            X                  Y                   Z
    ------   -----------------  -----------------  -----------------
       1       -0.000052410339    -0.000022810229    -0.000016756293
       2        0.000006300304    -0.000074927689     0.000060218808
       3       -0.000604027379     0.002557463093     0.000619990801
       4        0.000009233389    -0.000054600282    -0.000023735351
       5        0.000585074480     0.000576056664    -0.001919219254
       6        0.000436902892    -0.002142816149    -0.000137521857
       7        0.000009354773     0.000024188521    -0.000003001663
       8       -0.000349216453    -0.000799413821     0.001446075989
       9       -0.000014088611     0.000008940709     0.000008386198
      10       -0.000013958422    -0.000021585234    -0.000026834563
      11        0.000014345180    -0.000066113745     0.000017051799
      12       -0.000036357447    -0.000007156916    -0.000022708279
      13        0.000014002270     0.000010020089     0.000011868192
      14       -0.000005154637     0.000012754989    -0.000013814530

  **** Optimization is complete! (in 5 steps) ****
    Final optimized geometry and variables:
    Molecular point group: c1

    Geometry (in Angstrom), charge = 0, multiplicity = 1:

    H           -2.534936180049    -1.793925440037    -0.442122797486
    N           -1.555204134713    -1.709822439573    -0.250735081913
    C           -1.050988983882    -0.430570239065    -0.738072747662
    H           -1.106464858342    -2.471923975393    -0.723149755200
    C            0.391049628375    -0.195132305863    -0.276677837870
    H           -1.109930927360    -0.349927966453    -1.823785483748
    H           -1.660939747229     0.355855409491    -0.315236402745
    O            0.461029714049     1.030011681911     0.392779367259
    H            0.687179853090    -0.999539565720     0.392766389015
    H            1.080591113317    -0.192458908207    -1.120587460109
    C            1.729476332103     1.343316577601     0.869678296668
    H            1.663946400578     2.300648261936     1.368460698796
    H            2.083259491524     0.599089984756     1.580900145457
    H            2.454176166741     1.417513870664     0.060213017581

  Mulliken Charges: (a.u.)
   Center  Symbol    Alpha    Beta     Spin     Total
       1     H     0.33111  0.33111  0.00000  0.33777
       2     N     3.92250  3.92250  0.00000 -0.84500
       3     C     3.08041  3.08041  0.00000 -0.16083
       4     H     0.33582  0.33582  0.00000  0.32836
       5     C     2.98769  2.98769  0.00000  0.02463
       6     H     0.42990  0.42990  0.00000  0.14020
       7     H     0.40035  0.40035  0.00000  0.19931
       8     O     4.30603  4.30603  0.00000 -0.61206
       9     H     0.42012  0.42012  0.00000  0.15976
      10     H     0.43364  0.43364  0.00000  0.13273
      11     C     3.07991  3.07991  0.00000 -0.15982
      12     H     0.41223  0.41223  0.00000  0.17554
      13     H     0.42893  0.42893  0.00000  0.14215
      14     H     0.43137  0.43137  0.00000  0.13727

   Total alpha = 21.00000, Total beta = 21.00000, Total charge =  0.00000
