                              Psi4 1.0.54 Driver

  ==> Input File <==

--------------------------------------------------------------------------
set {
	reference rhf
	basis cc-pvtz
}

set_num_threads( 4 )
memory 2 gb

molecule MOL {
0 1

H	 2.804814	 -2.628215	 -2.101615
C	 2.684858	 -2.057529	 -1.188359
C	 1.423374	 -1.202601	 -1.237440
H	 2.649509	 -2.760545	 -0.362794
H	 3.572053	 -1.445862	 -1.062803
C	 1.215950	 -0.382441	 0.027187
H	 0.552881	 -1.830808	 -1.390286
H	 1.475477	 -0.533146	 -2.092829
N	 0.000002	 0.398953	 -0.040851
H	 1.138897	 -1.051125	 0.879299
H	 2.097730	 0.240832	 0.203477
C	 -1.215959	 -0.382435	 0.027143
H	 -0.000012	 1.086078	 0.683841
C	 -2.451944	 0.502410	 -0.038737
H	 -1.221867	 -1.069392	 -0.813828
H	 -1.259993	 -0.999709	 0.929424
C	 -3.752217	 -0.292550	 0.005776
H	 -2.407325	 1.093801	 -0.946480
H	 -2.431979	 1.206234	 0.790023
H	 -3.817783	 -0.982946	 -0.828547
H	 -4.612613	 0.364348	 -0.042306
H	 -3.830160	 -0.871666	 0.919868

	symmetry c1
}
set optking {
	frozen_dihedral = ("
		10 6 9 12
	")
}

ee,wfn = optimize('scf', return_wfn=True)
oeprop( wfn, 'DIPOLE', 'QUADRUPOLE', 'MULLIKEN_CHARGES')
f=open( 'psi4out.xyz', 'w' )
f.write( "22  " )
f.write( str(ee) + "\n" )
f.write( MOL.save_string_xyz() )
f.close()
--------------------------------------------------------------------------

    Molecular point group: c1
  Charge       = 0
  Multiplicity = 1
  Basis Set: CC-PVTZ
  Basis Set:
  @DF-RHF Final Energy:  -290.48545030851903
    Total Energy =                       -290.4854503085187503
    Molecular point group: c1
  Basis Set: CC-PVTZ
  Basis Set:
  Basis Set: CC-PVTZ
  Basis Set:
  @DF-RHF Final Energy:  -290.48735733953561
    Total Energy =                       -290.4873573395356061
  Basis Set: CC-PVTZ
  Basis Set:
  Basis Set: CC-PVTZ
  Basis Set:
  @DF-RHF Final Energy:  -290.48796045850690
    Total Energy =                       -290.4879604585072457
  Basis Set: CC-PVTZ
  Basis Set:
  Basis Set: CC-PVTZ
  Basis Set:
  @DF-RHF Final Energy:  -290.48798889037636
    Total Energy =                       -290.4879888903761866
  Basis Set: CC-PVTZ
  Basis Set:
  Basis Set: CC-PVTZ
  Basis Set:
  @DF-RHF Final Energy:  -290.48799108954012
    Total Energy =                       -290.4879910895401167
  Basis Set: CC-PVTZ
  Basis Set:
  Charge       = 0
  Multiplicity = 1
  Basis Set: CC-PVTZ
  Basis Set:

    Orbital Energies (a.u.)
    -----------------------

    Doubly Occupied:

       1A    -15.528135     2A    -11.236897     3A    -11.235642
       4A    -11.212534     5A    -11.208389     6A    -11.207947
       7A    -11.206082     8A     -1.205614     9A     -1.058149
      10A     -1.027851    11A     -0.929374    12A     -0.873695
      13A     -0.810052    14A     -0.786733    15A     -0.660060
      16A     -0.643505    17A     -0.619675    18A     -0.607096
      19A     -0.576418    20A     -0.553768    21A     -0.550941
      22A     -0.524381    23A     -0.502457    24A     -0.488713
      25A     -0.480886    26A     -0.472156    27A     -0.461074
      28A     -0.457255    29A     -0.360552

  @DF-RHF Final Energy:  -290.48799137039305

   => Energetics <=

    Nuclear Repulsion Energy =            317.4038781504402778
    One-Electron Energy =               -1020.8116761870155642
    Two-Electron Energy =                 412.9198066661820121
    DFT Exchange-Correlation Energy =       0.0000000000000000
    Empirical Dispersion Energy =           0.0000000000000000
    PCM Polarization Energy =               0.0000000000000000
    EFP Energy =                            0.0000000000000000
    Total Energy =                       -290.4879913703932743
    Molecular point group: c1
  Basis Set: CC-PVTZ
  Basis Set:

  -Total Gradient:
     Atom            X                  Y                   Z
    ------   -----------------  -----------------  -----------------
       1       -0.000010732241     0.000007607218     0.000005985297
       2       -0.000002046125    -0.000002270340     0.000010524429
       3       -0.000015313221     0.000011024087    -0.000021453736
       4        0.000001351225    -0.000007279174     0.000007061162
       5        0.000003644421     0.000003557131    -0.000004071238
       6       -0.000455805191    -0.000752684425    -0.000923522379
       7       -0.000001722149    -0.000003341249    -0.000001104151
       8       -0.000001650964     0.000003531197    -0.000005866457
       9        0.000117638636     0.000219470118     0.001070118800
      10        0.000352479906     0.000587625735     0.000506754931
      11       -0.000002943328    -0.000000636485     0.000002545440
      12        0.000009254092    -0.000044633500    -0.000650280839
      13        0.000007823358    -0.000018628649     0.000000559718
      14       -0.000010720062    -0.000007943428    -0.000006426056
      15        0.000015243459     0.000001176968     0.000005462917
      16       -0.000007651748    -0.000007556415     0.000004130191
      17        0.000004848288     0.000007557267    -0.000001577011
      18       -0.000002094348     0.000005695259     0.000000554031
      19        0.000002013711     0.000002634464     0.000001630520
      20       -0.000001472864    -0.000003210330    -0.000002050973
      21       -0.000002022288    -0.000000218037    -0.000002026105
      22       -0.000000122567    -0.000001477413     0.000003051509

  **** Optimization is complete! (in 6 steps) ****
    Final optimized geometry and variables:
    Molecular point group: c1

    Geometry (in Angstrom), charge = 0, multiplicity = 1:

    H            3.284817903536    -1.996433821361    -1.838800342298
    C            3.102761630961    -1.467096162338    -0.910987858164
    C            1.770800431661    -0.725284473430    -0.954768891738
    H            3.122295616962    -2.195873259016    -0.107267011307
    H            3.929482511610    -0.781921532608    -0.754633914337
    C            1.486185145601     0.027952813559     0.339236109182
    H            0.976358440823    -1.435906448278    -1.154986472425
    H            1.766549843645    -0.014227991696    -1.773847605110
    N            0.275613267645     0.825085483617     0.284880052294
    H            1.472716258548    -0.679480264889     1.173704917946
    H            2.311381133741     0.706977568239     0.526663326852
    C           -0.968574551836     0.086347462465     0.349400249708
    H            0.294655210740     1.502561405938     1.016166477929
    C           -2.163791622230     1.026774006339     0.403600378987
    H           -1.053065552069    -0.537157242451    -0.532853978730
    H           -0.999466132847    -0.588204644987     1.210702260909
    C           -3.496857821900     0.288130843725     0.445152938001
    H           -2.128663216994     1.682826811101    -0.459155729626
    H           -2.078183515925     1.663941592802     1.280780663268
    H           -3.628103016677    -0.332724953069    -0.434772315922
    H           -4.326756435842     0.983777211963     0.483812147481
    H           -3.564872382626    -0.355181093012     1.316074840100

  Mulliken Charges: (a.u.)
   Center  Symbol    Alpha    Beta     Spin     Total
       1     H     0.44779  0.44779  0.00000  0.10442
       2     C     3.15300  3.15300  0.00000 -0.30600
       3     C     3.07941  3.07941  0.00000 -0.15881
       4     H     0.45581  0.45581  0.00000  0.08837
       5     H     0.45483  0.45483  0.00000  0.09034
       6     C     3.03673  3.03673  0.00000 -0.07345
       7     H     0.45610  0.45610  0.00000  0.08779
       8     H     0.45045  0.45045  0.00000  0.09911
       9     N     3.64020  3.64020  0.00000 -0.28040
      10     H     0.47111  0.47111  0.00000  0.05778
      11     H     0.45422  0.45422  0.00000  0.09156
      12     C     3.02202  3.02202  0.00000 -0.04404
      13     H     0.44359  0.44359  0.00000  0.11281
      14     C     3.08261  3.08261  0.00000 -0.16523
      15     H     0.45796  0.45796  0.00000  0.08409
      16     H     0.47477  0.47477  0.00000  0.05046
      17     C     3.15318  3.15318  0.00000 -0.30637
      18     H     0.44861  0.44861  0.00000  0.10278
      19     H     0.45924  0.45924  0.00000  0.08152
      20     H     0.45472  0.45472  0.00000  0.09056
      21     H     0.44766  0.44766  0.00000  0.10468
      22     H     0.45599  0.45599  0.00000  0.08802

   Total alpha = 29.00000, Total beta = 29.00000, Total charge =  0.00000

*** Psi4 exiting successfully. Buy a developer a beer!
