  ==> Input File <==

--------------------------------------------------------------------------
set {
	reference rhf
	basis 6-31G*
}

set_num_threads( 1 )
memory 2 gb

molecule MOL {
0 1

O	 1.846825	 1.296220	 0.000415
C	 1.705091	 0.115954	 0.001797
C	 0.381791	 -0.609817	 0.001258
O	 2.721346	 -0.737485	 -0.000216
C	 -0.823008	 0.326187	 0.001381
H	 0.371250	 -1.265087	 -0.865474
H	 0.370908	 -1.265746	 0.867490
C	 -2.006778	 -0.251587	 0.778508
H	 -1.118094	 0.529318	 -1.023241
H	 -0.533348	 1.281896	 0.426853
C	 -3.224521	 0.674085	 0.788149
H	 -2.290160	 -1.211511	 0.349279
H	 -1.703854	 -0.455335	 1.804474
C	 -4.406566	 0.096789	 1.565807
H	 -3.529966	 0.876539	 -0.235988
H	 -2.943259	 1.633113	 1.217444
H	 -4.733778	 -0.847057	 1.138840
H	 -5.253549	 0.775718	 1.554564
H	 -4.142231	 -0.084910	 2.603797
C	 4.024888	 -0.184556	 -0.001949
H	 4.179030	 0.422472	 -0.882452
H	 4.701782	 -1.024608	 -0.003642
H	 4.181981	 0.421185	 0.878906

	symmetry c1
}
set optking {
	frozen_dihedral = ("
		15 11 8 12,
		9 5 8 12,
		1 2 3 6,
		1 2 4 20
	")
}

ee = energy('scf')
oeprop('DIPOLE', 'QUADRUPOLE', 'MULLIKEN_CHARGES')
f=open( 'psi4out.xyz', 'w' )
f.write( "23  " )
f.write( str(ee) + "\n" )
f.write( MOL.save_string_xyz() )
f.close()
--------------------------------------------------------------------------

    Molecular point group: c1

    Geometry (in Angstrom), charge = 0, multiplicity = 1:

       Center              X                  Y                   Z               Mass
    ------------   -----------------  -----------------  -----------------  -----------------
           O          1.782738514693     1.213776171389    -0.349430800568    15.994914619560
           C          1.641004514693     0.033510171389    -0.348048800568    12.000000000000
           C          0.317704514693    -0.692260828611    -0.348587800568    12.000000000000
           O          2.657259514693    -0.819928828611    -0.350061800568    15.994914619560
           C         -0.887094485307     0.243743171389    -0.348464800568    12.000000000000
           H          0.307163514693    -1.347530828611    -1.215319800568     1.007825032070
           H          0.306821514693    -1.348189828611     0.517644199432     1.007825032070
           C         -2.070864485307    -0.334030828611     0.428662199432    12.000000000000
           H         -1.182180485307     0.446874171389    -1.373086800568     1.007825032070
           H         -0.597434485307     1.199452171389     0.077007199432     1.007825032070
           C         -3.288607485307     0.591641171389     0.438303199432    12.000000000000
           H         -2.354246485307    -1.293954828611    -0.000566800568     1.007825032070
           H         -1.767940485307    -0.537778828611     1.454628199432     1.007825032070
           C         -4.470652485307     0.014345171389     1.215961199432    12.000000000000
           H         -3.594052485307     0.794095171389    -0.585833800568     1.007825032070
           H         -3.007345485307     1.550669171389     0.867598199432     1.007825032070
           H         -4.797864485307    -0.929500828611     0.788994199432     1.007825032070
           H         -5.317635485307     0.693274171389     1.204718199432     1.007825032070
           H         -4.206317485307    -0.167353828611     2.253951199432     1.007825032070
           C          3.960801514693    -0.266999828611    -0.351794800568    12.000000000000
           H          4.114943514693     0.340028171389    -1.232297800568     1.007825032070
           H          4.637695514693    -1.107051828611    -0.353487800568     1.007825032070
           H          4.117894514693     0.338741171389     0.529060199432     1.007825032070

  Charge       = 0
  Multiplicity = 1
  Basis Set: 6-31G*
  Basis Set:

    Orbital Energies (a.u.)
    -----------------------

    Doubly Occupied:

       1A    -20.604032     2A    -20.545979     3A    -11.372688
       4A    -11.281039     5A    -11.234608     6A    -11.217284
       7A    -11.216424     8A    -11.215530     9A    -11.209042
      10A     -1.469752    11A     -1.363413    12A     -1.092480
      13A     -1.043103    14A     -0.986835    15A     -0.931587
      16A     -0.843196    17A     -0.794980    18A     -0.767062
      19A     -0.699868    20A     -0.682433    21A     -0.672249
      22A     -0.648381    23A     -0.610443    24A     -0.599796
      25A     -0.571337    26A     -0.557360    27A     -0.556506
      28A     -0.525573    29A     -0.523124    30A     -0.503687
      31A     -0.484131    32A     -0.469119    33A     -0.463894
      34A     -0.458713    35A     -0.456429    36A     -0.436785

  @DF-RHF Final Energy:  -422.97337012944087

   => Energetics <=

    Nuclear Repulsion Energy =            453.3145832762056102
    One-Electron Energy =               -1474.3583933927191083
    Two-Electron Energy =                 598.0704399870741099
    DFT Exchange-Correlation Energy =       0.0000000000000000
    Empirical Dispersion Energy =           0.0000000000000000
    PCM Polarization Energy =               0.0000000000000000
    EFP Energy =                            0.0000000000000000
    Total Energy =                       -422.9733701294393313

  Mulliken Charges: (a.u.)
   Center  Symbol    Alpha    Beta     Spin     Total
       1     O     4.28503  4.28503  0.00000 -0.57007
       2     C     2.60912  2.60912  0.00000  0.78177
       3     C     3.20953  3.20953  0.00000 -0.41907
       4     O     4.30627  4.30627  0.00000 -0.61255
       5     C     3.15800  3.15800  0.00000 -0.31600
       6     H     0.39854  0.39854  0.00000  0.20293
       7     H     0.39933  0.39933  0.00000  0.20135
       8     C     3.15502  3.15502  0.00000 -0.31004
       9     H     0.41730  0.41730  0.00000  0.16541
      10     H     0.39871  0.39871  0.00000  0.20258
      11     C     3.15204  3.15204  0.00000 -0.30408
      12     H     0.42449  0.42449  0.00000  0.15101
      13     H     0.42307  0.42307  0.00000  0.15385
      14     C     3.23951  3.23951  0.00000 -0.47901
      15     H     0.42228  0.42228  0.00000  0.15544
      16     H     0.42051  0.42051  0.00000  0.15899
      17     H     0.42206  0.42206  0.00000  0.15588
      18     H     0.41867  0.41867  0.00000  0.16265
      19     H     0.42172  0.42172  0.00000  0.15657
      20     C     3.09231  3.09231  0.00000 -0.18462
      21     H     0.40899  0.40899  0.00000  0.18202
      22     H     0.40840  0.40840  0.00000  0.18319
      23     H     0.40911  0.40911  0.00000  0.18179

   Total alpha = 36.00000, Total beta = 36.00000, Total charge = -0.00000
