  ==> Input File <==

--------------------------------------------------------------------------
set {
	reference rhf
	basis 6-31G*
}

set_num_threads( 4 )
memory 2 gb

molecule MOL {
0 1

H	 -3.261111	 -0.295142	 1.469456
C	 -3.306842	 -0.277400	 0.373456
C	 -2.660244	 0.921717	 -0.272021
O	 -3.838538	 -1.161155	 -0.216482
C	 -1.220012	 1.144545	 0.209990
H	 -2.705793	 0.797307	 -1.347733
H	 -3.263782	 1.790044	 -0.010477
C	 -0.252658	 0.041456	 -0.226725
H	 -0.873521	 2.100229	 -0.171974
H	 -1.211708	 1.231594	 1.295398
C	 1.180775	 0.282413	 0.250794
H	 -0.266029	 -0.034465	 -1.312038
H	 -0.597733	 -0.921000	 0.146291
C	 2.148627	 -0.814315	 -0.201312
H	 1.516199	 1.249228	 -0.115937
H	 1.192670	 0.346017	 1.338083
C	 3.580890	 -0.659131	 0.322722
H	 2.166869	 -0.852443	 -1.289387
H	 1.762857	 -1.776509	 0.128956
C	 4.043361	 0.789313	 0.489307
H	 4.254605	 -1.162319	 -0.366377
H	 3.675170	 -1.180407	 1.273145
H	 3.944816	 1.339986	 -0.442528
H	 3.470415	 1.314490	 1.246206
H	 5.086954	 0.828424	 0.786591

	symmetry c1
}
set optking {
	frozen_dihedral = ("
		20 17 14 18
	")
}

ee = optimize('scf')
oeprop('DIPOLE', 'QUADRUPOLE', 'MULLIKEN_CHARGES')
f=open( 'psi4out.xyz', 'w' )
f.write( "25  " )
f.write( str(ee) + "\n" )
f.write( MOL.save_string_xyz() )
f.close()
--------------------------------------------------------------------------

    Molecular point group: c1
  Charge       = 0
  Multiplicity = 1
  Basis Set: 6-31G*
  Basis Set:
  @DF-RHF Final Energy:  -387.11768792034360
    Total Energy =                       -387.1176879203437693
    Molecular point group: c1
  Basis Set: 6-31G*
  Basis Set:
  Basis Set: 6-31G*
  Basis Set:
  @DF-RHF Final Energy:  -387.11801546545490
    Total Energy =                       -387.1180154654546186
  Basis Set: 6-31G*
  Basis Set:
  Basis Set: 6-31G*
  Basis Set:
  @DF-RHF Final Energy:  -387.11517899158815
    Total Energy =                       -387.1151789915884365
  Basis Set: 6-31G*
  Basis Set:
  Basis Set: 6-31G*
  Basis Set:
  @DF-RHF Final Energy:  -387.11837626487647
    Total Energy =                       -387.1183762648761331
  Basis Set: 6-31G*
  Basis Set:
  @DF-RHF Final Energy:  -387.11846747006285
    Total Energy =                       -387.1184674700629103
  @DF-RHF Final Energy:  -387.11842681184584
    Total Energy =                       -387.1184268118454384
  Basis Set: 6-31G*
  Basis Set:
  @DF-RHF Final Energy:  -387.11849131397935
    Total Energy =                       -387.1184913139795754
  Basis Set: 6-31G*
  Basis Set:
  Basis Set: 6-31G*
  Basis Set:
  @DF-RHF Final Energy:  -387.11844813649162
    Total Energy =                       -387.1184481364917929
  Basis Set: 6-31G*
  Basis Set:
  Basis Set: 6-31G*
  Basis Set:
  @DF-RHF Final Energy:  -387.11849282842172
    Total Energy =                       -387.1184928284219495
  Basis Set: 6-31G*
  Basis Set:
  Charge       = 0
  Multiplicity = 1
  Basis Set: 6-31G*
  Basis Set:

    Orbital Energies (a.u.)
    -----------------------

    Doubly Occupied:

       1A    -20.562068     2A    -11.326221     3A    -11.235425
       4A    -11.234740     5A    -11.224056     6A    -11.220382
       7A    -11.218223     8A    -11.216974     9A    -11.210681
      10A     -1.402008    11A     -1.103867    12A     -1.068466
      13A     -1.012785    14A     -0.942281    15A     -0.878218
      16A     -0.822721    17A     -0.788039    18A     -0.776049
      19A     -0.664595    20A     -0.662855    21A     -0.635537
      22A     -0.624061    23A     -0.601602    24A     -0.591626
      25A     -0.575804    26A     -0.551289    27A     -0.535365
      28A     -0.523264    29A     -0.512404    30A     -0.495608
      31A     -0.490848    32A     -0.480765    33A     -0.461117
      34A     -0.454295    35A     -0.443006    36A     -0.409603

  @DF-RHF Final Energy:  -387.11849259514639

   => Energetics <=

    Nuclear Repulsion Energy =            439.9789562870772102
    One-Electron Energy =               -1396.2812009013446186
    Two-Electron Energy =                 569.1837520191220392
    DFT Exchange-Correlation Energy =       0.0000000000000000
    Empirical Dispersion Energy =           0.0000000000000000
    PCM Polarization Energy =               0.0000000000000000
    EFP Energy =                            0.0000000000000000
    Total Energy =                       -387.1184925951454261
    Molecular point group: c1
  Basis Set: 6-31G*
  Basis Set:

  -Total Gradient:
     Atom            X                  Y                   Z
    ------   -----------------  -----------------  -----------------
       1       -0.000003734465    -0.000007082447     0.000004645646
       2        0.000005488449     0.000010709895    -0.000001180099
       3        0.000005496834     0.000009113117    -0.000014348089
       4       -0.000000171975    -0.000006486205     0.000004845636
       5       -0.000000448696    -0.000009031153     0.000009255936
       6        0.000001685410    -0.000002137841    -0.000000485318
       7        0.000004847492     0.000007011949    -0.000000954112
       8       -0.000001946289     0.000006829586    -0.000005568297
       9       -0.000009261673    -0.000000047014    -0.000000787790
      10       -0.000000697644    -0.000002417241     0.000002185492
      11       -0.000028812102    -0.000011467980     0.000008138427
      12       -0.000000770783    -0.000004063159    -0.000003279571
      13        0.000002996111     0.000003816815     0.000001416144
      14       -0.001077055933     0.007303626088     0.001345733762
      15        0.000008693878     0.000000813244     0.000001138459
      16       -0.000017653952    -0.000004691376    -0.000000389990
      17        0.002269126469    -0.001575636701    -0.005807583397
      18        0.000328125536    -0.005863610206     0.000326911881
      19        0.000006613314     0.000010198076     0.000004345410
      20       -0.001519377296     0.000136168165     0.004124024077
      21        0.000021020837    -0.000005066436     0.000010958735
      22       -0.000009819548     0.000013074604     0.000000974335
      23       -0.000025757180    -0.000002232435    -0.000001126159
      24        0.000038033692    -0.000003849966     0.000007902183
      25        0.000003379523    -0.000003541378    -0.000016773300

  **** Optimization is complete! (in 10 steps) ****
    Final optimized geometry and variables:
    Molecular point group: c1

    Geometry (in Angstrom), charge = 0, multiplicity = 1:

    H           -3.248711873567    -0.347792713534     1.384408674303
    C           -3.285850037232    -0.330546202650     0.287975860493
    C           -2.651156578061     0.877824591241    -0.352200147357
    O           -3.805545682813    -1.219013254320    -0.305644649255
    C           -1.215447014593     1.116664359860     0.135901896669
    H           -2.690807272835     0.755087007190    -1.428388319800
    H           -3.266035185847     1.738265371912    -0.091322436672
    C           -0.231913537247     0.029583185318    -0.304931943631
    H           -0.880570541458     2.079806619309    -0.238065709720
    H           -1.211871506313     1.196037965738     1.221776474682
    C            1.197737103091     0.290608320238     0.173459600095
    H           -0.243476322342    -0.040984455546    -1.390650566182
    H           -0.563028978763    -0.939598452087     0.063235503388
    C            2.175559488397    -0.790632704502    -0.287998507208
    H            1.519019706432     1.264291802642    -0.186700395216
    H            1.206764014253     0.347584075316     1.260962226158
    C            3.618412039691    -0.677798864057     0.242965399662
    H            2.189416627575    -0.850400408934    -1.374587953381
    H            1.786739898242    -1.757296669895     0.027347510934
    C            4.165108670217     0.743370739465     0.396790404050
    H            4.274143447795    -1.251027034682    -0.405831947897
    H            3.668480903505    -1.157925404981     1.217889694770
    H            4.125434467241     1.294510830954    -0.539244192087
    H            3.610891334729     1.308563697769     1.137816424809
    H            5.202465417612     0.715931160382     0.715809179455

  Mulliken Charges: (a.u.)
   Center  Symbol    Alpha    Beta     Spin     Total
       1     H     0.43262  0.43262  0.00000  0.13477
       2     C     2.83084  2.83084  0.00000  0.33832
       3     C     3.20815  3.20815  0.00000 -0.41631
       4     O     4.23774  4.23774  0.00000 -0.47547
       5     C     3.16658  3.16658  0.00000 -0.33317
       6     H     0.39968  0.39968  0.00000  0.20064
       7     H     0.40661  0.40661  0.00000  0.18679
       8     C     3.15495  3.15495  0.00000 -0.30990
       9     H     0.41281  0.41281  0.00000  0.17438
      10     H     0.41969  0.41969  0.00000  0.16062
      11     C     3.15516  3.15516  0.00000 -0.31032
      12     H     0.41790  0.41790  0.00000  0.16420
      13     H     0.41826  0.41826  0.00000  0.16349
      14     C     3.15509  3.15509  0.00000 -0.31018
      15     H     0.41975  0.41975  0.00000  0.16050
      16     H     0.42338  0.42338  0.00000  0.15324
      17     C     3.15222  3.15222  0.00000 -0.30445
      18     H     0.42180  0.42180  0.00000  0.15639
      19     H     0.42098  0.42098  0.00000  0.15803
      20     C     3.24277  3.24277  0.00000 -0.48554
      21     H     0.41936  0.41936  0.00000  0.16127
      22     H     0.42270  0.42270  0.00000  0.15460
      23     H     0.42234  0.42234  0.00000  0.15532
      24     H     0.41990  0.41990  0.00000  0.16021
      25     H     0.41871  0.41871  0.00000  0.16258

   Total alpha = 36.00000, Total beta = 36.00000, Total charge =  0.00000
