  ==> Input File <==

--------------------------------------------------------------------------
set {
	reference rhf
	basis cc-pvtz
}

set_num_threads( 4 )
memory 2 gb

molecule MOL {
0 1

H	 1.166964	 -1.062386	 0.758429
O	 1.324748	 -0.612467	 -0.052206
C	 0.706474	 0.636793	 -0.025501
C	 0.821911	 1.364310	 1.284089
H	 -0.340346	 0.465712	 -0.247315
H	 1.090450	 1.276554	 -0.817944
C	 1.347341	 0.881782	 2.388352
H	 0.426029	 2.366547	 1.277264
H	 1.736223	 -0.117285	 2.439421
H	 1.392579	 1.471175	 3.284248

	symmetry c1
}
set optking {
	frozen_dihedral = ("
		5 3 2 1
	")
}

ee = optimize('scf')
oeprop('DIPOLE', 'QUADRUPOLE', 'MULLIKEN_CHARGES')
f=open( 'psi4out.xyz', 'w' )
f.write( "10  " )
f.write( str(ee) + "\n" )
f.write( MOL.save_string_xyz() )
f.close()
--------------------------------------------------------------------------

    Molecular point group: c1
  Charge       = 0
  Multiplicity = 1
  Basis Set: CC-PVTZ
  Basis Set:
  @DF-RHF Final Energy:  -191.99525292285034
    Total Energy =                       -191.9952529228504829
    Molecular point group: c1
  Basis Set: CC-PVTZ
  Basis Set:
  Basis Set: CC-PVTZ
  Basis Set:
  @DF-RHF Final Energy:  -191.99735403664587
    Total Energy =                       -191.9973540366458451
  Basis Set: CC-PVTZ
  Basis Set:
  Basis Set: CC-PVTZ
  Basis Set:
  @DF-RHF Final Energy:  -191.99781448395390
    Total Energy =                       -191.9978144839539596
  Basis Set: CC-PVTZ
  Basis Set:
  Basis Set: CC-PVTZ
  Basis Set:
  @DF-RHF Final Energy:  -191.99798566744175
    Total Energy =                       -191.9979856674417817
  Basis Set: CC-PVTZ
  Basis Set:
  Basis Set: CC-PVTZ
  Basis Set:
  @DF-RHF Final Energy:  -191.99812652355570
    Total Energy =                       -191.9981265235556407
  Basis Set: CC-PVTZ
  Basis Set:
  Basis Set: CC-PVTZ
  Basis Set:
  @DF-RHF Final Energy:  -191.99812929592559
    Total Energy =                       -191.9981292959256223
  Basis Set: CC-PVTZ
  Basis Set:
  Charge       = 0
  Multiplicity = 1
  Basis Set: CC-PVTZ
  Basis Set:

    Orbital Energies (a.u.)
    -----------------------

    Doubly Occupied:

       1A    -20.553375     2A    -11.278062     3A    -11.235117
       4A    -11.221203     5A     -1.374284     6A     -1.065381
       7A     -0.934754     8A     -0.775706     9A     -0.689231
      10A     -0.666478    11A     -0.624774    12A     -0.574060
      13A     -0.550108    14A     -0.489902    15A     -0.456041
      16A     -0.372226

  @DF-RHF Final Energy:  -191.99812962154567

   => Energetics <=

    Nuclear Repulsion Energy =            119.5930339811306311
    One-Electron Energy =                -497.4609245070130328
    Two-Electron Energy =                 185.8697609043365730
    DFT Exchange-Correlation Energy =       0.0000000000000000
    Empirical Dispersion Energy =           0.0000000000000000
    PCM Polarization Energy =               0.0000000000000000
    EFP Energy =                            0.0000000000000000
    Total Energy =                       -191.9981296215458144
    Molecular point group: c1
  Basis Set: CC-PVTZ
  Basis Set:

  -Total Gradient:
     Atom            X                  Y                   Z
    ------   -----------------  -----------------  -----------------
       1        0.001852146331     0.000769978109     0.001201338225
       2       -0.002115325660    -0.000844706899    -0.002020369723
       3       -0.000386433767    -0.000249662825     0.002672965020
       4       -0.000035016670     0.000018739217     0.000051235053
       5        0.000680349014     0.000288604869    -0.001897730489
       6       -0.000003291237     0.000001012991    -0.000016233205
       7       -0.000034140115    -0.000005766650     0.000017156243
       8        0.000009953608     0.000008074383     0.000007202776
       9        0.000011784269     0.000002777926    -0.000003755481
      10        0.000019974229     0.000010948880    -0.000011808419

  **** Optimization is complete! (in 7 steps) ****
    Final optimized geometry and variables:
    Molecular point group: c1

    Geometry (in Angstrom), charge = 0, multiplicity = 1:

    H           -0.078459959737    -1.622550535889    -0.137742250476
    O            0.218022925469    -1.147608696859    -0.893281623877
    C           -0.322585396061     0.137151711454    -0.884651339491
    C           -0.276726406732     0.837816196294     0.442521980367
    H           -1.347885105047     0.124375469231    -1.249384140641
    H            0.245231250304     0.714027426532    -1.606432467637
    C            0.368510636264     0.428652959355     1.512818939446
    H           -0.830759010831     1.760823163693     0.480499742079
    H            0.953974146699    -0.471543713813     1.517849475827
    H            0.345826585945     0.995577807049     2.423719843972

  Mulliken Charges: (a.u.)
   Center  Symbol    Alpha    Beta     Spin     Total
       1     H     0.39083  0.39083  0.00000  0.21833
       2     O     4.20045  4.20045  0.00000 -0.40091
       3     C     2.94533  2.94533  0.00000  0.10934
       4     C     3.08306  3.08306  0.00000 -0.16611
       5     H     0.46976  0.46976  0.00000  0.06048
       6     H     0.45599  0.45599  0.00000  0.08802
       7     C     3.17675  3.17675  0.00000 -0.35351
       8     H     0.42245  0.42245  0.00000  0.15511
       9     H     0.42768  0.42768  0.00000  0.14465
      10     H     0.42770  0.42770  0.00000  0.14460

   Total alpha = 16.00000, Total beta = 16.00000, Total charge = -0.00000
