  ==> Input File <==

--------------------------------------------------------------------------
set {
	reference rhf
	basis 6-31G*
}

set_num_threads( 4 )
memory 2 gb

molecule MOL {
0 1

H	 -2.610957	 -0.470610	 1.588697
C	 -2.562881	 -0.639573	 0.514788
O	 -1.264744	 -0.498286	 0.034980
H	 -2.879629	 -1.651941	 0.305210
H	 -3.248270	 0.051487	 0.025803
C	 -0.719715	 0.768384	 0.229244
C	 0.719720	 0.768376	 -0.229267
H	 -1.277725	 1.511702	 -0.341545
H	 -0.761576	 1.050930	 1.279206
O	 1.392611	 -0.295398	 0.366430
H	 0.750534	 0.687200	 -1.313918
H	 1.185043	 1.714359	 0.050526
C	 2.706965	 -0.449871	 -0.062409
H	 2.756559	 -0.644779	 -1.131878
H	 3.305899	 0.433456	 0.155466
H	 3.125548	 -1.294566	 0.467107

	symmetry c1
}
set optking {
	frozen_dihedral = ("
		3 6 7 11
	")
}

ee = optimize('scf')
oeprop('DIPOLE', 'QUADRUPOLE', 'MULLIKEN_CHARGES')
f=open( 'psi4out.xyz', 'w' )
f.write( "16  " )
f.write( str(ee) + "\n" )
f.write( MOL.save_string_xyz() )
f.close()
--------------------------------------------------------------------------

    Molecular point group: c1
  Charge       = 0
  Multiplicity = 1
  Basis Set: 6-31G*
  Basis Set:
  @DF-RHF Final Energy:  -306.97522835132293
    Total Energy =                       -306.9752283513228690
    Molecular point group: c1
  Basis Set: 6-31G*
  Basis Set:
  Basis Set: 6-31G*
  Basis Set:
  @DF-RHF Final Energy:  -306.97563422203541
    Total Energy =                       -306.9756342220352963
  Basis Set: 6-31G*
  Basis Set:
  Basis Set: 6-31G*
  Basis Set:
  @DF-RHF Final Energy:  -306.97570729556793
    Total Energy =                       -306.9757072955679291
  Basis Set: 6-31G*
  Basis Set:
  Charge       = 0
  Multiplicity = 1
  Basis Set: 6-31G*
  Basis Set:

    Orbital Energies (a.u.)
    -----------------------

    Doubly Occupied:

       1A    -20.553957     2A    -20.552499     3A    -11.270070
       4A    -11.269403     5A    -11.263708     6A    -11.263011
       7A     -1.389624     8A     -1.370361     9A     -1.030435
      10A     -0.935441    11A     -0.895263    12A     -0.821368
      13A     -0.685638    14A     -0.678538    15A     -0.658099
      16A     -0.639728    17A     -0.625712    18A     -0.595464
      19A     -0.560125    20A     -0.527086    21A     -0.508954
      22A     -0.475798    23A     -0.464382    24A     -0.413779
      25A     -0.413233

  @DF-RHF Final Energy:  -306.97570973737811

   => Energetics <=

    Nuclear Repulsion Energy =            259.4848604958024225
    One-Electron Energy =                -933.1977959546899228
    Two-Electron Energy =                 366.7372257215092759
    DFT Exchange-Correlation Energy =       0.0000000000000000
    Empirical Dispersion Energy =           0.0000000000000000
    PCM Polarization Energy =               0.0000000000000000
    EFP Energy =                            0.0000000000000000
    Total Energy =                       -306.9757097373782244
    Molecular point group: c1
  Basis Set: 6-31G*
  Basis Set:

  -Total Gradient:
     Atom            X                  Y                   Z
    ------   -----------------  -----------------  -----------------
       1       -0.000017313324    -0.000005386345     0.000008550564
       2        0.000000326771     0.000045991090     0.000011573638
       3        0.001403929081    -0.001262095962     0.004111155397
       4        0.000008646667     0.000001861267    -0.000003617473
       5       -0.000013951494    -0.000013213921     0.000001847513
       6       -0.001780713205     0.003157844462    -0.005479928742
       7        0.000334361221    -0.007636163589     0.001653628713
       8       -0.000024208158    -0.000060002305    -0.000015523208
       9       -0.000012540661    -0.000016844743     0.000006523085
      10        0.000005989405     0.000010402811    -0.000034220493
      11        0.000011986810     0.005790631366    -0.000304489418
      12        0.000046793063    -0.000018256822     0.000023503101
      13       -0.000032962392     0.000019991409     0.000034059870
      14       -0.000005920275    -0.000001151197     0.000004616670
      15        0.000033007444    -0.000000902421    -0.000009691110
      16        0.000042569045    -0.000012705102    -0.000007988107

  **** Optimization is complete! (in 4 steps) ****
    Final optimized geometry and variables:
    Molecular point group: c1

    Geometry (in Angstrom), charge = 0, multiplicity = 1:

    H           -2.699537650357    -0.353360459274     1.443333842727
    C           -2.648305160812    -0.535910688008     0.371479060364
    O           -1.343011114288    -0.439171313723    -0.099072070228
    H           -2.993219471747    -1.540817291618     0.171014409432
    H           -3.309402596659     0.169583720099    -0.130052301440
    C           -0.759440639344     0.806825928964     0.099940439501
    C            0.672398578507     0.791909657152    -0.389540141384
    H           -1.305654818184     1.586238694370    -0.432439586742
    H           -0.772811732664     1.057641030593     1.159905381182
    O            1.374807121991    -0.243646437649     0.209045788041
    H            0.696992300713     0.730724848148    -1.476914941394
    H            1.121085464663     1.753876686012    -0.130829648340
    C            2.700203307933    -0.342805608385    -0.202300285972
    H            2.771978921404    -0.524894797037    -1.272792947873
    H            3.261064284829     0.560868816746     0.032269698532
    H            3.143332141834    -1.176194356813     0.324974739830

  Mulliken Charges: (a.u.)
   Center  Symbol    Alpha    Beta     Spin     Total
       1     H     0.42905  0.42905  0.00000  0.14190
       2     C     3.07968  3.07968  0.00000 -0.15935
       3     O     4.29682  4.29682  0.00000 -0.59363
       4     H     0.41083  0.41083  0.00000  0.17834
       5     H     0.43203  0.43203  0.00000  0.13594
       6     C     2.99245  2.99245  0.00000  0.01511
       7     C     2.99342  2.99342  0.00000  0.01316
       8     H     0.43212  0.43212  0.00000  0.13575
       9     H     0.42680  0.42680  0.00000  0.14639
      10     O     4.29555  4.29555  0.00000 -0.59110
      11     H     0.42674  0.42674  0.00000  0.14653
      12     H     0.43379  0.43379  0.00000  0.13241
      13     C     3.07992  3.07992  0.00000 -0.15985
      14     H     0.42846  0.42846  0.00000  0.14308
      15     H     0.43172  0.43172  0.00000  0.13656
      16     H     0.41062  0.41062  0.00000  0.17875

   Total alpha = 25.00000, Total beta = 25.00000, Total charge =  0.00000
