  ==> Input File <==

--------------------------------------------------------------------------
set {
	reference rhf
	basis cc-pvtz
}

set_num_threads( 4 )
memory 2 gb

molecule MOL {
0 1

H	 -0.367000	 2.048000	 -0.332000
C	 0.352000	 1.337000	 0.059000
N	 0.000000	 -0.000000	 -0.360000
H	 1.328000	 1.601000	 -0.332000
H	 0.382000	 1.451000	 1.148000
C	 0.982000	 -0.974000	 0.059000
C	 -1.334000	 -0.364000	 0.059000
H	 0.722000	 -1.951000	 -0.333000
H	 1.957000	 -0.706000	 -0.332000
H	 1.065000	 -1.056000	 1.148000
H	 -2.051000	 0.350000	 -0.333000
H	 -1.589000	 -1.342000	 -0.332000
H	 -1.447000	 -0.394000	 1.148000

	symmetry c1
}
ee = optimize('scf')
oeprop('DIPOLE', 'QUADRUPOLE', 'MULLIKEN_CHARGES')
f=open( 'psi4out.xyz', 'w' )
f.write( "13  " )
f.write( str(ee) + "\n" )
f.write( MOL.save_string_xyz() )
f.close()
--------------------------------------------------------------------------

    Molecular point group: c1
  Charge       = 0
  Multiplicity = 1
  Basis Set: CC-PVTZ
  Basis Set:
  @DF-RHF Final Energy:  -173.33399721567955
    Total Energy =                       -173.3339972156795739
    Molecular point group: c1
  Basis Set: CC-PVTZ
  Basis Set:
  Charge       = 0
  Multiplicity = 1
  Basis Set: CC-PVTZ
  Basis Set:

    Orbital Energies (a.u.)
    -----------------------

    Doubly Occupied:

       1A    -15.539427     2A    -11.234243     3A    -11.234236
       4A    -11.234213     5A     -1.227174     6A     -0.952419
       7A     -0.952408     8A     -0.806793     9A     -0.643584
      10A     -0.631478    11A     -0.631463    12A     -0.544080
      13A     -0.544043    14A     -0.517193    15A     -0.502430
      16A     -0.502358    17A     -0.349342

  @DF-RHF Final Energy:  -173.33402116891847

   => Energetics <=

    Nuclear Repulsion Energy =            139.4684281350039896
    One-Electron Energy =                -509.5111316941141695
    Two-Electron Energy =                 196.7086823901918251
    DFT Exchange-Correlation Energy =       0.0000000000000000
    Empirical Dispersion Energy =           0.0000000000000000
    PCM Polarization Energy =               0.0000000000000000
    EFP Energy =                            0.0000000000000000
    Total Energy =                       -173.3340211689183548
    Molecular point group: c1
  Basis Set: CC-PVTZ
  Basis Set:

  -Total Gradient:
     Atom            X                  Y                   Z
    ------   -----------------  -----------------  -----------------
       1       -0.000006624685    -0.000057910567    -0.000004622551
       2        0.000080456077     0.000105274500     0.000139801839
       3       -0.000024394663     0.000145195473    -0.000052697343
       4       -0.000011108205    -0.000023722741    -0.000002665164
       5       -0.000039514746    -0.000116363189    -0.000151886574
       6        0.000215541198    -0.000210802841     0.000239171942
       7       -0.000236914048    -0.000109828191     0.000204290360
       8       -0.000020830787     0.000081578294    -0.000003861704
       9       -0.000045828275     0.000017240540    -0.000003966159
      10       -0.000085718841     0.000085753386    -0.000188306623
      11        0.000041388561    -0.000019492985     0.000013435441
      12        0.000033085952     0.000053255787    -0.000006675859
      13        0.000100462460     0.000049822534    -0.000182017604

  **** Optimization is complete! (in 2 steps) ****
    Final optimized geometry and variables:
    Molecular point group: c1

    Geometry (in Angstrom), charge = 0, multiplicity = 1:

    H           -0.366579705253     2.045935673365    -0.305741175085
    C            0.351828675277     1.335401691820     0.083179259391
    N           -0.000017583352     0.000079937726    -0.334836402088
    H            1.327155688011     1.599859982863    -0.305474818993
    H            0.380566365252     1.445402590889     1.171444489606
    C            0.980745964519    -0.972384803603     0.083247189660
    C           -1.332531633373    -0.363116398661     0.083178113220
    H            0.722132032778    -1.949019995721    -0.305847966482
    H            1.955306816594    -0.705340381165    -0.305475191962
    H            1.061329045328    -1.052572142038     1.171431533468
    H           -2.049197495920     0.349185999849    -0.305664275740
    H           -1.588611526819    -1.340519323289    -0.305707488532
    H           -1.442368980833    -0.392858233699     1.171370385283

  Mulliken Charges: (a.u.)
   Center  Symbol    Alpha    Beta     Spin     Total
       1     H     0.45261  0.45261  0.00000  0.09479
       2     C     3.08903  3.08903  0.00000 -0.17807
       3     N     3.59561  3.59561  0.00000 -0.19122
       4     H     0.45260  0.45260  0.00000  0.09479
       5     H     0.47392  0.47392  0.00000  0.05216
       6     C     3.08905  3.08905  0.00000 -0.17811
       7     C     3.08905  3.08905  0.00000 -0.17810
       8     H     0.45259  0.45259  0.00000  0.09483
       9     H     0.45260  0.45260  0.00000  0.09481
      10     H     0.47388  0.47388  0.00000  0.05225
      11     H     0.45259  0.45259  0.00000  0.09481
      12     H     0.45259  0.45259  0.00000  0.09483
      13     H     0.47389  0.47389  0.00000  0.05223

   Total alpha = 17.00000, Total beta = 17.00000, Total charge =  0.00000
