  ==> Input File <==

--------------------------------------------------------------------------
set {
	reference rhf
	basis cc-pvtz
}

set_num_threads( 4 )
memory 2 gb

molecule MOL {
0 1

H	 1.385127	 1.760950	 0.090460
C	 1.693028	 0.721940	 0.061925
N	 0.526300	 -0.128137	 0.000000
H	 2.247614	 0.518839	 0.969241
H	 2.369644	 0.600634	 -0.786631
C	 -0.247113	 0.037112	 -1.209233
H	 0.794964	 -1.082417	 0.104056
H	 -0.996493	 -0.743733	 -1.271440
H	 0.397975	 -0.057351	 -2.073512
H	 -0.763794	 0.997171	 -1.271673

	symmetry c1
}
set optking {
	frozen_dihedral = ("
		2 3 6 8
	")
}

ee = optimize('scf')
oeprop('DIPOLE', 'QUADRUPOLE', 'MULLIKEN_CHARGES')
f=open( 'psi4out.xyz', 'w' )
f.write( "10  " )
f.write( str(ee) + "\n" )
f.write( MOL.save_string_xyz() )
f.close()
--------------------------------------------------------------------------

    Molecular point group: c1
  Charge       = 0
  Multiplicity = 1
  Basis Set: CC-PVTZ
  Basis Set:
  @DF-RHF Final Energy:  -134.29188372314843
    Total Energy =                       -134.2918837231483735
    Molecular point group: c1
  Basis Set: CC-PVTZ
  Basis Set:
  Basis Set: CC-PVTZ
  Basis Set:
  @DF-RHF Final Energy:  -134.29278084352410
    Total Energy =                       -134.2927808435240991
  Basis Set: CC-PVTZ
  Basis Set:
  Basis Set: CC-PVTZ
  Basis Set:
  @DF-RHF Final Energy:  -134.29290890022833
    Total Energy =                       -134.2929089002283547
  Basis Set: CC-PVTZ
  Basis Set:
  Charge       = 0
  Multiplicity = 1
  Basis Set: CC-PVTZ
  Basis Set:

    Orbital Energies (a.u.)
    -----------------------

    Doubly Occupied:

       1A    -15.532748     2A    -11.234355     3A    -11.234293
       4A     -1.201200     5A     -0.948380     6A     -0.854577
       7A     -0.662809     8A     -0.613740     9A     -0.592478
      10A     -0.539870    11A     -0.510343    12A     -0.506626
      13A     -0.364847

  @DF-RHF Final Energy:  -134.29290984364349

   => Energetics <=

    Nuclear Repulsion Energy =             84.7498737156423232
    One-Electron Energy =                -348.4930381889337809
    Two-Electron Energy =                 129.4502546296479863
    DFT Exchange-Correlation Energy =       0.0000000000000000
    Empirical Dispersion Energy =           0.0000000000000000
    PCM Polarization Energy =               0.0000000000000000
    EFP Energy =                            0.0000000000000000
    Total Energy =                       -134.2929098436434856
    Molecular point group: c1
  Basis Set: CC-PVTZ
  Basis Set:

  -Total Gradient:
     Atom            X                  Y                   Z
    ------   -----------------  -----------------  -----------------
       1        0.000016646912     0.000016175818     0.000006019502
       2        0.000487017737    -0.000739392597    -0.000509861521
       3       -0.000598933555     0.000843866360     0.000420351403
       4       -0.000013664310    -0.000023697790    -0.000001859868
       5        0.000007671443     0.000001992507     0.000002624839
       6       -0.000787036065     0.000677275783     0.000639016893
       7       -0.000041753112     0.000011597026    -0.000020855165
       8        0.000905849573    -0.000802010583    -0.000590420712
       9        0.000021578482     0.000003632519     0.000013602143
      10        0.000002622895     0.000010560958     0.000041382484

  **** Optimization is complete! (in 4 steps) ****
    Final optimized geometry and variables:
    Molecular point group: c1

    Geometry (in Angstrom), charge = 0, multiplicity = 1:

    H            0.718211753704     1.557810202286     0.470633437140
    C            1.020729216510     0.516677478610     0.464443438085
    N           -0.148973198787    -0.329588876369     0.404058736602
    H            1.563973024541     0.327609953611     1.381594017537
    H            1.705175051870     0.376410510558    -0.374635823630
    C           -0.908708780913    -0.179535130923    -0.816485617499
    H            0.119933906044    -1.282563237623     0.518145813195
    H           -1.660662253297    -0.955867714054    -0.876935263603
    H           -0.296050505680    -0.237497193762    -1.718724976646
    H           -1.414503308372     0.779224595868    -0.822504899615

  Mulliken Charges: (a.u.)
   Center  Symbol    Alpha    Beta     Spin     Total
       1     H     0.45713  0.45713  0.00000  0.08574
       2     C     3.08148  3.08148  0.00000 -0.16295
       3     N     3.62795  3.62795  0.00000 -0.25590
       4     H     0.45246  0.45246  0.00000  0.09507
       5     H     0.47446  0.47446  0.00000  0.05108
       6     C     3.07978  3.07978  0.00000 -0.15955
       7     H     0.44083  0.44083  0.00000  0.11833
       8     H     0.45333  0.45333  0.00000  0.09335
       9     H     0.47633  0.47633  0.00000  0.04733
      10     H     0.45625  0.45625  0.00000  0.08750

   Total alpha = 13.00000, Total beta = 13.00000, Total charge = -0.00000
