  ==> Input File <==

--------------------------------------------------------------------------
set {
	reference rhf
	basis cc-pvtz
}

set_num_threads( 4 )
memory 2 gb

molecule MOL {
0 1

O	 -1.278239	 1.034789	 -0.784693
C	 -1.204115	 0.062668	 -0.112312
C	 -2.386398	 -0.667698	 0.460323
O	 -0.068058	 -0.518372	 0.226882
H	 -2.382952	 -1.693172	 0.114333
H	 -3.296656	 -0.175702	 0.158400
H	 -2.312537	 -0.685191	 1.540100
C	 1.169086	 0.037484	 -0.230612
C	 0.885420	 1.489306	 -0.560551
C	 1.680469	 -0.753093	 -1.421445
H	 1.880595	 -0.026657	 0.578542
H	 0.518446	 2.015195	 0.311527
H	 1.791957	 1.976988	 -0.898291
H	 0.141821	 1.566779	 -1.344767
H	 2.611000	 -0.326071	 -1.776780
H	 1.864009	 -1.782882	 -1.148505
H	 0.961117	 -0.726822	 -2.232078

	symmetry c1
}
set optking {
	frozen_dihedral = ("
		11 8 4 2
	")
}

ee = optimize('scf')
oeprop('DIPOLE', 'QUADRUPOLE', 'MULLIKEN_CHARGES')
f=open( 'psi4out.xyz', 'w' )
f.write( "17  " )
f.write( str(ee) + "\n" )
f.write( MOL.save_string_xyz() )
f.close()
--------------------------------------------------------------------------

    Molecular point group: c1
  Charge       = 0
  Multiplicity = 1
  Basis Set: CC-PVTZ
  Basis Set:
  @DF-RHF Final Energy:  -344.98637595903784
    Total Energy =                       -344.9863759590376162
    Molecular point group: c1
  Basis Set: CC-PVTZ
  Basis Set:
  Basis Set: CC-PVTZ
  Basis Set:
  @DF-RHF Final Energy:  -345.02151574284881
    Total Energy =                       -345.0215157428487487
  Basis Set: CC-PVTZ
  Basis Set:
  Basis Set: CC-PVTZ
  Basis Set:
  @DF-RHF Final Energy:  -345.02947224430744
    Total Energy =                       -345.0294722443072715
  Basis Set: CC-PVTZ
  Basis Set:
  Basis Set: CC-PVTZ
  Basis Set:
  @DF-RHF Final Energy:  -345.02931870116271
    Total Energy =                       -345.0293187011626515
  Basis Set: CC-PVTZ
  Basis Set:
  @DF-RHF Final Energy:  -345.03288341698948
    Total Energy =                       -345.0328834169897050
  @DF-RHF Final Energy:  -345.03342439344351
    Total Energy =                       -345.0334243934431697
  Basis Set: CC-PVTZ
  Basis Set:
  @DF-RHF Final Energy:  -345.03348532911525
    Total Energy =                       -345.0334853291149670
  Basis Set: CC-PVTZ
  Basis Set:
  Basis Set: CC-PVTZ
  Basis Set:
  @DF-RHF Final Energy:  -345.03349676116341
    Total Energy =                       -345.0334967611630077
  Basis Set: CC-PVTZ
  Basis Set:
  Basis Set: CC-PVTZ
  Basis Set:
  @DF-RHF Final Energy:  -345.03350014023988
    Total Energy =                       -345.0335001402399371
  Basis Set: CC-PVTZ
  Basis Set:
  Charge       = 0
  Multiplicity = 1
  Basis Set: CC-PVTZ
  Basis Set:

    Orbital Energies (a.u.)
    -----------------------

    Doubly Occupied:

       1A    -20.587691     2A    -20.527797     3A    -11.366455
       4A    -11.294505     5A    -11.228000     6A    -11.217120
       7A    -11.211309     8A     -1.462139     9A     -1.363099
      10A     -1.079390    11A     -1.002898    12A     -0.947081
      13A     -0.868138    14A     -0.735931    15A     -0.693085
      16A     -0.675119    17A     -0.661389    18A     -0.618030
      19A     -0.584004    20A     -0.580378    21A     -0.567972
      22A     -0.550887    23A     -0.531241    24A     -0.518412
      25A     -0.506640    26A     -0.481856    27A     -0.444366
      28A     -0.430880

  @DF-RHF Final Energy:  -345.03350088905393

   => Energetics <=

    Nuclear Repulsion Energy =            325.3388142141936896
    One-Electron Energy =               -1115.2730095698548212
    Two-Electron Energy =                 444.9006944666078311
    DFT Exchange-Correlation Energy =       0.0000000000000000
    Empirical Dispersion Energy =           0.0000000000000000
    PCM Polarization Energy =               0.0000000000000000
    EFP Energy =                            0.0000000000000000
    Total Energy =                       -345.0335008890533004
    Molecular point group: c1
  Basis Set: CC-PVTZ
  Basis Set:

  -Total Gradient:
     Atom            X                  Y                   Z
    ------   -----------------  -----------------  -----------------
       1       -0.000018768795    -0.000066548114     0.000008386706
       2        0.000051997461     0.002522792720     0.003940731958
       3        0.000023815303     0.000044720898     0.000036063215
       4       -0.000373348188    -0.003210894391    -0.005808943488
       5       -0.000001912879    -0.000013683421    -0.000030014258
       6        0.000007908715     0.000001641563    -0.000013007892
       7        0.000008928186    -0.000024308587    -0.000008682870
       8        0.001640731410    -0.003446839369     0.000244608673
       9        0.000014028178     0.000034717349    -0.000045918606
      10        0.000006611641    -0.000006650934     0.000008578960
      11       -0.001391209524     0.004154047376     0.001635250512
      12        0.000004784465     0.000003103978    -0.000024750182
      13        0.000001702895    -0.000003552728    -0.000000221380
      14        0.000039618381     0.000005082163     0.000052168998
      15       -0.000008419292     0.000005710605     0.000003872439
      16       -0.000000478421    -0.000001913233     0.000003636750
      17       -0.000005989539     0.000002574125    -0.000001759535

  **** Optimization is complete! (in 10 steps) ****
    Final optimized geometry and variables:
    Molecular point group: c1

    Geometry (in Angstrom), charge = 0, multiplicity = 1:

    O           -1.347593106543     0.768293750502    -0.556157010561
    C           -1.115364081279    -0.100566640325     0.212936388538
    C           -2.172566878228    -0.842125663325     0.986133187665
    O            0.083314366535    -0.571956711811     0.495787479673
    H           -2.090743956500    -1.903291686206     0.790667785384
    H           -3.147921670740    -0.483949179571     0.699236570969
    H           -2.017876742063    -0.691137560939     2.046926475598
    C            1.338742218268     0.010930110177     0.106278506921
    C            1.325874366271     1.509255644583    -0.164127192515
    C            1.901212311771    -0.794136201790    -1.048786003293
    H            1.939830351668    -0.131162812317     0.993962976240
    H            0.827252714984     2.048674598825     0.630204258186
    H            2.358995794001     1.838555967053    -0.193430251212
    H            0.850463141941     1.762082695397    -1.097152801977
    H            2.905612662444    -0.461024259519    -1.282165581767
    H            1.937770737827    -1.846647517313    -0.799029765813
    H            1.285926226084    -0.668583409816    -1.931717768995

  Mulliken Charges: (a.u.)
   Center  Symbol    Alpha    Beta     Spin     Total
       1     O     4.19898  4.19898  0.00000 -0.39796
       2     C     2.80469  2.80469  0.00000  0.39061
       3     C     3.13776  3.13776  0.00000 -0.27551
       4     O     4.16413  4.16413  0.00000 -0.32827
       5     H     0.44540  0.44540  0.00000  0.10920
       6     H     0.43925  0.43925  0.00000  0.12149
       7     H     0.44756  0.44756  0.00000  0.10488
       8     C     2.93785  2.93785  0.00000  0.12431
       9     C     3.15734  3.15734  0.00000 -0.31468
      10     C     3.14677  3.14677  0.00000 -0.29354
      11     H     0.44243  0.44243  0.00000  0.11515
      12     H     0.44548  0.44548  0.00000  0.10904
      13     H     0.45113  0.45113  0.00000  0.09774
      14     H     0.43562  0.43562  0.00000  0.12876
      15     H     0.45206  0.45206  0.00000  0.09587
      16     H     0.44632  0.44632  0.00000  0.10736
      17     H     0.44722  0.44722  0.00000  0.10555

   Total alpha = 28.00000, Total beta = 28.00000, Total charge =  0.00000
