  ==> Input File <==

--------------------------------------------------------------------------
set {
	reference rhf
	basis cc-pvtz
}

set_num_threads( 4 )
memory 2 gb

molecule MOL {
0 1

O	 -2.071633	 -1.227563	 -0.223463
C	 -1.652164	 -0.152425	 0.058082
C	 -0.327811	 0.006324	 0.778296
C	 -2.402515	 1.108629	 -0.298924
C	 0.843231	 -0.001575	 -0.211665
H	 -0.319484	 0.928173	 1.350354
H	 -0.227804	 -0.823091	 1.466705
C	 2.197693	 0.138030	 0.476937
H	 0.722944	 0.805202	 -0.930230
H	 0.813976	 -0.926978	 -0.776588
C	 2.785158	 -1.201581	 0.907621
H	 2.892180	 0.638841	 -0.191943
H	 2.091275	 0.781756	 1.345171
H	 2.936207	 -1.855604	 0.055287
H	 2.126783	 -1.711766	 1.602331
H	 3.743338	 -1.069096	 1.396231
H	 -3.240910	 0.874416	 -0.936711
H	 -1.747554	 1.818823	 -0.790984
H	 -2.760419	 1.579708	 0.610998

	symmetry c1
}
set optking {
	frozen_dihedral = ("
		11 8 5 9
	")
}

ee = optimize('scf')
oeprop('DIPOLE', 'QUADRUPOLE', 'MULLIKEN_CHARGES')
f=open( 'psi4out.xyz', 'w' )
f.write( "19  " )
f.write( str(ee) + "\n" )
f.write( MOL.save_string_xyz() )
f.close()
--------------------------------------------------------------------------

    Molecular point group: c1
  Charge       = 0
  Multiplicity = 1
  Basis Set: CC-PVTZ
  Basis Set:
  @DF-RHF Final Energy:  -309.17406715701600
    Total Energy =                       -309.1740671570158270
    Molecular point group: c1
  Basis Set: CC-PVTZ
  Basis Set:
  Basis Set: CC-PVTZ
  Basis Set:
  @DF-RHF Final Energy:  -309.17425018922080
    Total Energy =                       -309.1742501892208566
  Basis Set: CC-PVTZ
  Basis Set:
  Basis Set: CC-PVTZ
  Basis Set:
  @DF-RHF Final Energy:  -309.17431340034631
    Total Energy =                       -309.1743134003463069
  Basis Set: CC-PVTZ
  Basis Set:
  Basis Set: CC-PVTZ
  Basis Set:
  @DF-RHF Final Energy:  -309.17429305854893
    Total Energy =                       -309.1742930585488693
  Basis Set: CC-PVTZ
  Basis Set:
  Basis Set: CC-PVTZ
  Basis Set:
  @DF-RHF Final Energy:  -309.17432944481379
    Total Energy =                       -309.1743294448135089
  Basis Set: CC-PVTZ
  Basis Set:
  Basis Set: CC-PVTZ
  Basis Set:
  @DF-RHF Final Energy:  -309.17435240017869
    Total Energy =                       -309.1743524001786909
  Basis Set: CC-PVTZ
  Basis Set:
  Basis Set: CC-PVTZ
  Basis Set:
  @DF-RHF Final Energy:  -309.17435412437112
    Total Energy =                       -309.1743541243711775
  Basis Set: CC-PVTZ
  Basis Set:
  Charge       = 0
  Multiplicity = 1
  Basis Set: CC-PVTZ
  Basis Set:

    Orbital Energies (a.u.)
    -----------------------

    Doubly Occupied:

       1A    -20.536995     2A    -11.319493     3A    -11.228699
       4A    -11.227999     5A    -11.226989     6A    -11.222904
       7A    -11.211893     8A     -1.397111     9A     -1.091720
      10A     -1.029112    11A     -0.982769    12A     -0.896092
      13A     -0.802596    14A     -0.736849    15A     -0.657025
      16A     -0.654144    17A     -0.620781    18A     -0.605539
      19A     -0.598605    20A     -0.577040    21A     -0.546126
      22A     -0.538684    23A     -0.519394    24A     -0.500913
      25A     -0.480791    26A     -0.477474    27A     -0.463783
      28A     -0.399393

  @DF-RHF Final Energy:  -309.17435427962988

   => Energetics <=

    Nuclear Repulsion Energy =            304.1197380148985872
    One-Electron Energy =               -1021.4863567540295435
    Two-Electron Energy =                 408.1922644595010183
    DFT Exchange-Correlation Energy =       0.0000000000000000
    Empirical Dispersion Energy =           0.0000000000000000
    PCM Polarization Energy =               0.0000000000000000
    EFP Energy =                            0.0000000000000000
    Total Energy =                       -309.1743542796298811
    Molecular point group: c1
  Basis Set: CC-PVTZ
  Basis Set:

  -Total Gradient:
     Atom            X                  Y                   Z
    ------   -----------------  -----------------  -----------------
       1        0.000002583165    -0.000001612501    -0.000003723282
       2       -0.000004000808     0.000006292646     0.000003033428
       3        0.000000172933    -0.000000351262     0.000003107292
       4       -0.000007056934    -0.000004737321     0.000005608920
       5       -0.001188567919     0.002228524749     0.002025036742
       6        0.000000689383    -0.000001232438    -0.000000732113
       7       -0.000001606544     0.000001338249     0.000000991616
       8       -0.001184300594    -0.000144926518     0.002420769846
       9        0.001301960568    -0.001871396675    -0.002327960357
      10        0.000002639140     0.000000246091    -0.000004415099
      11        0.001073868528    -0.000212812927    -0.002119386203
      12       -0.000004154581    -0.000003344479     0.000002503128
      13        0.000002299197     0.000004294707    -0.000001422370
      14       -0.000003467348     0.000001033419     0.000001472329
      15        0.000002588171    -0.000002735273     0.000000775616
      16        0.000000781498     0.000000034310    -0.000000961815
      17        0.000000525936     0.000000306488    -0.000000939968
      18        0.000003009180    -0.000000719090    -0.000001973035
      19        0.000002037033     0.000001797828    -0.000001784675

  **** Optimization is complete! (in 8 steps) ****
    Final optimized geometry and variables:
    Molecular point group: c1

    Geometry (in Angstrom), charge = 0, multiplicity = 1:

    O           -1.974179893621    -1.037719384645    -0.430521577903
    C           -1.566864806528     0.043443964718    -0.154201044495
    C           -0.247496311379     0.220907511398     0.570969093714
    C           -2.328451279982     1.294451881807    -0.522512245736
    C            0.927543713796     0.226413470062    -0.414909754507
    H           -0.252298934094     1.145867554176     1.137703901802
    H           -0.143971001210    -0.603565721289     1.264142741059
    C            2.297184980816     0.330008121935     0.268480141196
    H            0.814860767816     1.037324939436    -1.127659464935
    H            0.888372435011    -0.685435003136    -1.001422808211
    C            2.872224683267    -1.018640910397     0.693037777228
    H            2.995502715422     0.796711350740    -0.418431326150
    H            2.230963877557     0.992576028101     1.126282038943
    H            3.022881916566    -1.659699693991    -0.168202061724
    H            2.214195099249    -1.539799093520     1.379738706874
    H            3.829125660424    -0.894626702198     1.186753957799
    H           -3.160975970130     1.047667460328    -1.163238766134
    H           -1.678363183538     2.008701293275    -1.015082856289
    H           -2.696247716786     1.766798980925     0.382814067438

  Mulliken Charges: (a.u.)
   Center  Symbol    Alpha    Beta     Spin     Total
       1     O     4.17710  4.17710  0.00000 -0.35420
       2     C     2.85810  2.85810  0.00000  0.28380
       3     C     3.09888  3.09888  0.00000 -0.19775
       4     C     3.15508  3.15508  0.00000 -0.31016
       5     C     3.10606  3.10606  0.00000 -0.21212
       6     H     0.44915  0.44915  0.00000  0.10169
       7     H     0.43862  0.43862  0.00000  0.12276
       8     C     3.09060  3.09060  0.00000 -0.18119
       9     H     0.44503  0.44503  0.00000  0.10994
      10     H     0.44318  0.44318  0.00000  0.11364
      11     C     3.14646  3.14646  0.00000 -0.29292
      12     H     0.44739  0.44739  0.00000  0.10523
      13     H     0.45454  0.45454  0.00000  0.09092
      14     H     0.45292  0.45292  0.00000  0.09415
      15     H     0.45370  0.45370  0.00000  0.09260
      16     H     0.44781  0.44781  0.00000  0.10438
      17     H     0.43614  0.43614  0.00000  0.12772
      18     H     0.45090  0.45090  0.00000  0.09819
      19     H     0.44834  0.44834  0.00000  0.10333

   Total alpha = 28.00000, Total beta = 28.00000, Total charge = -0.00000
