                              Psi4 1.0.54 Driver

  ==> Input File <==

--------------------------------------------------------------------------
set {
	reference rhf
	basis cc-pvtz
}

set_num_threads( 4 )
memory 2 gb

molecule MOL {
0 1

H	 -3.941973	 0.934228	 -0.390224
C	 -3.240162	 0.342701	 0.161016
C	 -2.105997	 -0.000418	 -0.398703
H	 -3.485368	 0.047206	 1.162193
O	 -1.189946	 -0.765863	 0.237511
H	 -1.846458	 0.297311	 -1.398265
C	 0.026572	 -0.995256	 -0.379403
C	 1.057223	 0.049888	 -0.004615
H	 -0.054361	 -1.010670	 -1.459674
H	 0.397526	 -1.952058	 -0.044198
F	 2.266457	 -0.451184	 -0.158760
F	 0.968958	 1.120969	 -0.763891
F	 0.937298	 0.435343	 1.242582

	symmetry c1
}
set optking {
	frozen_dihedral = ("
		11 8 7 9
	")
}

ee,wfn = optimize('scf', return_wfn=True)
oeprop( wfn, 'DIPOLE', 'QUADRUPOLE', 'MULLIKEN_CHARGES')
f=open( 'psi4out.xyz', 'w' )
f.write( "13  " )
f.write( str(ee) + "\n" )
f.write( MOL.save_string_xyz() )
f.close()
--------------------------------------------------------------------------

    Molecular point group: c1
  Charge       = 0
  Multiplicity = 1
  Basis Set: CC-PVTZ
  Basis Set:
  @DF-RHF Final Energy:  -527.73979866221543
    Total Energy =                       -527.7397986622152075
    Molecular point group: c1
  Basis Set: CC-PVTZ
  Basis Set:
  Basis Set: CC-PVTZ
  Basis Set:
  @DF-RHF Final Energy:  -527.73996448297407
    Total Energy =                       -527.7399644829743011
  Basis Set: CC-PVTZ
  Basis Set:
  Basis Set: CC-PVTZ
  Basis Set:
  @DF-RHF Final Energy:  -527.74004040366276
    Total Energy =                       -527.7400404036628743
  Basis Set: CC-PVTZ
  Basis Set:
  Basis Set: CC-PVTZ
  Basis Set:
  @DF-RHF Final Energy:  -527.74006212010772
    Total Energy =                       -527.7400621201070408
  Basis Set: CC-PVTZ
  Basis Set:
  @DF-RHF Final Energy:  -527.74007796297667
    Total Energy =                       -527.7400779629763292
  Basis Set: CC-PVTZ
  Basis Set:
  @DF-RHF Final Energy:  -527.74008317037635
    Total Energy =                       -527.7400831703766926
  Basis Set: CC-PVTZ
  Basis Set:
  Basis Set: CC-PVTZ
  Basis Set:
  @DF-RHF Final Energy:  -527.74008773430046
    Total Energy =                       -527.7400877343009142
  Basis Set: CC-PVTZ
  Basis Set:
  Basis Set: CC-PVTZ
  Basis Set:
  @DF-RHF Final Energy:  -527.74008908392102
    Total Energy =                       -527.7400890839212479
  Basis Set: CC-PVTZ
  Basis Set:
  Charge       = 0
  Multiplicity = 1
  Basis Set: CC-PVTZ
  Basis Set:

    Orbital Energies (a.u.)
    -----------------------

    Doubly Occupied:

       1A    -26.341113     2A    -26.340850     3A    -26.336684
       4A    -20.602851     5A    -11.498053     6A    -11.320027
       7A    -11.298071     8A    -11.214699     9A     -1.750156
      10A     -1.646798    11A     -1.644368    12A     -1.443571
      13A     -1.086124    14A     -1.020352    15A     -0.931982
      16A     -0.842929    17A     -0.838661    18A     -0.827172
      19A     -0.799024    20A     -0.726570    21A     -0.719713
      22A     -0.701471    23A     -0.681914    24A     -0.667874
      25A     -0.662217    26A     -0.650281    27A     -0.640306
      28A     -0.587659    29A     -0.566690    30A     -0.527209
      31A     -0.516834    32A     -0.357661

  @DF-RHF Final Energy:  -527.74008923656993

   => Energetics <=

    Nuclear Repulsion Energy =            414.3100391555681199
    One-Electron Energy =               -1552.5204880411756676
    Two-Electron Energy =                 610.4703596490375048
    DFT Exchange-Correlation Energy =       0.0000000000000000
    Empirical Dispersion Energy =           0.0000000000000000
    PCM Polarization Energy =               0.0000000000000000
    EFP Energy =                            0.0000000000000000
    Total Energy =                       -527.7400892365700429
    Molecular point group: c1
  Basis Set: CC-PVTZ
  Basis Set:

  -Total Gradient:
     Atom            X                  Y                   Z
    ------   -----------------  -----------------  -----------------
       1       -0.000003831478     0.000003236236    -0.000002551525
       2        0.000008166583    -0.000011586727     0.000008555972
       3       -0.000021683330     0.000024610533    -0.000009884399
       4        0.000003074246     0.000002279374    -0.000010267988
       5        0.000064022333    -0.000025666142    -0.000006787289
       6        0.000002404614    -0.000003720299     0.000007236186
       7        0.004056135183    -0.004009117008     0.000738648104
       8       -0.000681758900     0.002331374630    -0.004506613999
       9       -0.003404915805     0.002977391508     0.000265312206
      10        0.000012433223    -0.000006651673    -0.000031426725
      11       -0.000052534213    -0.001304431079     0.003509446162
      12        0.000041581614    -0.000009764319    -0.000017298565
      13       -0.000023094076     0.000032044963     0.000055631862

  **** Optimization is complete! (in 9 steps) ****
    Final optimized geometry and variables:
    Molecular point group: c1

    Geometry (in Angstrom), charge = 0, multiplicity = 1:

    H           -3.839479453474     1.036693042346    -0.364742325038
    C           -3.160557957283     0.399329998460     0.163760291093
    C           -2.068079856724    -0.014117067878    -0.430284186946
    H           -3.396150184773     0.112219574289     1.169656520685
    O           -1.192021856374    -0.852656345696     0.169013786517
    H           -1.817484850642     0.274628613005    -1.435420475263
    C            0.053878289765    -1.025026711034    -0.410290878284
    C            1.038692160482     0.058573425147     0.006178630299
    H           -0.017265194606    -1.006783150742    -1.491428154294
    H            0.442901685493    -1.974477363533    -0.080141470958
    F            2.271950349435    -0.377964934835    -0.153296682678
    F            0.903278100437     1.153078371733    -0.713669526172
    F            0.898486775559     0.392508806895     1.265082817463

  Mulliken Charges: (a.u.)
   Center  Symbol    Alpha    Beta     Spin     Total
       1     H     0.42508  0.42508  0.00000  0.14984
       2     C     3.19464  3.19464  0.00000 -0.38928
       3     C     2.96255  2.96255  0.00000  0.07491
       4     H     0.42422  0.42422  0.00000  0.15156
       5     O     4.14263  4.14263  0.00000 -0.28527
       6     H     0.43430  0.43430  0.00000  0.13140
       7     C     3.02128  3.02128  0.00000 -0.04255
       8     C     2.67658  2.67658  0.00000  0.64685
       9     H     0.45573  0.45573  0.00000  0.08854
      10     H     0.43396  0.43396  0.00000  0.13207
      11     F     4.61161  4.61161  0.00000 -0.22322
      12     F     4.61198  4.61198  0.00000 -0.22395
      13     F     4.60545  4.60545  0.00000 -0.21089

   Total alpha = 32.00000, Total beta = 32.00000, Total charge =  0.00000

*** Psi4 exiting successfully. Buy a developer a beer!
