  ==> Input File <==

--------------------------------------------------------------------------
set {
	reference rhf
	basis cc-pvtz
}

set_num_threads( 4 )
memory 2 gb

molecule MOL {
0 1

H	 -2.171709	 0.882708	 0.500286
C	 -2.016894	 0.001719	 -0.114152
O	 -0.775228	 0.000056	 -0.739966
H	 -2.760846	 0.003757	 -0.898169
H	 -2.174774	 -0.879864	 0.498643
C	 -0.317953	 1.162343	 -1.402739
C	 1.050542	 0.762796	 -1.943544
C	 -1.245167	 1.538152	 -2.560185
C	 -0.170718	 2.332019	 -0.427662
H	 0.954680	 -0.081083	 -2.614947
H	 1.703407	 0.473282	 -1.129878
H	 1.510179	 1.583302	 -2.481572
H	 -1.397696	 0.686061	 -3.211602
H	 -0.807380	 2.339241	 -3.143699
H	 -2.211943	 1.880800	 -2.213055
H	 0.433254	 2.039009	 0.422664
H	 0.314038	 3.167621	 -0.918231
H	 -1.128525	 2.681421	 -0.062846

	symmetry c1
}
set optking {
	frozen_dihedral = ("
		6 3 2 5
	")
}

ee = optimize('scf')
oeprop('DIPOLE', 'QUADRUPOLE', 'MULLIKEN_CHARGES')
f=open( 'psi4out.xyz', 'w' )
f.write( "18  " )
f.write( str(ee) + "\n" )
f.write( MOL.save_string_xyz() )
f.close()
--------------------------------------------------------------------------

    Molecular point group: c1
  Charge       = 0
  Multiplicity = 1
  Basis Set: CC-PVTZ
  Basis Set:
  @DF-RHF Final Energy:  -271.27421187546867
    Total Energy =                       -271.2742118754684952
    Molecular point group: c1
  Basis Set: CC-PVTZ
  Basis Set:
  Basis Set: CC-PVTZ
  Basis Set:
  @DF-RHF Final Energy:  -271.27621825205836
    Total Energy =                       -271.2762182520581291
  Basis Set: CC-PVTZ
  Basis Set:
  Basis Set: CC-PVTZ
  Basis Set:
  @DF-RHF Final Energy:  -271.27666387401337
    Total Energy =                       -271.2766638740133658
  Basis Set: CC-PVTZ
  Basis Set:
  Basis Set: CC-PVTZ
  Basis Set:
  @DF-RHF Final Energy:  -271.27664096175840
    Total Energy =                       -271.2766409617585737
  Basis Set: CC-PVTZ
  Basis Set:
  Basis Set: CC-PVTZ
  Basis Set:
  @DF-RHF Final Energy:  -271.27667828131200
    Total Energy =                       -271.2766782813121154
  Basis Set: CC-PVTZ
  Basis Set:
  Basis Set: CC-PVTZ
  Basis Set:
  @DF-RHF Final Energy:  -271.27668011633813
    Total Energy =                       -271.2766801163382411
  Basis Set: CC-PVTZ
  Basis Set:
  Basis Set: CC-PVTZ
  Basis Set:
  @DF-RHF Final Energy:  -271.27667966392363
    Total Energy =                       -271.2766796639234030
  Basis Set: CC-PVTZ
  Basis Set:
  Charge       = 0
  Multiplicity = 1
  Basis Set: CC-PVTZ
  Basis Set:

    Orbital Energies (a.u.)
    -----------------------

    Doubly Occupied:

       1A    -20.540471     2A    -11.280147     3A    -11.258191
       4A    -11.207812     5A    -11.206381     6A    -11.201829
       7A     -1.373541     8A     -1.074596     9A     -0.946995
      10A     -0.940621    11A     -0.913196    12A     -0.753534
      13A     -0.656659    14A     -0.646771    15A     -0.639600
      16A     -0.593350    17A     -0.575349    18A     -0.553315
      19A     -0.534687    20A     -0.525039    21A     -0.515162
      22A     -0.489063    23A     -0.487852    24A     -0.440839
      25A     -0.407235

  @DF-RHF Final Energy:  -271.27668113553193

   => Energetics <=

    Nuclear Repulsion Energy =            272.6927840741041109
    One-Electron Energy =                -908.4144539614014775
    Two-Electron Energy =                 364.4449887517656634
    DFT Exchange-Correlation Energy =       0.0000000000000000
    Empirical Dispersion Energy =           0.0000000000000000
    PCM Polarization Energy =               0.0000000000000000
    EFP Energy =                            0.0000000000000000
    Total Energy =                       -271.2766811355317031
    Molecular point group: c1
  Basis Set: CC-PVTZ
  Basis Set:

  -Total Gradient:
     Atom            X                  Y                   Z
    ------   -----------------  -----------------  -----------------
       1       -0.000000548954    -0.000005565290    -0.000002433596
       2       -0.000128292748    -0.000268450714    -0.000306555422
       3       -0.000202885014    -0.000179876214    -0.000496373057
       4        0.000003095844     0.000002054923    -0.000001659160
       5        0.000161588862     0.000284016847     0.000415471332
       6        0.000165847048     0.000160280408     0.000399852254
       7        0.000004036305     0.000003424012    -0.000002614806
       8       -0.000003714497    -0.000000291171    -0.000001052345
       9       -0.000001204336     0.000000982647    -0.000006466266
      10        0.000000981744    -0.000000797002     0.000000953081
      11       -0.000002945645     0.000002050796     0.000000471360
      12        0.000000862037    -0.000000746054    -0.000003328788
      13        0.000002369957     0.000000013450     0.000003834080
      14       -0.000001341997     0.000002136271    -0.000001404147
      15       -0.000002206269    -0.000000345369     0.000001236430
      16        0.000002168364     0.000000801194     0.000002181626
      17       -0.000001082053    -0.000002662842    -0.000000494676
      18        0.000003271353     0.000002974108    -0.000001617900

  **** Optimization is complete! (in 8 steps) ****
    Final optimized geometry and variables:
    Molecular point group: c1

    Geometry (in Angstrom), charge = 0, multiplicity = 1:

    H           -1.664476174843    -0.098350514463     1.638253047724
    C           -1.452568175204    -0.963723684095     1.019017683654
    O           -0.168597275725    -0.940968412410     0.485016975548
    H           -2.215766172085    -1.033338915342     0.250439468884
    H           -1.516953062570    -1.843531171314     1.643602488610
    C            0.285296971686     0.205725243066    -0.206826964176
    C            1.644780177833    -0.209151656180    -0.758587331371
    C           -0.655077924746     0.571292915574    -1.356345817446
    C            0.453054525969     1.387014415618     0.751190719274
    H            1.535523880028    -1.055102355802    -1.425331117641
    H            2.302061461808    -0.500901256975     0.050678673222
    H            2.107334473138     0.604845926256    -1.304019697483
    H           -0.817767407906    -0.285760991189    -1.998958992038
    H           -0.223081310528     1.366010886155    -1.952513652015
    H           -1.616896948954     0.918128305636    -0.999006143693
    H            1.077000602661     1.102452895550     1.589577722048
    H            0.924469331011     2.218794828783     0.241174409053
    H           -0.495847110760     1.739064527965     1.135764145172

  Mulliken Charges: (a.u.)
   Center  Symbol    Alpha    Beta     Spin     Total
       1     H     0.47039  0.47039  0.00000  0.05922
       2     C     3.04459  3.04459  0.00000 -0.08919
       3     O     4.19027  4.19027  0.00000 -0.38054
       4     H     0.46757  0.46757  0.00000  0.06486
       5     H     0.44117  0.44117  0.00000  0.11766
       6     C     2.87416  2.87416  0.00000  0.25168
       7     C     3.14153  3.14153  0.00000 -0.28306
       8     C     3.16689  3.16689  0.00000 -0.33377
       9     C     3.16079  3.16079  0.00000 -0.32158
      10     H     0.44931  0.44931  0.00000  0.10139
      11     H     0.44840  0.44840  0.00000  0.10320
      12     H     0.45934  0.45934  0.00000  0.08133
      13     H     0.44498  0.44498  0.00000  0.11003
      14     H     0.44718  0.44718  0.00000  0.10564
      15     H     0.44881  0.44881  0.00000  0.10239
      16     H     0.44588  0.44588  0.00000  0.10824
      17     H     0.44955  0.44955  0.00000  0.10090
      18     H     0.44920  0.44920  0.00000  0.10160

   Total alpha = 25.00000, Total beta = 25.00000, Total charge = -0.00000
