  ==> Input File <==

--------------------------------------------------------------------------
set {
	reference rhf
	basis cc-pvtz
}

set_num_threads( 4 )
memory 2 gb

molecule MOL {
0 1

H	 -2.181836	 -1.524636	 -2.093308
N	 -1.269447	 -1.557864	 -1.691420
C	 -1.300109	 -1.161230	 -0.295754
H	 -0.687944	 -0.934961	 -2.210883
C	 0.088926	 -1.205941	 0.298577
H	 -1.709554	 -0.164312	 -0.137468
H	 -1.924803	 -1.859759	 0.250016
O	 0.881195	 -0.248324	 -0.336237
H	 0.040316	 -1.002305	 1.367381
H	 0.514254	 -2.197230	 0.159395
C	 2.208068	 -0.234417	 0.074171
H	 2.725499	 -1.027054	 -0.446768
H	 2.688377	 0.712084	 -0.164856
H	 2.295137	 -0.403407	 1.144883

	symmetry c1
}
set optking {
	frozen_dihedral = ("
		5 8 11 13
	")
}

ee = optimize('scf')
oeprop('DIPOLE', 'QUADRUPOLE', 'MULLIKEN_CHARGES')
f=open( 'psi4out.xyz', 'w' )
f.write( "14  " )
f.write( str(ee) + "\n" )
f.write( MOL.save_string_xyz() )
f.close()
--------------------------------------------------------------------------

    Molecular point group: c1
  Charge       = 0
  Multiplicity = 1
  Basis Set: CC-PVTZ
  Basis Set:
  @DF-RHF Final Energy:  -248.22436372520954
    Total Energy =                       -248.2243637252091730
    Molecular point group: c1
  Basis Set: CC-PVTZ
  Basis Set:
  Basis Set: CC-PVTZ
  Basis Set:
  @DF-RHF Final Energy:  -248.22514963151269
    Total Energy =                       -248.2251496315124655
  Basis Set: CC-PVTZ
  Basis Set:
  Basis Set: CC-PVTZ
  Basis Set:
  @DF-RHF Final Energy:  -248.22533023706853
    Total Energy =                       -248.2253302370685333
  Basis Set: CC-PVTZ
  Basis Set:
  Charge       = 0
  Multiplicity = 1
  Basis Set: CC-PVTZ
  Basis Set:

    Orbital Energies (a.u.)
    -----------------------

    Doubly Occupied:

       1A    -20.549904     2A    -15.523496     3A    -11.264031
       4A    -11.263493     5A    -11.239769     6A     -1.383486
       7A     -1.175930     8A     -1.000526     9A     -0.907691
      10A     -0.815695    11A     -0.685394    12A     -0.675496
      13A     -0.646557    14A     -0.611704    15A     -0.607722
      16A     -0.541914    17A     -0.532328    18A     -0.497103
      19A     -0.474295    20A     -0.419054    21A     -0.383856

  @DF-RHF Final Energy:  -248.22533085773313

   => Energetics <=

    Nuclear Repulsion Energy =            194.6435110857901805
    One-Electron Energy =                -723.3387920647916189
    Two-Electron Energy =                 280.4699501212685391
    DFT Exchange-Correlation Energy =       0.0000000000000000
    Empirical Dispersion Energy =           0.0000000000000000
    PCM Polarization Energy =               0.0000000000000000
    EFP Energy =                            0.0000000000000000
    Total Energy =                       -248.2253308577328426
    Molecular point group: c1
  Basis Set: CC-PVTZ
  Basis Set:

  -Total Gradient:
     Atom            X                  Y                   Z
    ------   -----------------  -----------------  -----------------
       1        0.000003636001     0.000004005905    -0.000017365177
       2       -0.000015648582    -0.000006416159    -0.000019533769
       3        0.000059095640     0.000024414768    -0.000033431106
       4       -0.000001039884     0.000008001768    -0.000011411834
       5       -0.000393960927     0.001278613922     0.001527495888
       6        0.000001757647     0.000001826968     0.000004035939
       7        0.000038100644     0.000001223521     0.000019202811
       8        0.000453942913    -0.001585087816    -0.001551665514
       9       -0.000006344508    -0.000018923829     0.000025415076
      10        0.000005004334     0.000030539178    -0.000029836839
      11        0.000615466760    -0.000592164311    -0.001985578422
      12       -0.000025827458    -0.000001648173    -0.000021682900
      13       -0.000701313018     0.000856806089     0.002094409596
      14       -0.000032869556    -0.000001191832    -0.000000053749

  **** Optimization is complete! (in 4 steps) ****
    Final optimized geometry and variables:
    Molecular point group: c1

    Geometry (in Angstrom), charge = 0, multiplicity = 1:

    H           -2.317826299717    -0.638218934282    -1.692011739547
    N           -1.405692714018    -0.675390124670    -1.289920516554
    C           -1.435657205802    -0.284705639117     0.107442955804
    H           -0.822802816826    -0.051397263279    -1.806509308612
    C           -0.047611325920    -0.338293107901     0.703142786344
    H           -1.840049769859     0.713705826516     0.269555612103
    H           -2.064250824880    -0.982260748692     0.650024967338
    O            0.748035863257     0.620133785686     0.073121574618
    H           -0.095101661713    -0.137998224347     1.772185668225
    H            0.371386913841    -1.331864781356     0.560044083986
    C            2.080149076983     0.626747389041     0.471414629879
    H            2.645980191999    -0.162349975685    -0.016470280282
    H            2.502953886254     1.587366967811     0.213035608505
    H            2.172070935916     0.500516456048     1.547701609235

  Mulliken Charges: (a.u.)
   Center  Symbol    Alpha    Beta     Spin     Total
       1     H     0.43025  0.43025  0.00000  0.13951
       2     N     3.69419  3.69419  0.00000 -0.38838
       3     C     3.02278  3.02278  0.00000 -0.04556
       4     H     0.42241  0.42241  0.00000  0.15519
       5     C     2.96861  2.96861  0.00000  0.06278
       6     H     0.46464  0.46464  0.00000  0.07071
       7     H     0.45870  0.45870  0.00000  0.08260
       8     O     4.18109  4.18109  0.00000 -0.36218
       9     H     0.46861  0.46861  0.00000  0.06278
      10     H     0.46975  0.46975  0.00000  0.06050
      11     C     3.03073  3.03073  0.00000 -0.06146
      12     H     0.46516  0.46516  0.00000  0.06968
      13     H     0.44973  0.44973  0.00000  0.10054
      14     H     0.47335  0.47335  0.00000  0.05330

   Total alpha = 21.00000, Total beta = 21.00000, Total charge = -0.00000
