                              Psi4 1.0.54 Driver

  ==> Input File <==

--------------------------------------------------------------------------
set {
	reference rhf
	basis cc-pvtz
}

set_num_threads( 4 )
memory 2 gb

molecule MOL {
0 1

H	 -3.268214	 -0.875720	 0.463107
C	 -2.806015	 0.000007	 0.024886
N	 -1.391133	 0.000016	 0.301321
H	 -3.029448	 0.000055	 -1.045738
H	 -3.268126	 0.875758	 0.463150
C	 -0.850950	 1.338158	 0.406929
C	 -0.642918	 -0.782927	 -0.658213
H	 -0.964683	 1.889336	 -0.531217
H	 -1.397473	 1.877585	 1.171399
C	 0.619241	 1.295359	 0.779384
H	 -1.037561	 -1.791973	 -0.671340
H	 -0.742466	 -0.376339	 -1.668968
C	 0.827272	 -0.825726	 -0.285758
H	 1.013883	 2.304405	 0.792511
H	 0.718789	 0.888771	 1.790138
N	 1.367456	 0.512416	 -0.180151
H	 1.373796	 -1.365153	 -1.050229
H	 0.941006	 -1.376904	 0.652387
C	 2.782338	 0.512425	 0.096284
H	 3.157129	 1.528305	 0.105441
H	 3.310020	 -0.030906	 -0.677604
H	 3.026993	 0.053272	 1.058303

	symmetry c1
}
set optking {
	frozen_dihedral = ("
		6 3 2 4
	")
}

ee,wfn = optimize('scf', return_wfn=True)
oeprop( wfn, 'DIPOLE', 'QUADRUPOLE', 'MULLIKEN_CHARGES')
f=open( 'psi4out.xyz', 'w' )
f.write( "22  " )
f.write( str(ee) + "\n" )
f.write( MOL.save_string_xyz() )
f.close()
--------------------------------------------------------------------------

    Molecular point group: c1
  Charge       = 0
  Multiplicity = 1
  Basis Set: CC-PVTZ
  Basis Set:
  @DF-RHF Final Energy:  -344.34792908821635
    Total Energy =                       -344.3479290882162331
    Molecular point group: c1
  Basis Set: CC-PVTZ
  Basis Set:
  Basis Set: CC-PVTZ
  Basis Set:
  @DF-RHF Final Energy:  -344.34828161107919
    Total Energy =                       -344.3482816110788463
  Basis Set: CC-PVTZ
  Basis Set:
  Basis Set: CC-PVTZ
  Basis Set:
  @DF-RHF Final Energy:  -344.34833689188446
    Total Energy =                       -344.3483368918845144
  Basis Set: CC-PVTZ
  Basis Set:
  Charge       = 0
  Multiplicity = 1
  Basis Set: CC-PVTZ
  Basis Set:

    Orbital Energies (a.u.)
    -----------------------

    Doubly Occupied:

       1A    -15.537534     2A    -15.535114     3A    -11.237551
       4A    -11.237523     5A    -11.236812     6A    -11.236724
       7A    -11.234257     8A    -11.234150     9A     -1.256474
      10A     -1.205132    11A     -1.026171    12A     -0.992614
      13A     -0.912546    14A     -0.868553    15A     -0.836312
      16A     -0.754218    17A     -0.666528    18A     -0.637959
      19A     -0.632568    20A     -0.627036    21A     -0.621688
      22A     -0.581298    23A     -0.550904    24A     -0.548104
      25A     -0.543316    26A     -0.517912    27A     -0.497537
      28A     -0.490180    29A     -0.467500    30A     -0.457304
      31A     -0.351563    32A     -0.343012

  @DF-RHF Final Energy:  -344.34833950772253

   => Energetics <=

    Nuclear Repulsion Energy =            421.7086736593964247
    One-Electron Energy =               -1302.3618409212676852
    Two-Electron Energy =                 536.3048277541488460
    DFT Exchange-Correlation Energy =       0.0000000000000000
    Empirical Dispersion Energy =           0.0000000000000000
    PCM Polarization Energy =               0.0000000000000000
    EFP Energy =                            0.0000000000000000
    Total Energy =                       -344.3483395077223577
    Molecular point group: c1
  Basis Set: CC-PVTZ
  Basis Set:

  -Total Gradient:
     Atom            X                  Y                   Z
    ------   -----------------  -----------------  -----------------
       1        0.000024349089    -0.000023520852     0.000007153826
       2       -0.000529611334     0.005876577894     0.001363602130
       3        0.000815846390    -0.001243691277    -0.004718401005
       4        0.000122331530    -0.004551944097    -0.000043700794
       5        0.000057107660    -0.000010297864     0.000033865556
       6       -0.000561116901     0.000000908622     0.003399085933
       7        0.000046344157    -0.000002412315    -0.000087309497
       8        0.000013299076    -0.000051834584     0.000045205528
       9       -0.000009963823    -0.000029788089    -0.000004692197
      10        0.000021691557     0.000015485651    -0.000037447962
      11       -0.000004198776     0.000023530133     0.000022736066
      12       -0.000007337190    -0.000007614271     0.000031868119
      13        0.000008280509    -0.000008075925     0.000008083635
      14        0.000056208609     0.000025866861     0.000012028057
      15       -0.000031687495     0.000005172063    -0.000023574172
      16       -0.000022283566     0.000002094185     0.000006571235
      17        0.000043405971    -0.000005993527    -0.000006285044
      18       -0.000002488809     0.000002515069    -0.000007983157
      19       -0.000016888017    -0.000013490514     0.000003725923
      20       -0.000015641121    -0.000001321058    -0.000001817832
      21       -0.000003685413    -0.000003303281    -0.000003649591
      22       -0.000003962102     0.000001137173     0.000000935243

  **** Optimization is complete! (in 4 steps) ****
    Final optimized geometry and variables:
    Molecular point group: c1

    Geometry (in Angstrom), charge = 0, multiplicity = 1:

    H           -3.232892713541    -1.159348176676     0.376094835006
    C           -2.804249977952    -0.249901943215    -0.032248288227
    N           -1.381033546838    -0.222536664217     0.210495880036
    H           -3.051750250909    -0.237733279785    -1.095734419862
    H           -3.287542948008     0.588934573537     0.449028368859
    C           -0.827225454130     1.106964947441     0.331763482240
    C           -0.635687485645    -1.037713550074    -0.718695154932
    H           -0.921396059357     1.674496361217    -0.599274283822
    H           -1.370296453854     1.644231722369     1.099396364031
    C            0.639218672164     1.037604015418     0.716818361343
    H           -1.046235593935    -2.041126625575    -0.712476508665
    H           -0.719897517697    -0.655091191244    -1.740334984552
    C            0.829990680723    -1.093837089058    -0.330641245532
    H            1.052292247594     2.039322927286     0.733039044952
    H            0.721510150499     0.629953764629     1.728865061178
    N            1.383199685575     0.239584813858    -0.233662261186
    H            1.378548345083    -1.647420846459    -1.083601286576
    H            0.928536933223    -1.635743585986     0.614692851646
    C            2.796520567891     0.226770392822     0.049781524219
    H            3.182187230906     1.238641165702     0.052118342592
    H            3.322205724726    -0.328931365578    -0.716714934786
    H            3.031696264119    -0.226641948643     1.017002506435

  Mulliken Charges: (a.u.)
   Center  Symbol    Alpha    Beta     Spin     Total
       1     H     0.45097  0.45097  0.00000  0.09807
       2     C     3.09687  3.09687  0.00000 -0.19374
       3     N     3.61357  3.61357  0.00000 -0.22714
       4     H     0.46787  0.46787  0.00000  0.06426
       5     H     0.45399  0.45399  0.00000  0.09201
       6     C     3.03325  3.03325  0.00000 -0.06650
       7     C     3.03492  3.03492  0.00000 -0.06984
       8     H     0.46991  0.46991  0.00000  0.06018
       9     H     0.45404  0.45404  0.00000  0.09192
      10     C     3.03617  3.03617  0.00000 -0.07234
      11     H     0.45414  0.45414  0.00000  0.09173
      12     H     0.46794  0.46794  0.00000  0.06413
      13     C     3.03609  3.03609  0.00000 -0.07218
      14     H     0.45398  0.45398  0.00000  0.09204
      15     H     0.46852  0.46852  0.00000  0.06297
      16     N     3.61311  3.61311  0.00000 -0.22622
      17     H     0.45394  0.45394  0.00000  0.09213
      18     H     0.46833  0.46833  0.00000  0.06334
      19     C     3.09835  3.09835  0.00000 -0.19671
      20     H     0.45194  0.45194  0.00000  0.09613
      21     H     0.45195  0.45195  0.00000  0.09610
      22     H     0.47017  0.47017  0.00000  0.05966

   Total alpha = 32.00000, Total beta = 32.00000, Total charge = -0.00000

*** Psi4 exiting successfully. Buy a developer a beer!
