  ==> Input File <==

--------------------------------------------------------------------------
set {
	reference rhf
	basis 6-31G*
}

set_num_threads( 4 )
memory 2 gb

molecule MOL {
0 1

O	 -1.292816	 -1.311544	 -1.940699
C	 -0.531882	 -1.243214	 -1.029626
C	 0.731070	 -2.058266	 -0.885038
O	 -0.698257	 -0.426125	 0.001050
C	 0.962323	 -3.013407	 -2.049166
H	 0.666707	 -2.592803	 0.058029
H	 1.556796	 -1.361565	 -0.775276
H	 0.144225	 -3.716959	 -2.144525
H	 1.878940	 -3.573313	 -1.897069
H	 1.042691	 -2.474564	 -2.985389
C	 -1.853104	 0.406779	 0.000512
C	 -3.066105	 -0.499277	 -0.000959
H	 -1.828410	 1.043074	 -0.873618
H	 -1.829857	 1.042383	 0.875188
H	 -3.071820	 -1.133106	 -0.880383
H	 -3.972708	 0.097145	 -0.001528
H	 -3.073405	 -1.133813	 0.877999

	symmetry c1
}
set optking {
	frozen_dihedral = ("
		2 4 11 13
	")
}

ee = optimize('scf')
oeprop('DIPOLE', 'QUADRUPOLE', 'MULLIKEN_CHARGES')
f=open( 'psi4out.xyz', 'w' )
f.write( "17  " )
f.write( str(ee) + "\n" )
f.write( MOL.save_string_xyz() )
f.close()
--------------------------------------------------------------------------

    Molecular point group: c1
  Charge       = 0
  Multiplicity = 1
  Basis Set: 6-31G*
  Basis Set:
  @DF-RHF Final Energy:  -344.90276865150025
    Total Energy =                       -344.9027686515003097
    Molecular point group: c1
  Basis Set: 6-31G*
  Basis Set:
  Basis Set: 6-31G*
  Basis Set:
  @DF-RHF Final Energy:  -344.90898855088057
    Total Energy =                       -344.9089885508800535
  Basis Set: 6-31G*
  Basis Set:
  Basis Set: 6-31G*
  Basis Set:
  @DF-RHF Final Energy:  -344.90976088193531
    Total Energy =                       -344.9097608819349716
  Basis Set: 6-31G*
  Basis Set:
  Basis Set: 6-31G*
  Basis Set:
  @DF-RHF Final Energy:  -344.90793370089989
    Total Energy =                       -344.9079337009000028
  Basis Set: 6-31G*
  Basis Set:
  Basis Set: 6-31G*
  Basis Set:
  @DF-RHF Final Energy:  -344.90985003444172
    Total Energy =                       -344.9098500344417175
  Basis Set: 6-31G*
  Basis Set:
  Basis Set: 6-31G*
  Basis Set:
  @DF-RHF Final Energy:  -344.90986105071852
    Total Energy =                       -344.9098610507185185
  Basis Set: 6-31G*
  Basis Set:
  Basis Set: 6-31G*
  Basis Set:
  @DF-RHF Final Energy:  -344.90986234707691
    Total Energy =                       -344.9098623470769098
  Basis Set: 6-31G*
  Basis Set:
  Charge       = 0
  Multiplicity = 1
  Basis Set: 6-31G*
  Basis Set:

    Orbital Energies (a.u.)
    -----------------------

    Doubly Occupied:

       1A    -20.600446     2A    -20.544290     3A    -11.372166
       4A    -11.286499     5A    -11.237171     6A    -11.216680
       7A    -11.215632     8A     -1.466165     9A     -1.362116
      10A     -1.068590    11A     -1.027771    12A     -0.917112
      13A     -0.855582    14A     -0.753684    15A     -0.701834
      16A     -0.679905    17A     -0.660394    18A     -0.621823
      19A     -0.611160    20A     -0.567674    21A     -0.546586
      22A     -0.531723    23A     -0.520932    24A     -0.516189
      25A     -0.495872    26A     -0.490064    27A     -0.451191
      28A     -0.433685

  @DF-RHF Final Energy:  -344.90986275819603

   => Energetics <=

    Nuclear Repulsion Energy =            319.3134671950982693
    One-Electron Energy =               -1102.9407845617363364
    Two-Electron Energy =                 438.7174546084420967
    DFT Exchange-Correlation Energy =       0.0000000000000000
    Empirical Dispersion Energy =           0.0000000000000000
    PCM Polarization Energy =               0.0000000000000000
    EFP Energy =                            0.0000000000000000
    Total Energy =                       -344.9098627581959704
    Molecular point group: c1
  Basis Set: 6-31G*
  Basis Set:

  -Total Gradient:
     Atom            X                  Y                   Z
    ------   -----------------  -----------------  -----------------
       1        0.000049650930     0.000014230768    -0.000021990157
       2       -0.001788495245    -0.002649357647     0.001778659798
       3       -0.000011546345    -0.000024914289     0.000020173215
       4        0.003000038396     0.004587014756    -0.002124781343
       5        0.000007551003     0.000016029625    -0.000002192951
       6        0.000009663424     0.000014937130    -0.000008329380
       7        0.000008690810     0.000013770375    -0.000009409584
       8       -0.000003204658    -0.000006033167     0.000000104814
       9       -0.000003591681    -0.000002151237     0.000001568433
      10       -0.000002393026    -0.000001297491     0.000001501631
      11       -0.003279853357    -0.004864451586    -0.001702285774
      12       -0.000069896862     0.000008498764     0.000003547951
      13        0.002056258126     0.002876651992     0.002066582820
      14        0.000001938144     0.000021228691    -0.000011194710
      15        0.000000240011     0.000012438181     0.000014462504
      16        0.000014726872    -0.000011722400    -0.000010056966
      17        0.000010223460    -0.000004872466     0.000003639699

  **** Optimization is complete! (in 8 steps) ****
    Final optimized geometry and variables:
    Molecular point group: c1

    Geometry (in Angstrom), charge = 0, multiplicity = 1:

    O           -0.374834811285    -0.146914414072    -1.180269613492
    C            0.325261856120    -0.090288894477    -0.220553000058
    C            1.569670283773    -0.918417166120    -0.004130845943
    O            0.117241008701     0.731794631269     0.798334446838
    C            1.879576277217    -1.848569149608    -1.170205332080
    H            1.432336442570    -1.474312937744     0.918701440868
    H            2.389327906127    -0.231397859136     0.183038970444
    H            1.066007912145    -2.542700142053    -1.342206622660
    H            2.778617025704    -2.419624520156    -0.964176897830
    H            2.032765271028    -1.289085044556    -2.085051681529
    C           -1.065147841981     1.528448115070     0.818827272040
    C           -2.341379574400     0.720373246739     0.968676969869
    H           -1.075575719035     2.165864297372    -0.054880310608
    H           -0.925100634073     2.162629843413     1.682953349064
    H           -2.538644332865     0.116747739993     0.094880503504
    H           -3.176058999298     1.399250704766     1.114836844265
    H           -2.276961028609     0.074910168857     1.838692359177

  Mulliken Charges: (a.u.)
   Center  Symbol    Alpha    Beta     Spin     Total
       1     O     4.28750  4.28750  0.00000 -0.57501
       2     C     2.60451  2.60451  0.00000  0.79098
       3     C     3.20494  3.20494  0.00000 -0.40988
       4     O     4.31539  4.31539  0.00000 -0.63078
       5     C     3.23877  3.23877  0.00000 -0.47753
       6     H     0.40120  0.40120  0.00000  0.19761
       7     H     0.40024  0.40024  0.00000  0.19952
       8     H     0.41014  0.41014  0.00000  0.17972
       9     H     0.41825  0.41825  0.00000  0.16350
      10     H     0.41016  0.41016  0.00000  0.17968
      11     C     3.00088  3.00088  0.00000 -0.00177
      12     C     3.26170  3.26170  0.00000 -0.52340
      13     H     0.40880  0.40880  0.00000  0.18240
      14     H     0.40994  0.40994  0.00000  0.18012
      15     H     0.39458  0.39458  0.00000  0.21084
      16     H     0.41746  0.41746  0.00000  0.16508
      17     H     0.41555  0.41555  0.00000  0.16890

   Total alpha = 28.00000, Total beta = 28.00000, Total charge = -0.00000
