  ==> Input File <==

--------------------------------------------------------------------------
set {
	reference rhf
	basis 6-31G*
}

set_num_threads( 4 )
memory 2 gb

molecule MOL {
0 1

H	 3.463771	 0.168298	 -0.756243
C	 2.752674	 -0.045734	 0.033351
C	 1.322923	 0.120767	 -0.479465
H	 2.934561	 -1.059086	 0.377456
H	 2.958358	 0.631174	 0.856809
C	 0.306652	 -0.176050	 0.621399
H	 1.144658	 -0.551717	 -1.312180
H	 1.166477	 1.131798	 -0.836680
N	 -1.068537	 -0.011044	 0.085269
H	 0.372515	 -1.192590	 0.973735
H	 0.391664	 0.520566	 1.441230
O	 -1.826679	 0.663198	 0.711361
O	 -1.329648	 -0.593627	 -0.922919

	symmetry c1
}
set optking {
	frozen_dihedral = ("
		12 9 6 3
	")
}

ee = optimize('scf')
oeprop('DIPOLE', 'QUADRUPOLE', 'MULLIKEN_CHARGES')
f=open( 'psi4out.xyz', 'w' )
f.write( "13  " )
f.write( str(ee) + "\n" )
f.write( MOL.save_string_xyz() )
f.close()
--------------------------------------------------------------------------

    Molecular point group: c1
  Charge       = 0
  Multiplicity = 1
  Basis Set: 6-31G*
  Basis Set:
  @DF-RHF Final Energy:  -321.73501661298906
    Total Energy =                       -321.7350166129891704
    Molecular point group: c1
  Basis Set: 6-31G*
  Basis Set:
  Basis Set: 6-31G*
  Basis Set:
  @DF-RHF Final Energy:  -321.73039635944883
    Total Energy =                       -321.7303963594489460
  Basis Set: 6-31G*
  Basis Set:
  Basis Set: 6-31G*
  Basis Set:
  @DF-RHF Final Energy:  -321.73269772771857
    Total Energy =                       -321.7326977277182891
  Basis Set: 6-31G*
  Basis Set:
  Basis Set: 6-31G*
  Basis Set:
  @DF-RHF Final Energy:  -321.73517622280076
    Total Energy =                       -321.7351762228008170
  Basis Set: 6-31G*
  Basis Set:
  Basis Set: 6-31G*
  Basis Set:
  @DF-RHF Final Energy:  -321.73536557978548
    Total Energy =                       -321.7353655797856504
  Basis Set: 6-31G*
  Basis Set:
  Basis Set: 6-31G*
  Basis Set:
  @DF-RHF Final Energy:  -321.73541452581640
    Total Energy =                       -321.7354145258161680
  Basis Set: 6-31G*
  Basis Set:
  Basis Set: 6-31G*
  Basis Set:
  @DF-RHF Final Energy:  -321.73541831774787
    Total Energy =                       -321.7354183177479854
  Basis Set: 6-31G*
  Basis Set:
  Charge       = 0
  Multiplicity = 1
  Basis Set: 6-31G*
  Basis Set:

    Orbital Energies (a.u.)
    -----------------------

    Doubly Occupied:

       1A    -20.602986     2A    -20.599621     3A    -15.847813
       4A    -11.299971     5A    -11.253539     6A    -11.238740
       7A     -1.631323     8A     -1.416679     9A     -1.134013
      10A     -1.027991    11A     -0.884453    12A     -0.830042
      13A     -0.759993    14A     -0.739507    15A     -0.724526
      16A     -0.666398    17A     -0.605319    18A     -0.584192
      19A     -0.550912    20A     -0.522645    21A     -0.511543
      22A     -0.484397    23A     -0.473301    24A     -0.449037

  @DF-RHF Final Energy:  -321.73541828344133

   => Energetics <=

    Nuclear Repulsion Energy =            247.1535429696902497
    One-Electron Energy =                -928.1000434217779684
    Two-Electron Energy =                 359.2110821686462145
    DFT Exchange-Correlation Energy =       0.0000000000000000
    Empirical Dispersion Energy =           0.0000000000000000
    PCM Polarization Energy =               0.0000000000000000
    EFP Energy =                            0.0000000000000000
    Total Energy =                       -321.7354182834415610
    Molecular point group: c1
  Basis Set: 6-31G*
  Basis Set:

  -Total Gradient:
     Atom            X                  Y                   Z
    ------   -----------------  -----------------  -----------------
       1        0.000004680487    -0.000013331714    -0.000001005210
       2       -0.000008348605     0.000003561565    -0.000005997233
       3        0.000054416622    -0.000187751631    -0.000043829338
       4        0.000012458833    -0.000007319000     0.000009027606
       5       -0.000000281168    -0.000005594867    -0.000005728448
       6       -0.000085120704     0.000083388568    -0.000035733046
       7       -0.000014369617     0.000063555908     0.000021736804
       8        0.000030144016     0.000014833412    -0.000030479135
       9        0.000026541794     0.000364585265    -0.000204411847
      10        0.000019117320    -0.000021012106     0.000129488298
      11       -0.000058993659     0.000010762923    -0.000047263307
      12       -0.000059209533    -0.000217738722     0.000285880508
      13        0.000078964227    -0.000087939599    -0.000071685652

  **** Optimization is complete! (in 8 steps) ****
    Final optimized geometry and variables:
    Molecular point group: c1

    Geometry (in Angstrom), charge = 0, multiplicity = 1:

    H            3.488430725008     0.165642579165    -0.753759328104
    C            2.766583750762    -0.037412954674     0.028938882913
    C            1.343597138482     0.118857551443    -0.507065193874
    H            2.944909112629    -1.046217705563     0.389016698481
    H            2.962664608164     0.649590455218     0.846355812954
    C            0.319374275443    -0.164262328224     0.585083523999
    H            1.175031055973    -0.556611289510    -1.334872736310
    H            1.197575842769     1.128226317383    -0.879194538740
    N           -1.072875824216    -0.005074485884     0.083980294492
    H            0.378679984915    -1.188977161585     0.927898372869
    H            0.405828280477     0.504876218326     1.425151480038
    O           -1.814349719870     0.670333982400     0.727408103409
    O           -1.360562544005    -0.582116604108    -0.920276952758

  Mulliken Charges: (a.u.)
   Center  Symbol    Alpha    Beta     Spin     Total
       1     H     0.40747  0.40747  0.00000  0.18507
       2     C     3.24899  3.24899  0.00000 -0.49798
       3     C     3.17116  3.17116  0.00000 -0.34232
       4     H     0.41551  0.41551  0.00000  0.16898
       5     H     0.41543  0.41543  0.00000  0.16914
       6     C     3.08733  3.08733  0.00000 -0.17466
       7     H     0.39364  0.39364  0.00000  0.21273
       8     H     0.40563  0.40563  0.00000  0.18874
       9     N     3.22206  3.22206  0.00000  0.55587
      10     H     0.38773  0.38773  0.00000  0.22454
      11     H     0.38593  0.38593  0.00000  0.22813
      12     O     4.22836  4.22836  0.00000 -0.45671
      13     O     4.23076  4.23076  0.00000 -0.46151

   Total alpha = 24.00000, Total beta = 24.00000, Total charge = -0.00000
