  ==> Input File <==

--------------------------------------------------------------------------
set {
	reference rhf
	basis 6-31G*
}

set_num_threads( 4 )
memory 2 gb

molecule MOL {
0 1

H	 -3.420663	 1.227371	 -1.044276
O	 -3.452007	 0.283848	 -0.965577
C	 -3.181085	 -0.079926	 0.364119
C	 -1.765924	 0.277073	 0.805136
H	 -3.327791	 -1.152017	 0.410903
H	 -3.905698	 0.375695	 1.036898
C	 -0.677594	 -0.417312	 -0.014550
H	 -1.637766	 1.358238	 0.744969
H	 -1.659588	 0.017670	 1.857098
C	 0.738335	 -0.034840	 0.421385
H	 -0.814977	 -0.178223	 -1.064632
H	 -0.802730	 -1.495410	 0.071702
C	 1.822265	 -0.738362	 -0.399735
H	 0.853533	 1.043532	 0.342250
H	 0.871597	 -0.279636	 1.474438
C	 1.449537	 -1.000471	 -1.863473
H	 2.080346	 -1.681808	 0.078802
H	 2.724770	 -0.131079	 -0.377191
C	 0.302867	 -1.993997	 -2.059579
H	 2.328782	 -1.377387	 -2.380341
H	 1.196701	 -0.057679	 -2.344534
H	 0.522495	 -2.943065	 -1.577737
H	 0.139241	 -2.190444	 -3.114791
H	 -0.630848	 -1.623201	 -1.649881

	symmetry c1
}
set optking {
	frozen_dihedral = ("
		17 13 10 7
	")
}

ee = optimize('scf')
oeprop('DIPOLE', 'QUADRUPOLE', 'MULLIKEN_CHARGES')
f=open( 'psi4out.xyz', 'w' )
f.write( "24  " )
f.write( str(ee) + "\n" )
f.write( MOL.save_string_xyz() )
f.close()
--------------------------------------------------------------------------

    Molecular point group: c1
  Charge       = 0
  Multiplicity = 1
  Basis Set: 6-31G*
  Basis Set:
  @DF-RHF Final Energy:  -349.21554955962591
    Total Energy =                       -349.2155495596260835
    Molecular point group: c1
  Basis Set: 6-31G*
  Basis Set:
  Basis Set: 6-31G*
  Basis Set:
  @DF-RHF Final Energy:  -349.23293167275295
    Total Energy =                       -349.2329316727531250
  Basis Set: 6-31G*
  Basis Set:
  Basis Set: 6-31G*
  Basis Set:
  @DF-RHF Final Energy:  -349.23759047050510
    Total Energy =                       -349.2375904705054381
  Basis Set: 6-31G*
  Basis Set:
  Basis Set: 6-31G*
  Basis Set:
  @DF-RHF Final Energy:  -349.23897533288073
    Total Energy =                       -349.2389753328805000
  Basis Set: 6-31G*
  Basis Set:
  @DF-RHF Final Energy:  -349.23918207602850
    Total Energy =                       -349.2391820760285555
  Basis Set: 6-31G*
  Basis Set:
  @DF-RHF Final Energy:  -349.23972558365460
    Total Energy =                       -349.2397255836542627
  Basis Set: 6-31G*
  Basis Set:
  Basis Set: 6-31G*
  Basis Set:
  @DF-RHF Final Energy:  -349.23978623584844
    Total Energy =                       -349.2397862358484417
  Basis Set: 6-31G*
  Basis Set:
  Basis Set: 6-31G*
  Basis Set:
  @DF-RHF Final Energy:  -349.23979194864449
    Total Energy =                       -349.2397919486447790
  Basis Set: 6-31G*
  Basis Set:
  Charge       = 0
  Multiplicity = 1
  Basis Set: 6-31G*
  Basis Set:

    Orbital Energies (a.u.)
    -----------------------

    Doubly Occupied:

       1A    -20.553967     2A    -11.267922     3A    -11.217509
       4A    -11.213695     5A    -11.213362     6A    -11.212063
       7A    -11.210773     8A    -11.203425     9A     -1.360502
      10A     -1.086203    11A     -1.044773    12A     -0.983932
      13A     -0.919304    14A     -0.848639    15A     -0.807669
      16A     -0.766644    17A     -0.680360    18A     -0.652344
      19A     -0.619832    20A     -0.612910    21A     -0.604185
      22A     -0.585338    23A     -0.555092    24A     -0.539931
      25A     -0.519849    26A     -0.505274    27A     -0.497409
      28A     -0.479202    29A     -0.470574    30A     -0.455356
      31A     -0.448649    32A     -0.442442    33A     -0.419668

  @DF-RHF Final Energy:  -349.23979284923956

   => Energetics <=

    Nuclear Repulsion Energy =            394.1419412811044936
    One-Electron Energy =               -1254.7658739023950147
    Two-Electron Energy =                 511.3841397720511850
    DFT Exchange-Correlation Energy =       0.0000000000000000
    Empirical Dispersion Energy =           0.0000000000000000
    PCM Polarization Energy =               0.0000000000000000
    EFP Energy =                            0.0000000000000000
    Total Energy =                       -349.2397928492393930
    Molecular point group: c1
  Basis Set: 6-31G*
  Basis Set:

  -Total Gradient:
     Atom            X                  Y                   Z
    ------   -----------------  -----------------  -----------------
       1       -0.000000013991     0.000001256393     0.000006186586
       2       -0.000004318096    -0.000015687843     0.000010072977
       3       -0.000017251175     0.000013657673     0.000010570023
       4       -0.000015757608    -0.000051734540     0.000015950382
       5        0.000005060771     0.000010027558    -0.000017914657
       6       -0.000018414416    -0.000002141522     0.000006028597
       7       -0.000006558997     0.003487861847    -0.002982610647
       8        0.000017758247    -0.000026669861    -0.000023105024
       9       -0.000005042492     0.000008614123     0.000005526591
      10        0.000928340686    -0.004285097946     0.005091112388
      11       -0.000044797483    -0.000037777056     0.000103389101
      12        0.000004674368     0.000027094114    -0.000040054245
      13       -0.005043908597    -0.001945963950    -0.005294418808
      14        0.000004433194     0.000000379026    -0.000025733456
      15        0.000014486657     0.000013328528    -0.000015209709
      16        0.000000722564     0.000093721963    -0.000083552475
      17        0.004151508607     0.002795698970     0.003225372363
      18       -0.000031569423    -0.000016746856     0.000011320146
      19       -0.000061550860    -0.000046895827    -0.000010940213
      20        0.000009536676     0.000000548512    -0.000001664232
      21        0.000073056105    -0.000019933484    -0.000011721396
      22       -0.000030344959    -0.000004903004     0.000012546653
      23       -0.000041761243     0.000009043596     0.000032813226
      24        0.000111711475    -0.000007680414    -0.000023964171

  **** Optimization is complete! (in 9 steps) ****
    Final optimized geometry and variables:
    Molecular point group: c1

    Geometry (in Angstrom), charge = 0, multiplicity = 1:

    H           -2.827455890789     1.869683358433    -0.407831280555
    O           -2.919841813024     0.931668578643    -0.313269314668
    C           -2.602308879019     0.565098288654     1.005481146543
    C           -1.141618306035     0.819521268791     1.360901901631
    H           -2.826017604763    -0.492029790599     1.078066153533
    H           -3.251693864127     1.082470662055     1.709595589162
    C           -0.157347460655     0.034704613625     0.491302485784
    H           -0.936714735895     1.887098327567     1.275530800747
    H           -0.994968503400     0.565899480691     2.409367616585
    C            1.299352889668     0.339413124517     0.850909982516
    H           -0.346226535285     0.269042176425    -0.549321508071
    H           -0.358023399561    -1.028064500038     0.611849576917
    C            2.403340950780    -0.373873412051     0.040832428733
    H            1.441595002718     1.412972318853     0.734281488474
    H            1.462294945183     0.133502202186     1.906137523897
    C            2.179276612407    -0.581402124289    -1.465488750897
    H            2.663222689510    -1.316201416097     0.519424090146
    H            3.298393061708     0.233268273016     0.158754749319
    C            1.419534097598    -1.854553011550    -1.846542200769
    H            3.153689790198    -0.621545000750    -1.945493926010
    H            1.678919269328     0.287766318840    -1.886256575287
    H            1.931699994661    -2.734022720700    -1.465895046304
    H            1.356388189825    -1.952990940737    -2.926215534651
    H            0.408951079408    -1.867941715343    -1.458193429028

  Mulliken Charges: (a.u.)
   Center  Symbol    Alpha    Beta     Spin     Total
       1     H     0.28333  0.28333  0.00000  0.43333
       2     O     4.36836  4.36836  0.00000 -0.73673
       3     C     2.99624  2.99624  0.00000  0.00753
       4     C     3.16842  3.16842  0.00000 -0.33683
       5     H     0.41634  0.41634  0.00000  0.16732
       6     H     0.42809  0.42809  0.00000  0.14383
       7     C     3.15627  3.15627  0.00000 -0.31253
       8     H     0.42838  0.42838  0.00000  0.14325
       9     H     0.42232  0.42232  0.00000  0.15536
      10     C     3.15210  3.15210  0.00000 -0.30419
      11     H     0.40944  0.40944  0.00000  0.18113
      12     H     0.42328  0.42328  0.00000  0.15344
      13     C     3.15486  3.15486  0.00000 -0.30972
      14     H     0.42597  0.42597  0.00000  0.14805
      15     H     0.42279  0.42279  0.00000  0.15442
      16     C     3.15669  3.15669  0.00000 -0.31338
      17     H     0.42297  0.42297  0.00000  0.15407
      18     H     0.42148  0.42148  0.00000  0.15704
      19     C     3.24074  3.24074  0.00000 -0.48148
      20     H     0.42096  0.42096  0.00000  0.15808
      21     H     0.42183  0.42183  0.00000  0.15635
      22     H     0.42323  0.42323  0.00000  0.15353
      23     H     0.42061  0.42061  0.00000  0.15879
      24     H     0.41532  0.41532  0.00000  0.16936

   Total alpha = 33.00000, Total beta = 33.00000, Total charge =  0.00000
