  ==> Input File <==

--------------------------------------------------------------------------
set {
	reference rhf
	basis 6-31G*
}

set_num_threads( 4 )
memory 2 gb

molecule MOL {
0 1

H	 2.544203	 -2.043033	 0.619725
O	 3.271734	 -1.877466	 0.038040
C	 2.973260	 -2.366754	 -1.244756
C	 1.944480	 -1.520534	 -1.986545
H	 3.910075	 -2.361706	 -1.786997
H	 2.637603	 -3.401663	 -1.189281
C	 0.563876	 -1.498602	 -1.326001
H	 2.326353	 -0.506167	 -2.067776
H	 1.854339	 -1.907730	 -3.000114
C	 -0.460103	 -0.685511	 -2.122978
H	 0.653693	 -1.087140	 -0.324504
H	 0.199782	 -2.519993	 -1.214041
C	 -1.881880	 -0.701458	 -1.549710
H	 -0.115821	 0.344027	 -2.202786
H	 -0.494304	 -1.072824	 -3.139107
C	 -2.037799	 -0.007733	 -0.193645
H	 -2.544062	 -0.217650	 -2.264736
H	 -2.225533	 -1.731658	 -1.469536
C	 -3.489788	 0.042957	 0.286558
H	 -1.647575	 1.006718	 -0.262384
H	 -1.437153	 -0.514969	 0.557514
C	 -4.216917	 1.317354	 -0.141063
H	 -4.025645	 -0.823308	 -0.095450
H	 -3.513059	 -0.038752	 1.371301
H	 -4.239342	 1.411634	 -1.223113
H	 -5.243387	 1.322503	 0.212445
H	 -3.726170	 2.201406	 0.256408

	symmetry c1
}
set optking {
	frozen_dihedral = ("
		20 16 19 22
	")
}

ee = optimize('scf')
oeprop('DIPOLE', 'QUADRUPOLE', 'MULLIKEN_CHARGES')
f=open( 'psi4out.xyz', 'w' )
f.write( "27  " )
f.write( str(ee) + "\n" )
f.write( MOL.save_string_xyz() )
f.close()
--------------------------------------------------------------------------

    Molecular point group: c1
  Charge       = 0
  Multiplicity = 1
  Basis Set: 6-31G*
  Basis Set:
  @DF-RHF Final Energy:  -388.27811683397152
    Total Energy =                       -388.2781168339715805
    Molecular point group: c1
  Basis Set: 6-31G*
  Basis Set:
  Basis Set: 6-31G*
  Basis Set:
  @DF-RHF Final Energy:  -388.27832283165571
    Total Energy =                       -388.2783228316554869
  Basis Set: 6-31G*
  Basis Set:
  Basis Set: 6-31G*
  Basis Set:
  @DF-RHF Final Energy:  -388.27840271316683
    Total Energy =                       -388.2784027131665425
  Basis Set: 6-31G*
  Basis Set:
  Basis Set: 6-31G*
  Basis Set:
  @DF-RHF Final Energy:  -388.27839513701440
    Total Energy =                       -388.2783951370146269
  Basis Set: 6-31G*
  Basis Set:
  Basis Set: 6-31G*
  Basis Set:
  @DF-RHF Final Energy:  -388.27840679276102
    Total Energy =                       -388.2784067927606202
  Basis Set: 6-31G*
  Basis Set:
  Basis Set: 6-31G*
  Basis Set:
  @DF-RHF Final Energy:  -388.27840897994537
    Total Energy =                       -388.2784089799451976
  Basis Set: 6-31G*
  Basis Set:
  Charge       = 0
  Multiplicity = 1
  Basis Set: 6-31G*
  Basis Set:

    Orbital Energies (a.u.)
    -----------------------

    Doubly Occupied:

       1A    -20.552289     2A    -11.267034     3A    -11.219787
       4A    -11.217094     5A    -11.216115     6A    -11.215631
       7A    -11.215197     8A    -11.214370     9A    -11.209508
      10A     -1.359045    11A     -1.094907    12A     -1.060625
      13A     -1.010096    14A     -0.947085    15A     -0.890479
      16A     -0.824270    17A     -0.799775    18A     -0.775075
      19A     -0.693697    20A     -0.647141    21A     -0.632580
      22A     -0.616678    23A     -0.606153    24A     -0.589267
      25A     -0.578685    26A     -0.554095    27A     -0.539043
      28A     -0.527353    29A     -0.508499    30A     -0.491826
      31A     -0.486330    32A     -0.475658    33A     -0.469243
      34A     -0.460864    35A     -0.448863    36A     -0.440024
      37A     -0.422950

  @DF-RHF Final Energy:  -388.27840902293980

   => Energetics <=

    Nuclear Repulsion Energy =            460.8189517119922698
    One-Electron Energy =               -1439.6400600437461890
    Two-Electron Energy =                 590.5426993088142353
    DFT Exchange-Correlation Energy =       0.0000000000000000
    Empirical Dispersion Energy =           0.0000000000000000
    PCM Polarization Energy =               0.0000000000000000
    EFP Energy =                            0.0000000000000000
    Total Energy =                       -388.2784090229397407
    Molecular point group: c1
  Basis Set: 6-31G*
  Basis Set:

  -Total Gradient:
     Atom            X                  Y                   Z
    ------   -----------------  -----------------  -----------------
       1       -0.000002219198     0.000001808167     0.000003060804
       2       -0.000009178999    -0.000002798509     0.000000248546
       3        0.000008062379     0.000005256220    -0.000006686543
       4       -0.000008843395    -0.000011758305    -0.000014508714
       5        0.000000249682     0.000000471413    -0.000001284374
       6        0.000000545578     0.000001093921    -0.000000331145
       7       -0.000011192910     0.000025482295     0.000015016942
       8        0.000002952792    -0.000005894931     0.000002608317
       9        0.000002154003    -0.000000700227    -0.000005739945
      10       -0.000009161413    -0.000041675311    -0.000011423963
      11       -0.000002108155     0.000004337839     0.000022330097
      12       -0.000007642376     0.000014772227     0.000000075999
      13        0.000013355531     0.000032812146    -0.000008879427
      14       -0.000014111149    -0.000002093048     0.000018030224
      15        0.000007998524    -0.000000327982    -0.000009170933
      16        0.001480160762     0.000143736826     0.004652371819
      17        0.000004672146    -0.000002349623    -0.000014766451
      18        0.000007890028     0.000005883814    -0.000001740914
      19       -0.001225197362    -0.001437740034    -0.003566251858
      20       -0.000939568487     0.000200714885    -0.003132965151
      21        0.000031043456     0.000002977449     0.000012686195
      22        0.000697589076     0.001062128399     0.002046749581
      23       -0.000026795576    -0.000006961553     0.000015033426
      24        0.000001103019     0.000007598150    -0.000014982365
      25        0.000010166248    -0.000001588148     0.000000414432
      26        0.000001582250    -0.000004415908    -0.000009259189
      27       -0.000013506461     0.000009229831     0.000009364588

  **** Optimization is complete! (in 7 steps) ****
    Final optimized geometry and variables:
    Molecular point group: c1

    Geometry (in Angstrom), charge = 0, multiplicity = 1:

    H            2.880936872939    -1.198459845824     1.505835057334
    O            3.604433493144    -1.028596211294     0.920360438939
    C            3.304563451095    -1.525391355692    -0.359195746776
    C            2.265282542236    -0.690872235167    -1.099591572982
    H            4.238970801262    -1.514136248652    -0.905452053793
    H            2.978275581406    -2.562992161881    -0.298391752764
    C            0.887811996949    -0.677365523654    -0.432400226381
    H            2.638381325326     0.326233415071    -1.187092233496
    H            2.173369128956    -1.083200338095    -2.111015238021
    C           -0.146069350199     0.126253516702    -1.226237343165
    H            0.979438353031    -0.262541314534     0.567612076585
    H            0.531774611648    -1.701104545751    -0.315934236774
    C           -1.565189498572     0.096018021902    -0.648025195600
    H            0.188205414703     1.159161095354    -1.305763029359
    H           -0.179525279179    -0.260250987971    -2.242763809797
    C           -1.717972961967     0.767641444147     0.722616824749
    H           -2.231428343642     0.585379635431    -1.355289820997
    H           -1.904002373244    -0.936562141174    -0.580164768761
    C           -3.185458025388     0.869561222561     1.176485787388
    H           -1.291207021414     1.767013226638     0.659530814722
    H           -1.142228960820     0.222617046552     1.463760918224
    C           -3.870306112575     2.164764802685     0.736916938797
    H           -3.743260644289     0.012668782807     0.806395443340
    H           -3.232922259166     0.812232648610     2.260889660339
    H           -3.846623643923     2.285689516359    -0.342541463718
    H           -4.911078152231     2.182609955976     1.045696027422
    H           -3.379227498258     3.028232258410     1.175836232558

  Mulliken Charges: (a.u.)
   Center  Symbol    Alpha    Beta     Spin     Total
       1     H     0.27991  0.27991  0.00000  0.44017
       2     O     4.37094  4.37094  0.00000 -0.74187
       3     C     2.99738  2.99738  0.00000  0.00523
       4     C     3.16087  3.16087  0.00000 -0.32174
       5     H     0.41444  0.41444  0.00000  0.17111
       6     H     0.43205  0.43205  0.00000  0.13590
       7     C     3.16336  3.16336  0.00000 -0.32671
       8     H     0.41499  0.41499  0.00000  0.17003
       9     H     0.42433  0.42433  0.00000  0.15134
      10     C     3.15215  3.15215  0.00000 -0.30429
      11     H     0.42294  0.42294  0.00000  0.15412
      12     H     0.42545  0.42545  0.00000  0.14910
      13     C     3.15501  3.15501  0.00000 -0.31002
      14     H     0.42169  0.42169  0.00000  0.15662
      15     H     0.42160  0.42160  0.00000  0.15679
      16     C     3.15538  3.15538  0.00000 -0.31077
      17     H     0.42076  0.42076  0.00000  0.15849
      18     H     0.42411  0.42411  0.00000  0.15178
      19     C     3.15453  3.15453  0.00000 -0.30907
      20     H     0.42244  0.42244  0.00000  0.15512
      21     H     0.42089  0.42089  0.00000  0.15821
      22     C     3.24007  3.24007  0.00000 -0.48014
      23     H     0.42163  0.42163  0.00000  0.15673
      24     H     0.42075  0.42075  0.00000  0.15850
      25     H     0.42175  0.42175  0.00000  0.15651
      26     H     0.41958  0.41958  0.00000  0.16084
      27     H     0.42099  0.42099  0.00000  0.15802

   Total alpha = 37.00000, Total beta = 37.00000, Total charge = -0.00000
