  ==> Input File <==

--------------------------------------------------------------------------
set {
	reference rhf
	basis 6-31G*
}

set_num_threads( 1 )
memory 2 gb

molecule MOL {
0 1

H	 -2.224295	 -0.699717	 0.289705
O	 -1.422729	 -0.573567	 -0.196946
C	 -0.731407	 0.539437	 0.309156
C	 0.680193	 0.672443	 -0.251532
H	 -1.319765	 1.404033	 0.030086
H	 -0.700012	 0.506517	 1.397677
C	 1.599139	 -0.492137	 0.118598
H	 0.616402	 0.758534	 -1.332349
H	 1.107032	 1.602637	 0.117369
H	 1.239738	 -1.428634	 -0.297334
H	 2.601428	 -0.335055	 -0.265730
H	 1.674954	 -0.608418	 1.197020

	symmetry c1
}
set optking {
	frozen_dihedral = ("
		8 4 3 2
	")
}

ee = energy('scf')
oeprop('DIPOLE', 'QUADRUPOLE', 'MULLIKEN_CHARGES')
f=open( 'psi4out.xyz', 'w' )
f.write( "12  " )
f.write( str(ee) + "\n" )
f.write( MOL.save_string_xyz() )
f.close()
--------------------------------------------------------------------------

    Molecular point group: c1

    Geometry (in Angstrom), charge = 0, multiplicity = 1:

       Center              X                  Y                   Z               Mass
    ------------   -----------------  -----------------  -----------------  -----------------
           H         -2.204940100926    -0.710907057402     0.287875649313     1.007825032070
           O         -1.403374100926    -0.584757057402    -0.198775350687    15.994914619560
           C         -0.712052100926     0.528246942598     0.307326649313    12.000000000000
           C          0.699547899074     0.661252942598    -0.253361350687    12.000000000000
           H         -1.300410100926     1.392842942598     0.028256649313     1.007825032070
           H         -0.680657100926     0.495326942598     1.395847649313     1.007825032070
           C          1.618493899074    -0.503327057402     0.116768649313    12.000000000000
           H          0.635756899074     0.747343942598    -1.334178350687     1.007825032070
           H          1.126386899074     1.591446942598     0.115539649313     1.007825032070
           H          1.259092899074    -1.439824057402    -0.299163350687     1.007825032070
           H          2.620782899074    -0.346245057402    -0.267559350687     1.007825032070
           H          1.694308899074    -0.619608057402     1.195190649313     1.007825032070

  Charge       = 0
  Multiplicity = 1
  Basis Set: 6-31G*
  Basis Set:

    Orbital Energies (a.u.)
    -----------------------

    Doubly Occupied:

       1A    -20.550773     2A    -11.267745     3A    -11.218005
       4A    -11.205203     5A     -1.358505     6A     -1.046807
       7A     -0.918502     8A     -0.799673     9A     -0.701848
      10A     -0.642191    11A     -0.588065    12A     -0.582137
      13A     -0.533756    14A     -0.499142    15A     -0.485591
      16A     -0.463403    17A     -0.429298

  @DF-RHF Final Energy:  -193.10859336565588

   => Energetics <=

    Nuclear Repulsion Energy =            132.4561846163022949
    One-Electron Energy =                -524.5485127202200601
    Two-Electron Energy =                 198.9837347382620578
    DFT Exchange-Correlation Energy =       0.0000000000000000
    Empirical Dispersion Energy =           0.0000000000000000
    PCM Polarization Energy =               0.0000000000000000
    EFP Energy =                            0.0000000000000000
    Total Energy =                       -193.1085933656557359

  Mulliken Charges: (a.u.)
   Center  Symbol    Alpha    Beta     Spin     Total
       1     H     0.28004  0.28004  0.00000  0.43991
       2     O     4.37183  4.37183  0.00000 -0.74365
       3     C     2.99309  2.99309  0.00000  0.01381
       4     C     3.16087  3.16087  0.00000 -0.32174
       5     H     0.42947  0.42947  0.00000  0.14106
       6     H     0.43410  0.43410  0.00000  0.13179
       7     C     3.24186  3.24186  0.00000 -0.48372
       8     H     0.41412  0.41412  0.00000  0.17177
       9     H     0.42138  0.42138  0.00000  0.15723
      10     H     0.40820  0.40820  0.00000  0.18360
      11     H     0.42050  0.42050  0.00000  0.15901
      12     H     0.42454  0.42454  0.00000  0.15092

   Total alpha = 17.00000, Total beta = 17.00000, Total charge = -0.00000
