                              Psi4 1.0.54 Driver

  ==> Input File <==

--------------------------------------------------------------------------
set {
	reference rhf
	basis cc-pvtz
}

set_num_threads( 4 )
memory 2 gb

molecule MOL {
0 1

O	 3.219313	 0.959291	 -0.614106
C	 2.698710	 0.058177	 -0.050237
C	 1.246364	 -0.005813	 0.348416
O	 3.344101	 -1.038700	 0.312317
C	 0.453207	 1.232821	 -0.049003
H	 0.839270	 -0.907818	 -0.092281
H	 1.216683	 -0.160521	 1.422434
C	 -0.998367	 1.217982	 0.432195
H	 0.481498	 1.345443	 -1.127236
H	 0.951413	 2.105557	 0.354893
C	 -1.882951	 0.151251	 -0.211235
H	 -1.429490	 2.193659	 0.228843
H	 -1.019755	 1.099323	 1.513279
C	 -3.342450	 0.243269	 0.226009
H	 -1.826223	 0.246578	 -1.293162
H	 -1.508033	 -0.839650	 0.027695
C	 -4.234517	 -0.821434	 -0.405970
H	 -3.730149	 1.228245	 -0.022691
H	 -3.398860	 0.159952	 1.308941
C	 -3.943383	 -1.046522	 -1.885954
H	 -4.111057	 -1.757779	 0.131372
H	 -5.275896	 -0.536022	 -0.283795
H	 -4.593229	 -1.807165	 -2.303212
H	 -2.918321	 -1.367508	 -2.038680
H	 -4.091399	 -0.135843	 -2.456887
C	 4.720529	 -1.114346	 0.001449
H	 4.874321	 -1.055557	 -1.065852
H	 5.057824	 -2.067950	 0.373977
H	 5.264321	 -0.313596	 0.480350

	symmetry c1
}
set optking {
	frozen_dihedral = ("
		21 17 14 11
	")
}

ee,wfn = optimize('scf', return_wfn=True)
oeprop( wfn, 'DIPOLE', 'QUADRUPOLE', 'MULLIKEN_CHARGES')
f=open( 'psi4out.xyz', 'w' )
f.write( "29  " )
f.write( str(ee) + "\n" )
f.write( MOL.save_string_xyz() )
f.close()
--------------------------------------------------------------------------

    Molecular point group: c1
  Charge       = 0
  Multiplicity = 1
  Basis Set: CC-PVTZ
  Basis Set:
  @DF-RHF Final Energy:  -501.21954205376267
    Total Energy =                       -501.2195420537618702
    Molecular point group: c1
  Basis Set: CC-PVTZ
  Basis Set:
  Basis Set: CC-PVTZ
  Basis Set:
  @DF-RHF Final Energy:  -501.21416786611746
    Total Energy =                       -501.2141678661166679
  Basis Set: CC-PVTZ
  Basis Set:
  Basis Set: CC-PVTZ
  Basis Set:
  @DF-RHF Final Energy:  -501.22111449257864
    Total Energy =                       -501.2211144925781809
  Basis Set: CC-PVTZ
  Basis Set:
  Basis Set: CC-PVTZ
  Basis Set:
  @DF-RHF Final Energy:  -501.22144153568684
    Total Energy =                       -501.2214415356868358
  Basis Set: CC-PVTZ
  Basis Set:
  @DF-RHF Final Energy:  -501.22110034657737
    Total Energy =                       -501.2211003465774866
  @DF-RHF Final Energy:  -501.22143341627077
    Total Energy =                       -501.2214334162715659
  Basis Set: CC-PVTZ
  Basis Set:
  @DF-RHF Final Energy:  -501.22147798244873
    Total Energy =                       -501.2214779824478228
  Basis Set: CC-PVTZ
  Basis Set:
  Basis Set: CC-PVTZ
  Basis Set:
  @DF-RHF Final Energy:  -501.22147392112879
    Total Energy =                       -501.2214739211287906
  Basis Set: CC-PVTZ
  Basis Set:
  Basis Set: CC-PVTZ
  Basis Set:
  @DF-RHF Final Energy:  -501.22147979411898
    Total Energy =                       -501.2214797941188635
  Basis Set: CC-PVTZ
  Basis Set:
  Charge       = 0
  Multiplicity = 1
  Basis Set: CC-PVTZ
  Basis Set:

    Orbital Energies (a.u.)
    -----------------------

    Doubly Occupied:

       1A    -20.595949     2A    -20.533793     3A    -11.364196
       4A    -11.278216     5A    -11.232864     6A    -11.216880
       7A    -11.215310     8A    -11.214331     9A    -11.213199
      10A    -11.212569    11A    -11.207377    12A     -1.471839
      13A     -1.365423    14A     -1.099061    15A     -1.066943
      16A     -1.018912    17A     -0.976498    18A     -0.928981
      19A     -0.873174    20A     -0.804572    21A     -0.776761
      22A     -0.765202    23A     -0.702553    24A     -0.685417
      25A     -0.675971    26A     -0.647293    27A     -0.626668
      28A     -0.607814    29A     -0.602747    30A     -0.586770
      31A     -0.559438    32A     -0.552733    33A     -0.541754
      34A     -0.527053    35A     -0.519921    36A     -0.505504
      37A     -0.502594    38A     -0.478424    39A     -0.472887
      40A     -0.461151    41A     -0.458416    42A     -0.450872
      43A     -0.444266    44A     -0.437697

  @DF-RHF Final Energy:  -501.22147981122703

   => Energetics <=

    Nuclear Repulsion Energy =            618.0404046654957710
    One-Electron Energy =               -1907.5637741167033710
    Two-Electron Energy =                 788.3018896399808000
    DFT Exchange-Correlation Energy =       0.0000000000000000
    Empirical Dispersion Energy =           0.0000000000000000
    PCM Polarization Energy =               0.0000000000000000
    EFP Energy =                            0.0000000000000000
    Total Energy =                       -501.2214798112267999
    Molecular point group: c1
  Basis Set: CC-PVTZ
  Basis Set:

  -Total Gradient:
     Atom            X                  Y                   Z
    ------   -----------------  -----------------  -----------------
       1       -0.000002003779     0.000005916883    -0.000001100206
       2        0.000002977106    -0.000001752631    -0.000001779792
       3       -0.000000368121    -0.000001079149    -0.000001576782
       4       -0.000003459514    -0.000003793369     0.000003543029
       5        0.000002294063    -0.000000082330     0.000006208269
       6       -0.000001994824    -0.000001373933    -0.000000699807
       7       -0.000000187743    -0.000000056890     0.000002782277
       8        0.000003016616     0.000000710623     0.000010901217
       9       -0.000002091301    -0.000001066820    -0.000000585274
      10        0.000000725207     0.000001681492     0.000000458963
      11       -0.000398134004     0.001629550154    -0.003002511238
      12        0.000008212968    -0.000005234682    -0.000000218657
      13       -0.000000197325     0.000004643184    -0.000001231464
      14       -0.000293861901    -0.001944111308     0.004818412198
      15       -0.000005075372    -0.000003063771    -0.000005668750
      16       -0.000001166143     0.000001444716    -0.000002266145
      17        0.004318314807    -0.001347587997    -0.004123031445
      18        0.000003817948    -0.000000485325    -0.000004533401
      19        0.000000072222     0.000001600076     0.000002871897
      20        0.000001116747     0.000003346494     0.000005647885
      21       -0.003629958735     0.001652500685     0.002293687774
      22       -0.000001930755     0.000000866164     0.000000439203
      23        0.000004285129     0.000002978881     0.000001287395
      24        0.000001427762     0.000004283596     0.000000890075
      25       -0.000000945872    -0.000003767944     0.000000281871
      26       -0.000003372373     0.000003773675    -0.000002886497
      27        0.000001387693    -0.000000817128    -0.000001545794
      28       -0.000003804991     0.000000187727     0.000000751074
      29        0.000000904492     0.000000788927     0.000001472128

  **** Optimization is complete! (in 10 steps) ****
    Final optimized geometry and variables:
    Molecular point group: c1

    Geometry (in Angstrom), charge = 0, multiplicity = 1:

    O            3.091535957737     1.035580679683    -0.205699193557
    C            2.527375356084     0.170041019234     0.371853169765
    C            1.041831522975     0.103173282789     0.618967049315
    O            3.147053711366    -0.878934820300     0.888392803774
    C            0.276977705570     1.288027153985     0.042462864427
    H            0.697821485460    -0.839656222322     0.211082363155
    H            0.899550975108     0.031581983161     1.692721387871
    C           -1.217288956385     1.275821390818     0.367471560317
    H            0.418963584289     1.317151967921    -1.032286328557
    H            0.715545001322     2.201188096508     0.425729505911
    C           -2.011067574423     0.139863299274    -0.276981161798
    H           -1.639680124330     2.221405004825     0.040409420847
    H           -1.352501670624     1.243623769277     1.446237951574
    C           -3.511910523386     0.257921034614    -0.015706323696
    H           -1.823865334534     0.143072314175    -1.345847473655
    H           -1.657611887860    -0.818687928923     0.094155650471
    C           -4.369862030508    -0.902319111968    -0.535237356636
    H           -3.861239803752     1.181559016936    -0.471765297309
    H           -3.685782456032     0.365713700107     1.050795827549
    C           -4.065431468604    -1.370549731042    -1.954313374643
    H           -4.311360693507    -1.736236862131     0.159168706471
    H           -5.407989758032    -0.584078353845    -0.494847314001
    H           -4.785443171485    -2.116661313090    -2.269980053004
    H           -3.080363018479    -1.813413905240    -2.034997102790
    H           -4.116400787450    -0.546051888454    -2.658483145699
    C            4.549789921587    -0.946178640720     0.731184599734
    H            4.815723900453    -0.968572149204    -0.315253893127
    H            4.859984447000    -1.858915397287     1.213485525779
    H            5.027073639867    -0.097229581172     1.197829723061

  Mulliken Charges: (a.u.)
   Center  Symbol    Alpha    Beta     Spin     Total
       1     O     4.19698  4.19698  0.00000 -0.39396
       2     C     2.80494  2.80494  0.00000  0.39012
       3     C     3.10141  3.10141  0.00000 -0.20283
       4     O     4.14723  4.14723  0.00000 -0.29446
       5     C     3.09237  3.09237  0.00000 -0.18474
       6     H     0.43914  0.43914  0.00000  0.12171
       7     H     0.43989  0.43989  0.00000  0.12022
       8     C     3.10431  3.10431  0.00000 -0.20863
       9     H     0.44640  0.44640  0.00000  0.10720
      10     H     0.43966  0.43966  0.00000  0.12069
      11     C     3.09745  3.09745  0.00000 -0.19490
      12     H     0.44537  0.44537  0.00000  0.10926
      13     H     0.45287  0.45287  0.00000  0.09425
      14     C     3.09544  3.09544  0.00000 -0.19089
      15     H     0.44926  0.44926  0.00000  0.10149
      16     H     0.45310  0.45310  0.00000  0.09379
      17     C     3.08890  3.08890  0.00000 -0.17781
      18     H     0.45243  0.45243  0.00000  0.09514
      19     H     0.44992  0.44992  0.00000  0.10015
      20     C     3.15624  3.15624  0.00000 -0.31248
      21     H     0.45336  0.45336  0.00000  0.09328
      22     H     0.45047  0.45047  0.00000  0.09905
      23     H     0.44500  0.44500  0.00000  0.10999
      24     H     0.45257  0.45257  0.00000  0.09486
      25     H     0.45326  0.45326  0.00000  0.09348
      26     C     3.03813  3.03813  0.00000 -0.07626
      27     H     0.45436  0.45436  0.00000  0.09129
      28     H     0.44528  0.44528  0.00000  0.10943
      29     H     0.45423  0.45423  0.00000  0.09154

   Total alpha = 44.00000, Total beta = 44.00000, Total charge =  0.00000

*** Psi4 exiting successfully. Buy a developer a beer!
