  ==> Input File <==

--------------------------------------------------------------------------
set {
	reference rhf
	basis 6-31G*
}

set_num_threads( 1 )
memory 2 gb

molecule MOL {
0 1

O	 -2.821601	 1.309235	 -0.001213
C	 -2.668563	 0.129746	 -0.000350
C	 -3.801572	 -0.864014	 -0.000442
O	 -1.481751	 -0.454642	 0.000584
H	 -4.417280	 -0.689587	 -0.874708
H	 -3.443784	 -1.883046	 -0.000565
H	 -4.417179	 -0.689832	 0.873954
C	 -0.334255	 0.388708	 0.000906
C	 0.891947	 -0.504646	 0.000751
H	 -0.365390	 1.025305	 -0.873475
H	 -0.365484	 1.024911	 0.875569
C	 2.191998	 0.301789	 0.000897
H	 0.855148	 -1.151283	 -0.871571
H	 0.855132	 -1.151660	 0.872805
C	 3.441114	 -0.581407	 0.000108
H	 2.215074	 0.954890	 -0.869742
H	 2.215465	 0.953923	 0.872248
C	 3.471619	 -1.570219	 1.164663
H	 4.326755	 0.048905	 0.037817
H	 3.494460	 -1.127350	 -0.939131
H	 3.453498	 -1.052458	 2.119445
H	 4.368220	 -2.181430	 1.137047
H	 2.615160	 -2.237757	 1.134971

	symmetry c1
}
set optking {
	frozen_dihedral = ("
		13 9 8 10,
		2 4 8 10,
		16 12 9 13,
		1 2 4 8
	")
}

ee = energy('scf')
oeprop('DIPOLE', 'QUADRUPOLE', 'MULLIKEN_CHARGES')
f=open( 'psi4out.xyz', 'w' )
f.write( "23  " )
f.write( str(ee) + "\n" )
f.write( MOL.save_string_xyz() )
f.close()
--------------------------------------------------------------------------

    Molecular point group: c1

    Geometry (in Angstrom), charge = 0, multiplicity = 1:

       Center              X                  Y                   Z               Mass
    ------------   -----------------  -----------------  -----------------  -----------------
           O         -2.675210053691     1.516397152707    -0.135805071834    15.994914619560
           C         -2.522172053691     0.336908152707    -0.134942071834    12.000000000000
           C         -3.655181053691    -0.656851847293    -0.135034071834    12.000000000000
           O         -1.335360053691    -0.247479847293    -0.134008071834    15.994914619560
           H         -4.270889053691    -0.482424847293    -1.009300071834     1.007825032070
           H         -3.297393053691    -1.675883847293    -0.135157071834     1.007825032070
           H         -4.270788053691    -0.482669847293     0.739361928166     1.007825032070
           C         -0.187864053691     0.595870152707    -0.133686071834    12.000000000000
           C          1.038337946309    -0.297483847293    -0.133841071834    12.000000000000
           H         -0.218999053691     1.232467152707    -1.008067071834     1.007825032070
           H         -0.219093053691     1.232073152707     0.740976928166     1.007825032070
           C          2.338388946309     0.508951152707    -0.133695071834    12.000000000000
           H          1.001538946309    -0.944120847293    -1.006163071834     1.007825032070
           H          1.001522946309    -0.944497847293     0.738212928166     1.007825032070
           C          3.587504946309    -0.374244847293    -0.134484071834    12.000000000000
           H          2.361464946309     1.162052152707    -1.004334071834     1.007825032070
           H          2.361855946309     1.161085152707     0.737655928166     1.007825032070
           C          3.618009946309    -1.363056847293     1.030070928166    12.000000000000
           H          4.473145946309     0.256067152707    -0.096775071834     1.007825032070
           H          3.640850946309    -0.920187847293    -1.073723071834     1.007825032070
           H          3.599888946309    -0.845295847293     1.984852928166     1.007825032070
           H          4.514610946309    -1.974267847293     1.002454928166     1.007825032070
           H          2.761550946309    -2.030594847293     1.000378928166     1.007825032070

  Charge       = 0
  Multiplicity = 1
  Basis Set: 6-31G*
  Basis Set:

    Orbital Energies (a.u.)
    -----------------------

    Doubly Occupied:

       1A    -20.602882     2A    -20.540473     3A    -11.374019
       4A    -11.281306     5A    -11.232371     6A    -11.224106
       7A    -11.223237     8A    -11.221695     9A    -11.212504
      10A     -1.467872    11A     -1.360656    12A     -1.096036
      13A     -1.041170    14A     -1.001048    15A     -0.930579
      16A     -0.855801    17A     -0.791775    18A     -0.771160
      19A     -0.691315    20A     -0.685120    21A     -0.670377
      22A     -0.637278    23A     -0.617813    24A     -0.599833
      25A     -0.575448    26A     -0.570759    27A     -0.548205
      28A     -0.537932    29A     -0.525380    30A     -0.506476
      31A     -0.496887    32A     -0.471349    33A     -0.467480
      34A     -0.466721    35A     -0.450995    36A     -0.435279

  @DF-RHF Final Energy:  -422.97660504500044

   => Energetics <=

    Nuclear Repulsion Energy =            455.8896899601976997
    One-Electron Energy =               -1479.3659594114019455
    Two-Electron Energy =                 600.4996644062039195
    DFT Exchange-Correlation Energy =       0.0000000000000000
    Empirical Dispersion Energy =           0.0000000000000000
    PCM Polarization Energy =               0.0000000000000000
    EFP Energy =                            0.0000000000000000
    Total Energy =                       -422.9766050450002695

  Mulliken Charges: (a.u.)
   Center  Symbol    Alpha    Beta     Spin     Total
       1     O     4.28392  4.28392  0.00000 -0.56783
       2     C     2.61531  2.61531  0.00000  0.76939
       3     C     3.28772  3.28772  0.00000 -0.57545
       4     O     4.31272  4.31272  0.00000 -0.62543
       5     H     0.39750  0.39750  0.00000  0.20500
       6     H     0.39993  0.39993  0.00000  0.20015
       7     H     0.39751  0.39751  0.00000  0.20498
       8     C     2.99459  2.99459  0.00000  0.01082
       9     C     3.16925  3.16925  0.00000 -0.33849
      10     H     0.41081  0.41081  0.00000  0.17837
      11     H     0.41075  0.41075  0.00000  0.17849
      12     C     3.16123  3.16123  0.00000 -0.32246
      13     H     0.41465  0.41465  0.00000  0.17070
      14     H     0.41126  0.41126  0.00000  0.17748
      15     C     3.15192  3.15192  0.00000 -0.30384
      16     H     0.41864  0.41864  0.00000  0.16272
      17     H     0.42098  0.42098  0.00000  0.15804
      18     C     3.24454  3.24454  0.00000 -0.48907
      19     H     0.41846  0.41846  0.00000  0.16308
      20     H     0.42145  0.42145  0.00000  0.15709
      21     H     0.42124  0.42124  0.00000  0.15752
      22     H     0.41735  0.41735  0.00000  0.16530
      23     H     0.41827  0.41827  0.00000  0.16345

   Total alpha = 36.00000, Total beta = 36.00000, Total charge = -0.00000
