                              Psi4 1.0.54 Driver

  ==> Input File <==

--------------------------------------------------------------------------
set {
	reference rhf
	basis cc-pvtz
}

set_num_threads( 4 )
memory 2 gb

molecule MOL {
0 1

O	 -2.071633	 -1.227563	 -0.223463
C	 -1.652164	 -0.152425	 0.058082
C	 -0.327811	 0.006324	 0.778296
C	 -2.402515	 1.108629	 -0.298924
C	 0.843231	 -0.001575	 -0.211665
H	 -0.319484	 0.928173	 1.350354
H	 -0.227804	 -0.823091	 1.466705
C	 2.197693	 0.138030	 0.476937
H	 0.722944	 0.805202	 -0.930230
H	 0.813976	 -0.926978	 -0.776588
C	 2.993629	 1.340861	 -0.017883
H	 2.049689	 0.219433	 1.550245
H	 2.774432	 -0.767998	 0.315612
H	 2.457239	 2.266647	 0.161673
H	 3.184643	 1.271575	 -1.083285
H	 3.950481	 1.410399	 0.486101
H	 -3.240910	 0.874416	 -0.936711
H	 -1.747554	 1.818823	 -0.790984
H	 -2.760419	 1.579708	 0.610998

	symmetry c1
}
set optking {
	frozen_dihedral = ("
		11 8 5 9
	")
}

ee,wfn = optimize('scf', return_wfn=True)
oeprop( wfn, 'DIPOLE', 'QUADRUPOLE', 'MULLIKEN_CHARGES')
f=open( 'psi4out.xyz', 'w' )
f.write( "19  " )
f.write( str(ee) + "\n" )
f.write( MOL.save_string_xyz() )
f.close()
--------------------------------------------------------------------------

    Molecular point group: c1
  Charge       = 0
  Multiplicity = 1
  Basis Set: CC-PVTZ
  Basis Set:
  @DF-RHF Final Energy:  -309.17130792609555
    Total Energy =                       -309.1713079260956079
    Molecular point group: c1
  Basis Set: CC-PVTZ
  Basis Set:
  Basis Set: CC-PVTZ
  Basis Set:
  @DF-RHF Final Energy:  -309.17155214529879
    Total Energy =                       -309.1715521452982784
  Basis Set: CC-PVTZ
  Basis Set:
  Basis Set: CC-PVTZ
  Basis Set:
  @DF-RHF Final Energy:  -309.17154221449192
    Total Energy =                       -309.1715422144919785
  Basis Set: CC-PVTZ
  Basis Set:
  Basis Set: CC-PVTZ
  Basis Set:
  @DF-RHF Final Energy:  -309.17161412563502
    Total Energy =                       -309.1716141256352444
  Basis Set: CC-PVTZ
  Basis Set:
  Basis Set: CC-PVTZ
  Basis Set:
  @DF-RHF Final Energy:  -309.17161363017573
    Total Energy =                       -309.1716136301758411
  Basis Set: CC-PVTZ
  Basis Set:
  Basis Set: CC-PVTZ
  Basis Set:
  @DF-RHF Final Energy:  -309.17161322623502
    Total Energy =                       -309.1716132262349106
  Basis Set: CC-PVTZ
  Basis Set:
  Charge       = 0
  Multiplicity = 1
  Basis Set: CC-PVTZ
  Basis Set:

    Orbital Energies (a.u.)
    -----------------------

    Doubly Occupied:

       1A    -20.537058     2A    -11.319327     3A    -11.228837
       4A    -11.228234     5A    -11.227041     6A    -11.222938
       7A    -11.214956     8A     -1.397081     9A     -1.090727
      10A     -1.029913    11A     -0.984878    12A     -0.891930
      13A     -0.807671    14A     -0.736123    15A     -0.662585
      16A     -0.646508    17A     -0.621418    18A     -0.614889
      19A     -0.592525    20A     -0.570949    21A     -0.557094
      22A     -0.533810    23A     -0.517774    24A     -0.504449
      25A     -0.483223    26A     -0.470216    27A     -0.468660
      28A     -0.398974

  @DF-RHF Final Energy:  -309.17162355727351

   => Energetics <=

    Nuclear Repulsion Energy =            302.4634774632837662
    One-Electron Energy =               -1018.1506307591173481
    Two-Electron Energy =                 406.5155297385601898
    DFT Exchange-Correlation Energy =       0.0000000000000000
    Empirical Dispersion Energy =           0.0000000000000000
    PCM Polarization Energy =               0.0000000000000000
    EFP Energy =                            0.0000000000000000
    Total Energy =                       -309.1716235572733922
    Molecular point group: c1
  Basis Set: CC-PVTZ
  Basis Set:

  -Total Gradient:
     Atom            X                  Y                   Z
    ------   -----------------  -----------------  -----------------
       1       -0.000007494474    -0.000046285379    -0.000031749917
       2       -0.000007485988     0.000043408838     0.000059910832
       3        0.000018936965     0.000000577609    -0.000019967816
       4       -0.000007332030     0.000003473432     0.000001516473
       5       -0.000371476657     0.000517493675     0.000659436668
       6       -0.000004360980     0.000004890235    -0.000006221914
       7       -0.000000081896    -0.000004167422     0.000005815030
       8        0.000283812115    -0.000400026184    -0.000525271388
       9        0.000247145254    -0.000316264295    -0.000419322663
      10        0.000003682486    -0.000018455266    -0.000008998433
      11       -0.000185075967     0.000226377740     0.000294969435
      12       -0.000004113851     0.000001520000     0.000007343767
      13        0.000012548278    -0.000014276430    -0.000013637369
      14       -0.000005564488    -0.000001638255     0.000001043814
      15       -0.000004244218    -0.000002161748     0.000000448651
      16        0.000018874726     0.000007355768     0.000009994486
      17       -0.000000654271    -0.000006080463    -0.000005434708
      18        0.000005540512     0.000006814346    -0.000005763925
      19        0.000007344476    -0.000002556196    -0.000004111027

  **** Optimization is complete! (in 7 steps) ****
    Final optimized geometry and variables:
    Molecular point group: c1

    Geometry (in Angstrom), charge = 0, multiplicity = 1:

    O           -2.024380073197    -1.409706852117    -0.303760422488
    C           -1.603777900935    -0.335582248840    -0.019707849132
    C           -0.280941701427    -0.180388195313     0.704001294222
    C           -2.351173552461     0.927197405577    -0.376903955138
    C            0.893873840030    -0.185716856553    -0.282776049563
    H           -0.272215318581     0.740049977638     1.278776452970
    H           -0.182160825471    -1.011742937825     1.390230081021
    C            2.265531754210    -0.044293997149     0.409314000526
    H            0.765786463667     0.617816251174    -1.001656658690
    H            0.853909867284    -1.106421522059    -0.851309464299
    C            3.071617567785     1.155723602341    -0.078686371548
    H            2.125607122753     0.041207067356     1.481877766275
    H            2.844270622555    -0.948003454873     0.256398521612
    H            2.536112400458     2.083138087337     0.097376961925
    H            3.270000654648     1.087097103339    -1.142971809288
    H            4.025150228059     1.221749463530     0.432507450213
    H           -3.186090699695     0.695462122511    -1.020152563845
    H           -1.693337430243     1.639032032175    -0.862645698052
    H           -2.714323464835     1.394974463690     0.532672744167

  Mulliken Charges: (a.u.)
   Center  Symbol    Alpha    Beta     Spin     Total
       1     O     4.17688  4.17688  0.00000 -0.35376
       2     C     2.85919  2.85919  0.00000  0.28162
       3     C     3.09956  3.09956  0.00000 -0.19913
       4     C     3.15541  3.15541  0.00000 -0.31081
       5     C     3.10381  3.10381  0.00000 -0.20762
       6     H     0.44895  0.44895  0.00000  0.10209
       7     H     0.43823  0.43823  0.00000  0.12355
       8     C     3.08901  3.08901  0.00000 -0.17802
       9     H     0.45201  0.45201  0.00000  0.09598
      10     H     0.43683  0.43683  0.00000  0.12634
      11     C     3.14799  3.14799  0.00000 -0.29598
      12     H     0.45326  0.45326  0.00000  0.09349
      13     H     0.44659  0.44659  0.00000  0.10683
      14     H     0.45628  0.45628  0.00000  0.08744
      15     H     0.45303  0.45303  0.00000  0.09393
      16     H     0.44770  0.44770  0.00000  0.10460
      17     H     0.43597  0.43597  0.00000  0.12806
      18     H     0.45092  0.45092  0.00000  0.09815
      19     H     0.44838  0.44838  0.00000  0.10323

   Total alpha = 28.00000, Total beta = 28.00000, Total charge =  0.00000

*** Psi4 exiting successfully. Buy a developer a beer!
