  ==> Input File <==

--------------------------------------------------------------------------
set {
	reference rhf
	basis 6-31G*
}

set_num_threads( 4 )
memory 2 gb

molecule MOL {
0 1

H	 1.148083	 -1.049780	 0.784252
O	 1.319262	 -0.618148	 -0.041729
C	 0.709265	 0.639550	 -0.033818
C	 -0.526026	 0.720965	 0.824091
H	 0.452033	 0.857357	 -1.064155
H	 1.413513	 1.409256	 0.280208
C	 -1.120109	 -0.303131	 1.402931
H	 -0.929143	 1.714208	 0.948377
H	 -0.756978	 -1.308052	 1.285890
H	 -2.001523	 -0.171671	 2.004433

	symmetry c1
}
set optking {
	frozen_dihedral = ("
		5 3 2 1
	")
}

ee = optimize('scf')
oeprop('DIPOLE', 'QUADRUPOLE', 'MULLIKEN_CHARGES')
f=open( 'psi4out.xyz', 'w' )
f.write( "10  " )
f.write( str(ee) + "\n" )
f.write( MOL.save_string_xyz() )
f.close()
--------------------------------------------------------------------------

    Molecular point group: c1
  Charge       = 0
  Multiplicity = 1
  Basis Set: 6-31G*
  Basis Set:
  @DF-RHF Final Energy:  -191.91438007059520
    Total Energy =                       -191.9143800705952003
    Molecular point group: c1
  Basis Set: 6-31G*
  Basis Set:
  Basis Set: 6-31G*
  Basis Set:
  @DF-RHF Final Energy:  -191.91475150935469
    Total Energy =                       -191.9147515093547440
  Basis Set: 6-31G*
  Basis Set:
  Basis Set: 6-31G*
  Basis Set:
  @DF-RHF Final Energy:  -191.91499141034379
    Total Energy =                       -191.9149914103438164
  Basis Set: 6-31G*
  Basis Set:
  Basis Set: 6-31G*
  Basis Set:
  @DF-RHF Final Energy:  -191.91500416302003
    Total Energy =                       -191.9150041630199439
  Basis Set: 6-31G*
  Basis Set:
  Basis Set: 6-31G*
  Basis Set:
  @DF-RHF Final Energy:  -191.91500655671470
    Total Energy =                       -191.9150065567147294
  Basis Set: 6-31G*
  Basis Set:
  Charge       = 0
  Multiplicity = 1
  Basis Set: 6-31G*
  Basis Set:

    Orbital Energies (a.u.)
    -----------------------

    Doubly Occupied:

       1A    -20.557399     2A    -11.278284     3A    -11.238984
       4A    -11.227296     5A     -1.367109     6A     -1.063339
       7A     -0.932261     8A     -0.774414     9A     -0.684712
      10A     -0.661438    11A     -0.623233    12A     -0.569829
      13A     -0.552782    14A     -0.481461    15A     -0.452588
      16A     -0.370404

  @DF-RHF Final Energy:  -191.91500722599829

   => Energetics <=

    Nuclear Repulsion Energy =            119.4182906621271769
    One-Electron Energy =                -496.9955250231992068
    Two-Electron Energy =                 185.6622271350736355
    DFT Exchange-Correlation Energy =       0.0000000000000000
    Empirical Dispersion Energy =           0.0000000000000000
    PCM Polarization Energy =               0.0000000000000000
    EFP Energy =                            0.0000000000000000
    Total Energy =                       -191.9150072259984086
    Molecular point group: c1
  Basis Set: 6-31G*
  Basis Set:

  -Total Gradient:
     Atom            X                  Y                   Z
    ------   -----------------  -----------------  -----------------
       1       -0.003325098485    -0.001796650517    -0.001210568728
       2        0.003388234718     0.001891311548     0.001644542793
       3        0.002894514561     0.001471920849    -0.001133353008
       4       -0.000013364753    -0.000014857064    -0.000017935672
       5       -0.002962679672    -0.001546858456     0.000715125325
       6        0.000006429913    -0.000015154196    -0.000002030242
       7        0.000030266024     0.000020429778     0.000007499663
       8       -0.000002357484     0.000003008641    -0.000001104755
       9       -0.000010478397    -0.000001683426    -0.000003092080
      10       -0.000005466427    -0.000011467156     0.000000916704

  **** Optimization is complete! (in 6 steps) ****
    Final optimized geometry and variables:
    Molecular point group: c1

    Geometry (in Angstrom), charge = 0, multiplicity = 1:

    H            1.090186894729    -1.066073398662     0.327690080019
    O            1.196433438857    -0.678593880930    -0.529449940629
    C            0.539431974381     0.555476536769    -0.565570716892
    C           -0.671446035367     0.643349023530     0.328765411680
    H            0.213408686927     0.708147374478    -1.589270701339
    H            1.227897604848     1.359496604806    -0.315149808038
    C           -1.319748363255    -0.379386833007     0.850936600835
    H           -1.019003626401     1.645074643372     0.525608213449
    H           -1.034716088537    -1.399830911768     0.663032289627
    H           -2.180153901712    -0.233953521088     1.478488570136

  Mulliken Charges: (a.u.)
   Center  Symbol    Alpha    Beta     Spin     Total
       1     H     0.27957  0.27957  0.00000  0.44086
       2     O     4.37229  4.37229  0.00000 -0.74457
       3     C     2.98967  2.98967  0.00000  0.02065
       4     C     3.09757  3.09757  0.00000 -0.19513
       5     H     0.41024  0.41024  0.00000  0.17951
       6     H     0.42363  0.42363  0.00000  0.15275
       7     C     3.20261  3.20261  0.00000 -0.40522
       8     H     0.40671  0.40671  0.00000  0.18657
       9     H     0.40993  0.40993  0.00000  0.18015
      10     H     0.40778  0.40778  0.00000  0.18443

   Total alpha = 16.00000, Total beta = 16.00000, Total charge = -0.00000
