  ==> Input File <==

--------------------------------------------------------------------------
set {
	reference rhf
	basis cc-pvtz
}

set_num_threads( 4 )
memory 2 gb

molecule MOL {
0 1

H	 2.441813	 -1.482907	 0.994742
N	 1.462631	 -1.298903	 1.010695
C	 0.797480	 -1.970422	 -0.087704
C	 1.209399	 0.127791	 0.994578
H	 0.990447	 -3.034248	 -0.021448
H	 1.152423	 -1.624832	 -1.060433
C	 -0.697142	 -1.720444	 0.000000
H	 1.700852	 0.584379	 1.845080
H	 1.590368	 0.605947	 0.090228
C	 -0.285762	 0.375020	 1.080864
H	 -1.086008	 -2.203171	 0.901304
H	 -1.189886	 -2.172158	 -0.852805
N	 -0.976577	 -0.298712	 -0.000000
H	 -0.481053	 1.438458	 1.009591
H	 -0.646288	 0.036652	 2.056630
C	 -2.391156	 -0.021003	 -0.000000
H	 -2.853954	 -0.458728	 -0.875714
H	 -2.853954	 -0.458728	 0.875714
H	 -2.614037	 1.049773	 -0.000000

	symmetry c1
}
set optking {
	frozen_dihedral = ("
		7 13 16 19
	")
}

ee = optimize('scf')
oeprop('DIPOLE', 'QUADRUPOLE', 'MULLIKEN_CHARGES')
f=open( 'psi4out.xyz', 'w' )
f.write( "19  " )
f.write( str(ee) + "\n" )
f.write( MOL.save_string_xyz() )
f.close()
--------------------------------------------------------------------------

    Molecular point group: c1
  Charge       = 0
  Multiplicity = 1
  Basis Set: CC-PVTZ
  Basis Set:
  @DF-RHF Final Energy:  -305.30832215049315
    Total Energy =                       -305.3083221504929270
    Molecular point group: c1
  Basis Set: CC-PVTZ
  Basis Set:
  Basis Set: CC-PVTZ
  Basis Set:
  @DF-RHF Final Energy:  -305.30895387673320
    Total Energy =                       -305.3089538767330851
  Basis Set: CC-PVTZ
  Basis Set:
  Basis Set: CC-PVTZ
  Basis Set:
  @DF-RHF Final Energy:  -305.30903991168452
    Total Energy =                       -305.3090399116846925
  Basis Set: CC-PVTZ
  Basis Set:
  Charge       = 0
  Multiplicity = 1
  Basis Set: CC-PVTZ
  Basis Set:

    Orbital Energies (a.u.)
    -----------------------

    Doubly Occupied:

       1A    -15.536772     2A    -15.531264     3A    -11.237324
       4A    -11.237297     5A    -11.235898     6A    -11.235833
       7A    -11.233255     8A     -1.249599     9A     -1.187956
      10A     -1.024018    11A     -0.965829    12A     -0.861808
      13A     -0.858271    14A     -0.757721    15A     -0.692888
      16A     -0.635219    17A     -0.627710    18A     -0.609574
      19A     -0.605482    20A     -0.581489    21A     -0.543770
      22A     -0.528815    23A     -0.512677    24A     -0.490625
      25A     -0.467834    26A     -0.458345    27A     -0.366091
      28A     -0.348575

  @DF-RHF Final Energy:  -305.30904084937760

   => Energetics <=

    Nuclear Repulsion Energy =            340.3665627101841551
    One-Electron Energy =               -1088.1073348684974462
    Two-Electron Energy =                 442.4317313089360368
    DFT Exchange-Correlation Energy =       0.0000000000000000
    Empirical Dispersion Energy =           0.0000000000000000
    PCM Polarization Energy =               0.0000000000000000
    EFP Energy =                            0.0000000000000000
    Total Energy =                       -305.3090408493773111
    Molecular point group: c1
  Basis Set: CC-PVTZ
  Basis Set:

  -Total Gradient:
     Atom            X                  Y                   Z
    ------   -----------------  -----------------  -----------------
       1        0.000011064451     0.000008697058     0.000012407054
       2        0.000025062921    -0.000010617042     0.000017503224
       3       -0.000020259779     0.000120154338    -0.000031703014
       4       -0.000009942732    -0.000000956382     0.000026950112
       5       -0.000047654078     0.000023999147     0.000002603803
       6        0.000027012018    -0.000005389329    -0.000024523940
       7       -0.000094625760    -0.000037764162     0.000694829091
       8        0.000010995707    -0.000005825165     0.000001943377
       9       -0.000009276761    -0.000008612506     0.000001400161
      10       -0.000029917115    -0.000003683790    -0.000029312168
      11       -0.000009734516     0.000002735488     0.000008611146
      12       -0.000016349201     0.000007566168    -0.000008913859
      13        0.000044553070    -0.000028833793    -0.000713327425
      14        0.000003317014     0.000005255062     0.000005933910
      15        0.000022017700     0.000002730478     0.000000478326
      16       -0.000000542067    -0.000052967873    -0.000812529889
      17        0.000032060553    -0.000005600473    -0.000006484819
      18        0.000023141699    -0.000009959830     0.000007232553
      19        0.000039076881    -0.000000927394     0.000846902354

  **** Optimization is complete! (in 4 steps) ****
    Final optimized geometry and variables:
    Molecular point group: c1

    Geometry (in Angstrom), charge = 0, multiplicity = 1:

    H            2.579784853249    -0.791284908318     0.560687352022
    N            1.600097167137    -0.609741208968     0.578358421329
    C            0.934012190105    -1.282524256927    -0.518528206255
    C            1.342832013762     0.816090417620     0.563945632922
    H            1.128268785389    -2.346182797313    -0.452473380340
    H            1.286512757682    -0.936894998184    -1.492234322014
    C           -0.560794188796    -1.034628855572    -0.427653274703
    H            1.834061066529     1.273636454433     1.414172487199
    H            1.721279755693     1.296133807923    -0.340554791061
    C           -0.153005381972     1.059821085597     0.651709918622
    H           -0.946691983913    -1.514847171429     0.476234825882
    H           -1.055623757372    -1.489723306363    -1.277723198427
    N           -0.842916317835     0.386563912810    -0.430478474506
    H           -0.350178223263     2.123035623718     0.582608929578
    H           -0.511690592756     0.718831400535     1.627312389285
    C           -2.259125824156     0.656663578193    -0.425825000247
    H           -2.720257529866     0.238055490296    -1.311809269335
    H           -2.766609714278     0.239497385589     0.448820097205
    H           -2.431271861919     1.725654065352    -0.428093164800

  Mulliken Charges: (a.u.)
   Center  Symbol    Alpha    Beta     Spin     Total
       1     H     0.43995  0.43995  0.00000  0.12009
       2     N     3.64289  3.64289  0.00000 -0.28579
       3     C     3.04061  3.04061  0.00000 -0.08121
       4     C     3.04087  3.04087  0.00000 -0.08174
       5     H     0.45243  0.45243  0.00000  0.09514
       6     H     0.46531  0.46531  0.00000  0.06938
       7     C     3.03486  3.03486  0.00000 -0.06971
       8     H     0.45243  0.45243  0.00000  0.09514
       9     H     0.46535  0.46535  0.00000  0.06930
      10     C     3.03428  3.03428  0.00000 -0.06855
      11     H     0.46806  0.46806  0.00000  0.06388
      12     H     0.45414  0.45414  0.00000  0.09172
      13     N     3.61430  3.61430  0.00000 -0.22860
      14     H     0.45401  0.45401  0.00000  0.09199
      15     H     0.46863  0.46863  0.00000  0.06274
      16     C     3.09688  3.09688  0.00000 -0.19375
      17     H     0.45191  0.45191  0.00000  0.09618
      18     H     0.47042  0.47042  0.00000  0.05915
      19     H     0.45268  0.45268  0.00000  0.09465

   Total alpha = 28.00000, Total beta = 28.00000, Total charge = -0.00000
