  ==> Input File <==

--------------------------------------------------------------------------
set {
	reference rhf
	basis cc-pvtz
}

set_num_threads( 4 )
memory 2 gb

molecule MOL {
0 1

O	 0.888156	 1.036033	 0.697128
C	 0.576499	 0.134701	 -0.003900
C	 -0.765656	 -0.550508	 -0.002152
O	 1.390767	 -0.405976	 -0.895308
C	 -1.945526	 0.411052	 0.000603
H	 -0.794329	 -1.203792	 -0.868145
H	 -0.791555	 -1.205429	 0.862701
C	 -3.282915	 -0.321280	 0.002596
H	 -1.880300	 1.059126	 -0.864925
H	 -1.877207	 1.057892	 0.866807
H	 -3.388495	 -0.952755	 -0.873419
H	 -4.107811	 0.380864	 0.004116
H	 -3.385717	 -0.953283	 0.878571
C	 2.690849	 0.138638	 -1.001116
H	 2.645766	 1.181299	 -1.278385
H	 3.189328	 -0.429779	 -1.769302
H	 3.220575	 0.045244	 -0.064788

	symmetry c1
}
set optking {
	frozen_dihedral = ("
		1 2 3 6
	")
}

ee = optimize('scf')
oeprop('DIPOLE', 'QUADRUPOLE', 'MULLIKEN_CHARGES')
f=open( 'psi4out.xyz', 'w' )
f.write( "17  " )
f.write( str(ee) + "\n" )
f.write( MOL.save_string_xyz() )
f.close()
--------------------------------------------------------------------------

    Molecular point group: c1
  Charge       = 0
  Multiplicity = 1
  Basis Set: CC-PVTZ
  Basis Set:
  @DF-RHF Final Energy:  -345.03379632763006
    Total Energy =                       -345.0337963276301707
    Molecular point group: c1
  Basis Set: CC-PVTZ
  Basis Set:
  Basis Set: CC-PVTZ
  Basis Set:
  @DF-RHF Final Energy:  -345.03396164508484
    Total Energy =                       -345.0339616450847871
  Basis Set: CC-PVTZ
  Basis Set:
  Basis Set: CC-PVTZ
  Basis Set:
  @DF-RHF Final Energy:  -345.03421634425484
    Total Energy =                       -345.0342163442545598
  Basis Set: CC-PVTZ
  Basis Set:
  Basis Set: CC-PVTZ
  Basis Set:
  @DF-RHF Final Energy:  -345.03427742897736
    Total Energy =                       -345.0342774289772478
  Basis Set: CC-PVTZ
  Basis Set:
  Basis Set: CC-PVTZ
  Basis Set:
  @DF-RHF Final Energy:  -345.03427884084948
    Total Energy =                       -345.0342788408493107
  Basis Set: CC-PVTZ
  Basis Set:
  Charge       = 0
  Multiplicity = 1
  Basis Set: CC-PVTZ
  Basis Set:

    Orbital Energies (a.u.)
    -----------------------

    Doubly Occupied:

       1A    -20.598887     2A    -20.532101     3A    -11.364740
       4A    -11.278879     5A    -11.233329     6A    -11.224239
       7A    -11.214079     8A     -1.473086     9A     -1.365269
      10A     -1.082301    11A     -1.001986    12A     -0.941656
      13A     -0.828644    14A     -0.772602    15A     -0.701546
      16A     -0.684855    17A     -0.676056    18A     -0.637751
      19A     -0.596161    20A     -0.581707    21A     -0.563555
      22A     -0.533453    23A     -0.525739    24A     -0.502728
      25A     -0.486230    26A     -0.480656    27A     -0.459744
      28A     -0.438917

  @DF-RHF Final Energy:  -345.03427904767591

   => Energetics <=

    Nuclear Repulsion Energy =            313.1397897101977605
    One-Electron Energy =               -1090.7863521230835886
    Two-Electron Energy =                 432.6122833652098620
    DFT Exchange-Correlation Energy =       0.0000000000000000
    Empirical Dispersion Energy =           0.0000000000000000
    PCM Polarization Energy =               0.0000000000000000
    EFP Energy =                            0.0000000000000000
    Total Energy =                       -345.0342790476759660
    Molecular point group: c1
  Basis Set: CC-PVTZ
  Basis Set:

  -Total Gradient:
     Atom            X                  Y                   Z
    ------   -----------------  -----------------  -----------------
       1        0.000302311480    -0.000596107385     0.000624494274
       2       -0.000368410154     0.000705625763    -0.000772994627
       3       -0.000258745892     0.000512531607    -0.000321518876
       4       -0.000003632098    -0.000004637532     0.000008153350
       5        0.000005538212     0.000017301929    -0.000017832487
       6        0.000341390024    -0.000650338857     0.000475510969
       7        0.000004046609     0.000010379522    -0.000001259713
       8       -0.000003917077     0.000000034997     0.000019208424
       9       -0.000000827598     0.000002774587    -0.000001812266
      10       -0.000008737575    -0.000000340791    -0.000002385865
      11        0.000003495830     0.000006549584    -0.000002562004
      12       -0.000000261338     0.000000100501     0.000002765241
      13       -0.000002552565    -0.000005871897    -0.000002418762
      14       -0.000011678227    -0.000000760366    -0.000002794205
      15        0.000005727026     0.000004422508    -0.000001811140
      16        0.000000126297    -0.000000369491    -0.000000991862
      17       -0.000003872948    -0.000001294680    -0.000001750451

  **** Optimization is complete! (in 6 steps) ****
    Final optimized geometry and variables:
    Molecular point group: c1

    Geometry (in Angstrom), charge = 0, multiplicity = 1:

    O            0.883868483885     0.956984806006     0.860561181493
    C            0.602406938715     0.060072426845     0.139802971811
    C           -0.735689567808    -0.636200163131     0.129505985975
    O            1.449668050059    -0.461589270926    -0.729671649027
    C           -1.908622756748     0.340805674192     0.172611261499
    H           -0.793449703121    -1.290729319191    -0.728975784304
    H           -0.753273588602    -1.267443983046     1.013416282406
    C           -3.252423887978    -0.375419487574     0.240259317757
    H           -1.878737198482     0.974759361910    -0.708136251779
    H           -1.790557682911     0.993878395547     1.027167572070
    H           -3.400928315993    -1.019878291576    -0.619727194408
    H           -4.068690252270     0.336476215216     0.264515580894
    H           -3.323549100389    -0.990805105158     1.130897347977
    C            2.752281044791     0.086491292619    -0.772651530528
    H            2.715987764324     1.134379001995    -1.030517531684
    H            3.282372081163    -0.466148455006    -1.531204695275
    H            3.243640565580    -0.024616464015     0.182487336772

  Mulliken Charges: (a.u.)
   Center  Symbol    Alpha    Beta     Spin     Total
       1     O     4.20265  4.20265  0.00000 -0.40530
       2     C     2.81380  2.81380  0.00000  0.37241
       3     C     3.08393  3.08393  0.00000 -0.16787
       4     O     4.14317  4.14317  0.00000 -0.28634
       5     C     3.08471  3.08471  0.00000 -0.16942
       6     H     0.43883  0.43883  0.00000  0.12234
       7     H     0.44636  0.44636  0.00000  0.10729
       8     C     3.15119  3.15119  0.00000 -0.30238
       9     H     0.45208  0.45208  0.00000  0.09585
      10     H     0.43957  0.43957  0.00000  0.12085
      11     H     0.45549  0.45549  0.00000  0.08902
      12     H     0.44592  0.44592  0.00000  0.10816
      13     H     0.45425  0.45425  0.00000  0.09151
      14     C     3.03466  3.03466  0.00000 -0.06933
      15     H     0.45411  0.45411  0.00000  0.09179
      16     H     0.44503  0.44503  0.00000  0.10993
      17     H     0.45426  0.45426  0.00000  0.09147

   Total alpha = 28.00000, Total beta = 28.00000, Total charge = -0.00000
