  ==> Input File <==

--------------------------------------------------------------------------
set {
	reference rhf
	basis 6-31G*
}

set_num_threads( 4 )
memory 2 gb

molecule MOL {
0 1

H	 -2.499100	 -0.730091	 -0.745082
O	 -2.347518	 -0.290803	 0.079804
C	 -1.184022	 0.487508	 -0.006784
C	 0.062599	 -0.378592	 0.031606
H	 -1.176523	 1.099369	 -0.904519
H	 -1.187323	 1.153111	 0.844927
O	 -0.334129	 -1.693698	 0.261566
H	 0.732423	 -0.036158	 0.822843
H	 0.599101	 -0.288633	 -0.911080
C	 0.709644	 -2.615044	 0.289866
H	 1.418875	 -2.388538	 1.083790
H	 0.279774	 -3.590233	 0.471857
H	 1.246144	 -2.636580	 -0.656441

	symmetry c1
}
set optking {
	frozen_dihedral = ("
		8 4 3 5
	")
}

ee = optimize('scf')
oeprop('DIPOLE', 'QUADRUPOLE', 'MULLIKEN_CHARGES')
f=open( 'psi4out.xyz', 'w' )
f.write( "13  " )
f.write( str(ee) + "\n" )
f.write( MOL.save_string_xyz() )
f.close()
--------------------------------------------------------------------------

    Molecular point group: c1
  Charge       = 0
  Multiplicity = 1
  Basis Set: 6-31G*
  Basis Set:
  @DF-RHF Final Energy:  -267.93660550855611
    Total Energy =                       -267.9366055085563403
    Molecular point group: c1
  Basis Set: 6-31G*
  Basis Set:
  Basis Set: 6-31G*
  Basis Set:
  @DF-RHF Final Energy:  -267.93831891118009
    Total Energy =                       -267.9383189111800903
  Basis Set: 6-31G*
  Basis Set:
  Basis Set: 6-31G*
  Basis Set:
  @DF-RHF Final Energy:  -267.94012432340759
    Total Energy =                       -267.9401243234075309
  Basis Set: 6-31G*
  Basis Set:
  Basis Set: 6-31G*
  Basis Set:
  @DF-RHF Final Energy:  -267.94060710160340
    Total Energy =                       -267.9406071016035185
  Basis Set: 6-31G*
  Basis Set:
  @DF-RHF Final Energy:  -267.94163306232457
    Total Energy =                       -267.9416330623243425
  @DF-RHF Final Energy:  -267.94297893667112
    Total Energy =                       -267.9429789366710679
  @DF-RHF Final Energy:  -267.94392710782859
    Total Energy =                       -267.9439271078288130
  @DF-RHF Final Energy:  -267.94461653468341
    Total Energy =                       -267.9446165346835755
  Basis Set: 6-31G*
  Basis Set:
  @DF-RHF Final Energy:  -267.94468549149968
    Total Energy =                       -267.9446854914999108
  Basis Set: 6-31G*
  Basis Set:
  Basis Set: 6-31G*
  Basis Set:
  @DF-RHF Final Energy:  -267.94469968965507
    Total Energy =                       -267.9446996896550672
  Basis Set: 6-31G*
  Basis Set:
  Basis Set: 6-31G*
  Basis Set:
  @DF-RHF Final Energy:  -267.94470223938117
    Total Energy =                       -267.9447022393815132
  Basis Set: 6-31G*
  Basis Set:
  Charge       = 0
  Multiplicity = 1
  Basis Set: 6-31G*
  Basis Set:

    Orbital Energies (a.u.)
    -----------------------

    Doubly Occupied:

       1A    -20.574099     2A    -20.537799     3A    -11.280656
       4A    -11.278448     5A    -11.268312     6A     -1.401055
       7A     -1.344892     8A     -1.015902     9A     -0.927070
      10A     -0.835935    11A     -0.700503    12A     -0.688124
      13A     -0.667312    14A     -0.629123    15A     -0.598575
      16A     -0.564061    17A     -0.550171    18A     -0.495268
      19A     -0.475186    20A     -0.445013    21A     -0.414238

  @DF-RHF Final Energy:  -267.94470234541058

   => Energetics <=

    Nuclear Repulsion Energy =            195.2433186542129420
    One-Electron Energy =                -752.9925597047389374
    Two-Electron Energy =                 289.8045387051154194
    DFT Exchange-Correlation Energy =       0.0000000000000000
    Empirical Dispersion Energy =           0.0000000000000000
    PCM Polarization Energy =               0.0000000000000000
    EFP Energy =                            0.0000000000000000
    Total Energy =                       -267.9447023454106329
    Molecular point group: c1
  Basis Set: 6-31G*
  Basis Set:

  -Total Gradient:
     Atom            X                  Y                   Z
    ------   -----------------  -----------------  -----------------
       1        0.000026136134     0.000023648668    -0.000002616989
       2       -0.000023660591     0.000007697569    -0.000019020945
       3        0.002513159130     0.003813832335     0.005041395651
       4        0.003051226501     0.003819766478    -0.004756240798
       5       -0.002621649202    -0.003873576714    -0.003436712894
       6        0.000002658133     0.000008061405    -0.000007223938
       7       -0.000021328930    -0.000015654806    -0.000000391454
       8       -0.002947546432    -0.003808243511     0.003182102905
       9        0.000008672258     0.000008410800    -0.000000586856
      10        0.000027004053     0.000009309623    -0.000000298881
      11       -0.000000959487    -0.000003242373     0.000003724400
      12       -0.000012386553     0.000013688871    -0.000001602492
      13       -0.000001325009    -0.000003698346    -0.000002527708

  **** Optimization is complete! (in 12 steps) ****
    Final optimized geometry and variables:
    Molecular point group: c1

    Geometry (in Angstrom), charge = 0, multiplicity = 1:

    H           -1.601933336278    -0.175076111273     0.018531054145
    O           -1.716735448883     0.708240154665    -0.305865193974
    C           -0.538490918015     1.422468685177    -0.077284020090
    C            0.711887216890     0.513739271452    -0.009846879330
    H           -0.443057098086     2.103668948627    -0.913492572947
    H           -0.622389264353     2.003301175177     0.836617535620
    O            0.291304072372    -0.813463430405     0.139163321511
    H            1.313532855442     0.774768187449     0.858046815353
    H            1.323327956509     0.609460736889    -0.903103431832
    C            1.327281127254    -1.739588168928     0.248044311019
    H            1.947639497960    -1.538139406384     1.118495098744
    H            0.879899052425    -2.717977766886     0.352831667251
    H            1.957301669272    -1.731154146942    -0.638214902610

  Mulliken Charges: (a.u.)
   Center  Symbol    Alpha    Beta     Spin     Total
       1     H     0.26465  0.26465  0.00000  0.47071
       2     O     4.37929  4.37929  0.00000 -0.75858
       3     C     2.99358  2.99358  0.00000  0.01283
       4     C     3.00821  3.00821  0.00000 -0.01642
       5     H     0.41870  0.41870  0.00000  0.16260
       6     H     0.42658  0.42658  0.00000  0.14685
       7     O     4.31904  4.31904  0.00000 -0.63807
       8     H     0.42584  0.42584  0.00000  0.14832
       9     H     0.42304  0.42304  0.00000  0.15393
      10     C     3.08010  3.08010  0.00000 -0.16021
      11     H     0.42654  0.42654  0.00000  0.14692
      12     H     0.40918  0.40918  0.00000  0.18164
      13     H     0.42526  0.42526  0.00000  0.14948

   Total alpha = 21.00000, Total beta = 21.00000, Total charge =  0.00000
