  ==> Input File <==

--------------------------------------------------------------------------
set {
	reference rhf
	basis 6-31G*
}

set_num_threads( 4 )
memory 2 gb

molecule MOL {
0 1

H	 -2.273092	 1.173159	 0.000295
O	 -1.438904	 1.618192	 0.000114
C	 -0.409536	 0.736003	 0.000030
C	 -0.731406	 -0.594937	 -0.214906
C	 0.910805	 1.130955	 0.204120
H	 -1.762096	 -0.856194	 -0.367924
C	 0.265584	 -1.551666	 -0.228731
C	 1.892656	 0.147801	 0.185011
C	 1.259916	 2.583589	 0.438607
H	 0.009261	 -2.582590	 -0.396029
C	 1.586575	 -1.184524	 -0.028317
H	 2.917613	 0.436675	 0.341088
H	 0.775449	 2.979789	 1.328697
H	 2.326983	 2.703056	 0.576701
H	 0.973464	 3.211662	 -0.402503
H	 2.367163	 -1.923301	 -0.037758

	symmetry c1
}
set optking {
	frozen_dihedral = ("
		4 3 2 1
	")
}

ee = optimize('scf')
oeprop('DIPOLE', 'QUADRUPOLE', 'MULLIKEN_CHARGES')
f=open( 'psi4out.xyz', 'w' )
f.write( "16  " )
f.write( str(ee) + "\n" )
f.write( MOL.save_string_xyz() )
f.close()
--------------------------------------------------------------------------

    Molecular point group: c1
  Charge       = 0
  Multiplicity = 1
  Basis Set: 6-31G*
  Basis Set:
  @DF-RHF Final Energy:  -344.59215476720954
    Total Energy =                       -344.5921547672095357
    Molecular point group: c1
  Basis Set: 6-31G*
  Basis Set:
  Basis Set: 6-31G*
  Basis Set:
  @DF-RHF Final Energy:  -344.59466303193096
    Total Energy =                       -344.5946630319310771
  Basis Set: 6-31G*
  Basis Set:
  Basis Set: 6-31G*
  Basis Set:
  @DF-RHF Final Energy:  -344.59490526043442
    Total Energy =                       -344.5949052604346434
  Basis Set: 6-31G*
  Basis Set:
  Basis Set: 6-31G*
  Basis Set:
  @DF-RHF Final Energy:  -344.59492854787896
    Total Energy =                       -344.5949285478787374
  Basis Set: 6-31G*
  Basis Set:
  Basis Set: 6-31G*
  Basis Set:
  @DF-RHF Final Energy:  -344.59493332560800
    Total Energy =                       -344.5949333256079399
  Basis Set: 6-31G*
  Basis Set:
  Charge       = 0
  Multiplicity = 1
  Basis Set: 6-31G*
  Basis Set:

    Orbital Energies (a.u.)
    -----------------------

    Doubly Occupied:

       1A    -20.589358     2A    -11.292594     3A    -11.231458
       4A    -11.229745     5A    -11.227981     6A    -11.226000
       7A    -11.219334     8A    -11.212666     9A     -1.407182
      10A     -1.147972    11A     -1.043519    12A     -1.002617
      13A     -0.928570    14A     -0.844182    15A     -0.798778
      16A     -0.730716    17A     -0.671055    18A     -0.649843
      19A     -0.603329    20A     -0.596504    21A     -0.576809
      22A     -0.556821    23A     -0.547580    24A     -0.538900
      25A     -0.499403    26A     -0.480465    27A     -0.472430
      28A     -0.329341    29A     -0.303670

  @DF-RHF Final Energy:  -344.59493345899250

   => Energetics <=

    Nuclear Repulsion Energy =            350.2133339414849615
    One-Electron Energy =               -1161.6988927101169793
    Two-Electron Energy =                 466.8906253096395176
    DFT Exchange-Correlation Energy =       0.0000000000000000
    Empirical Dispersion Energy =           0.0000000000000000
    PCM Polarization Energy =               0.0000000000000000
    EFP Energy =                            0.0000000000000000
    Total Energy =                       -344.5949334589925002
    Molecular point group: c1
  Basis Set: 6-31G*
  Basis Set:

  -Total Gradient:
     Atom            X                  Y                   Z
    ------   -----------------  -----------------  -----------------
       1        0.000006129398    -0.000003674208     0.000981816744
       2        0.000003086192     0.000080591020    -0.001550300255
       3       -0.000108096026    -0.000150814548     0.001204901601
       4        0.000066018289     0.000093162868    -0.000710600912
       5        0.000019474548    -0.000014690102     0.000039746327
       6       -0.000001119065    -0.000001570437     0.000004617604
       7       -0.000004226336    -0.000020335394     0.000022566336
       8       -0.000010192356     0.000012709635     0.000042876034
       9        0.000003151221    -0.000004533259    -0.000009919334
      10        0.000006059754     0.000000752994     0.000002723589
      11        0.000009826883     0.000015537914    -0.000024610506
      12        0.000004427360     0.000004079705    -0.000006323980
      13        0.000000436490    -0.000005881179     0.000000114768
      14        0.000006558302     0.000004834341     0.000003017516
      15       -0.000000502639    -0.000007538638     0.000000643411
      16       -0.000001032014    -0.000002630714    -0.000001268944

  **** Optimization is complete! (in 6 steps) ****
    Final optimized geometry and variables:
    Molecular point group: c1

    Geometry (in Angstrom), charge = 0, multiplicity = 1:

    H           -2.601510672790     0.876877867089    -0.035237885486
    O           -1.735072136581     1.258566901563    -0.032225750280
    C           -0.787368836805     0.287916271869    -0.045985933375
    C           -1.103873758593    -1.040114705871    -0.265489791749
    C            0.533977141638     0.690988140363     0.153339445472
    H           -2.130195352503    -1.326593814439    -0.425206585048
    C           -0.100732198147    -1.998828158822    -0.280356242028
    C            1.514772736238    -0.285540461674     0.129580820608
    C            0.853945162247     2.147224335823     0.384180752572
    H           -0.355211273353    -3.029928389096    -0.448921718119
    C            1.213046033476    -1.625086702006    -0.083440957510
    H            2.539318650790     0.006115099769     0.282631197574
    H            0.335611880379     2.528527783353     1.257600836417
    H            1.918491467491     2.286428911933     0.532105797043
    H            0.545437022038     2.755334137408    -0.459739901274
    H            1.997590935504    -2.359728703790    -0.094484213632

  Mulliken Charges: (a.u.)
   Center  Symbol    Alpha    Beta     Spin     Total
       1     H     0.27158  0.27158  0.00000  0.45685
       2     O     4.38055  4.38055  0.00000 -0.76109
       3     C     2.80657  2.80657  0.00000  0.38686
       4     C     3.13892  3.13892  0.00000 -0.27783
       5     C     3.00835  3.00835  0.00000 -0.01670
       6     H     0.40527  0.40527  0.00000  0.18946
       7     C     3.09558  3.09558  0.00000 -0.19116
       8     C     3.10738  3.10738  0.00000 -0.21476
       9     C     3.24188  3.24188  0.00000 -0.48375
      10     H     0.39934  0.39934  0.00000  0.20133
      11     C     3.10800  3.10800  0.00000 -0.21601
      12     H     0.40098  0.40098  0.00000  0.19804
      13     H     0.40856  0.40856  0.00000  0.18289
      14     H     0.41788  0.41788  0.00000  0.16423
      15     H     0.40797  0.40797  0.00000  0.18406
      16     H     0.40120  0.40120  0.00000  0.19759

   Total alpha = 29.00000, Total beta = 29.00000, Total charge = -0.00000
