  ==> Input File <==

--------------------------------------------------------------------------
set {
	reference rhf
	basis 6-31G*
}

set_num_threads( 1 )
memory 2 gb

molecule MOL {
0 1

H	 3.957767	 -0.580202	 4.268561
C	 3.519051	 -1.264058	 3.548566
C	 2.146426	 -0.775316	 3.087903
H	 4.204515	 -1.346258	 2.710280
H	 3.451961	 -2.241368	 4.018845
C	 1.495937	 -1.721251	 2.076032
H	 2.246569	 0.211624	 2.647992
H	 1.493509	 -0.669733	 3.952914
C	 0.112440	 -1.267314	 1.610045
H	 2.141267	 -1.828421	 1.211331
H	 1.399173	 -2.707946	 2.523368
C	 0.126343	 -0.047291	 0.700873
H	 -0.366673	 -2.067328	 1.047729
H	 -0.539466	 -1.073717	 2.458995
C	 -1.181045	 0.701995	 0.511084
O	 1.120415	 0.303288	 0.139340
C	 -2.285934	 -0.139295	 -0.145128
H	 -0.962235	 1.572013	 -0.096291
H	 -1.523784	 1.051330	 1.483288
C	 -3.651768	 0.085446	 0.506485
H	 -2.346596	 0.110469	 -1.202272
H	 -2.034737	 -1.195320	 -0.088721
C	 -4.759797	 -0.746382	 -0.137905
H	 -3.908762	 1.140117	 0.445781
H	 -3.588286	 -0.154158	 1.565709
H	 -4.868882	 -0.505166	 -1.191300
H	 -4.548009	 -1.809175	 -0.062213
H	 -5.715422	 -0.564821	 0.343442

	symmetry c1
}
set optking {
	frozen_dihedral = ("
		10 6 3 2,
		16 12 15 17
	")
}

ee = energy('scf')
oeprop('DIPOLE', 'QUADRUPOLE', 'MULLIKEN_CHARGES')
f=open( 'psi4out.xyz', 'w' )
f.write( "28  " )
f.write( str(ee) + "\n" )
f.write( MOL.save_string_xyz() )
f.close()
--------------------------------------------------------------------------

    Molecular point group: c1

    Geometry (in Angstrom), charge = 0, multiplicity = 1:

       Center              X                  Y                   Z               Mass
    ------------   -----------------  -----------------  -----------------  -----------------
           H          4.291373139539    -0.087802103581     3.075579255007     1.007825032070
           C          3.852657139539    -0.771658103581     2.355584255007    12.000000000000
           C          2.480032139539    -0.282916103581     1.894921255007    12.000000000000
           H          4.538121139539    -0.853858103581     1.517298255007     1.007825032070
           H          3.785567139539    -1.748968103581     2.825863255007     1.007825032070
           C          1.829543139539    -1.228851103581     0.883050255007    12.000000000000
           H          2.580175139539     0.704023896419     1.455010255007     1.007825032070
           H          1.827115139539    -0.177333103581     2.759932255007     1.007825032070
           C          0.446046139539    -0.774914103581     0.417063255007    12.000000000000
           H          2.474873139539    -1.336021103581     0.018349255007     1.007825032070
           H          1.732779139539    -2.215546103581     1.330386255007     1.007825032070
           C          0.459949139539     0.445108896419    -0.492108744993    12.000000000000
           H         -0.033066860461    -1.574928103581    -0.145252744993     1.007825032070
           H         -0.205859860461    -0.581317103581     1.266013255007     1.007825032070
           C         -0.847438860461     1.194394896419    -0.681897744993    12.000000000000
           O          1.454021139539     0.795687896419    -1.053641744993    15.994914619560
           C         -1.952327860461     0.353104896419    -1.338109744993    12.000000000000
           H         -0.628628860461     2.064412896419    -1.289272744993     1.007825032070
           H         -1.190177860461     1.543729896419     0.290306255007     1.007825032070
           C         -3.318161860461     0.577845896419    -0.686496744993    12.000000000000
           H         -2.012989860461     0.602868896419    -2.395253744993     1.007825032070
           H         -1.701130860461    -0.702920103581    -1.281702744993     1.007825032070
           C         -4.426190860461    -0.253982103581    -1.330886744993    12.000000000000
           H         -3.575155860461     1.632516896419    -0.747200744993     1.007825032070
           H         -3.254679860461     0.338241896419     0.372727255007     1.007825032070
           H         -4.535275860461    -0.012766103581    -2.384281744993     1.007825032070
           H         -4.214402860461    -1.316775103581    -1.255194744993     1.007825032070
           H         -5.381815860461    -0.072421103581    -0.849539744993     1.007825032070

  Charge       = 0
  Multiplicity = 1
  Basis Set: 6-31G*
  Basis Set:

    Orbital Energies (a.u.)
    -----------------------

    Doubly Occupied:

       1A    -20.547981     2A    -11.322105     3A    -11.231193
       4A    -11.230310     5A    -11.227492     6A    -11.226953
       7A    -11.216824     8A    -11.216568     9A    -11.212524
      10A    -11.205876    11A     -1.393125    12A     -1.096030
      13A     -1.077489    14A     -1.022340    15A     -0.991053
      16A     -0.907114    17A     -0.874105    18A     -0.811335
      19A     -0.799475    20A     -0.723266    21A     -0.665366
      22A     -0.657303    23A     -0.626780    24A     -0.617091
      25A     -0.610253    26A     -0.590840    27A     -0.576756
      28A     -0.573479    29A     -0.543143    30A     -0.536936
      31A     -0.521358    32A     -0.510054    33A     -0.497146
      34A     -0.483945    35A     -0.478709    36A     -0.475788
      37A     -0.469156    38A     -0.465184    39A     -0.454696
      40A     -0.392342

  @DF-RHF Final Energy:  -426.16410523346838

   => Energetics <=

    Nuclear Repulsion Energy =            534.3503773305899358
    One-Electron Energy =               -1636.8702217259929057
    Two-Electron Energy =                 676.3557391619358441
    DFT Exchange-Correlation Energy =       0.0000000000000000
    Empirical Dispersion Energy =           0.0000000000000000
    PCM Polarization Energy =               0.0000000000000000
    EFP Energy =                            0.0000000000000000
    Total Energy =                       -426.1641052334671258

  Mulliken Charges: (a.u.)
   Center  Symbol    Alpha    Beta     Spin     Total
       1     H     0.41930  0.41930  0.00000  0.16141
       2     C     3.24016  3.24016  0.00000 -0.48031
       3     C     3.15650  3.15650  0.00000 -0.31299
       4     H     0.41826  0.41826  0.00000  0.16347
       5     H     0.42361  0.42361  0.00000  0.15278
       6     C     3.14869  3.14869  0.00000 -0.29738
       7     H     0.41043  0.41043  0.00000  0.17914
       8     H     0.42768  0.42768  0.00000  0.14463
       9     C     3.21164  3.21164  0.00000 -0.42327
      10     H     0.40646  0.40646  0.00000  0.18708
      11     H     0.42195  0.42195  0.00000  0.15609
      12     C     2.73498  2.73498  0.00000  0.53004
      13     H     0.40305  0.40305  0.00000  0.19390
      14     H     0.41316  0.41316  0.00000  0.17368
      15     C     3.20298  3.20298  0.00000 -0.40595
      16     O     4.26612  4.26612  0.00000 -0.53224
      17     C     3.16279  3.16279  0.00000 -0.32558
      18     H     0.39802  0.39802  0.00000  0.20396
      19     H     0.41083  0.41083  0.00000  0.17834
      20     C     3.15464  3.15464  0.00000 -0.30929
      21     H     0.41085  0.41085  0.00000  0.17830
      22     H     0.41795  0.41795  0.00000  0.16410
      23     C     3.24071  3.24071  0.00000 -0.48143
      24     H     0.41907  0.41907  0.00000  0.16185
      25     H     0.42230  0.42230  0.00000  0.15539
      26     H     0.41965  0.41965  0.00000  0.16071
      27     H     0.42097  0.42097  0.00000  0.15806
      28     H     0.41725  0.41725  0.00000  0.16551

   Total alpha = 40.00000, Total beta = 40.00000, Total charge =  0.00000
