  ==> Input File <==

--------------------------------------------------------------------------
set {
	reference rhf
	basis 6-31G*
}

set_num_threads( 4 )
memory 2 gb

molecule MOL {
0 1

H	 -2.437437	 0.674178	 4.823728
O	 -1.676670	 0.682987	 5.386069
C	 -1.028107	 -0.561873	 5.324867
C	 -0.287394	 -0.789869	 4.011822
H	 -0.324378	 -0.567835	 6.147305
H	 -1.737208	 -1.370025	 5.500496
C	 -1.199905	 -0.846655	 2.784236
H	 0.444263	 0.004037	 3.886289
H	 0.267702	 -1.722928	 4.093284
C	 -0.432699	 -1.130501	 1.489769
H	 -1.732358	 0.095791	 2.691205
H	 -1.954225	 -1.620159	 2.929258
C	 -1.309753	 -1.282496	 0.241564
H	 0.295060	 -0.338226	 1.323894
H	 0.140841	 -2.045670	 1.620987
C	 -2.037799	 -0.007733	 -0.193645
H	 -0.680284	 -1.619612	 -0.579373
H	 -2.037976	 -2.074788	 0.408305
C	 -3.489788	 0.042957	 0.286558
H	 -2.017067	 0.064384	 -1.280144
H	 -1.513726	 0.868678	 0.179924
C	 -4.216917	 1.317354	 -0.141063
H	 -4.025645	 -0.823308	 -0.095450
H	 -3.513059	 -0.038752	 1.371301
H	 -4.239342	 1.411634	 -1.223113
H	 -5.243387	 1.322503	 0.212445
H	 -3.726170	 2.201406	 0.256408

	symmetry c1
}
set optking {
	frozen_dihedral = ("
		10 13 16 20
	")
}

ee = optimize('scf')
oeprop('DIPOLE', 'QUADRUPOLE', 'MULLIKEN_CHARGES')
f=open( 'psi4out.xyz', 'w' )
f.write( "27  " )
f.write( str(ee) + "\n" )
f.write( MOL.save_string_xyz() )
f.close()
--------------------------------------------------------------------------

    Molecular point group: c1
  Charge       = 0
  Multiplicity = 1
  Basis Set: 6-31G*
  Basis Set:
  @DF-RHF Final Energy:  -388.27665769218288
    Total Energy =                       -388.2766576921836759
    Molecular point group: c1
  Basis Set: 6-31G*
  Basis Set:
  Basis Set: 6-31G*
  Basis Set:
  @DF-RHF Final Energy:  -388.27704287274423
    Total Energy =                       -388.2770428727442322
  Basis Set: 6-31G*
  Basis Set:
  Basis Set: 6-31G*
  Basis Set:
  @DF-RHF Final Energy:  -388.27714836093958
    Total Energy =                       -388.2771483609396910
  Basis Set: 6-31G*
  Basis Set:
  Basis Set: 6-31G*
  Basis Set:
  @DF-RHF Final Energy:  -388.27724583068925
    Total Energy =                       -388.2772458306893668
  Basis Set: 6-31G*
  Basis Set:
  Basis Set: 6-31G*
  Basis Set:
  @DF-RHF Final Energy:  -388.27723396769863
    Total Energy =                       -388.2772339676986348
  Basis Set: 6-31G*
  Basis Set:
  Basis Set: 6-31G*
  Basis Set:
  @DF-RHF Final Energy:  -388.27725440085442
    Total Energy =                       -388.2772544008540763
  Basis Set: 6-31G*
  Basis Set:
  Charge       = 0
  Multiplicity = 1
  Basis Set: 6-31G*
  Basis Set:

    Orbital Energies (a.u.)
    -----------------------

    Doubly Occupied:

       1A    -20.552516     2A    -11.267231     3A    -11.219902
       4A    -11.217440     5A    -11.217089     6A    -11.215877
       7A    -11.215325     8A    -11.214902     9A    -11.210164
      10A     -1.359248    11A     -1.094603    12A     -1.060299
      13A     -1.011427    14A     -0.948977    15A     -0.889558
      16A     -0.825705    17A     -0.796588    18A     -0.778302
      19A     -0.693985    20A     -0.653056    21A     -0.634066
      22A     -0.611731    23A     -0.600571    24A     -0.589635
      25A     -0.578381    26A     -0.559799    27A     -0.542581
      28A     -0.517762    29A     -0.510051    30A     -0.495512
      31A     -0.488181    32A     -0.477818    33A     -0.470731
      34A     -0.459764    35A     -0.446220    36A     -0.441580
      37A     -0.422812

  @DF-RHF Final Energy:  -388.27725427921877

   => Energetics <=

    Nuclear Repulsion Energy =            469.9218827455172800
    One-Electron Energy =               -1457.8194908457896872
    Two-Electron Energy =                 599.6203538210537545
    DFT Exchange-Correlation Energy =       0.0000000000000000
    Empirical Dispersion Energy =           0.0000000000000000
    PCM Polarization Energy =               0.0000000000000000
    EFP Energy =                            0.0000000000000000
    Total Energy =                       -388.2772542792187096
    Molecular point group: c1
  Basis Set: 6-31G*
  Basis Set:

  -Total Gradient:
     Atom            X                  Y                   Z
    ------   -----------------  -----------------  -----------------
       1       -0.000002029552     0.000002304782    -0.000002236896
       2       -0.000004930918    -0.000004783131    -0.000004788657
       3        0.000014689035     0.000008742530     0.000006867721
       4       -0.000007255915    -0.000004661701    -0.000001563691
       5       -0.000000447740     0.000000572978     0.000003523723
       6        0.000001878347     0.000001226750    -0.000002286894
       7        0.000010580991    -0.000007762521     0.000003319985
       8       -0.000002121963    -0.000001884567     0.000005296867
       9       -0.000002652402    -0.000000591231    -0.000003347697
      10        0.000152100808     0.000053979458    -0.000123006762
      11       -0.000004941485     0.000005358880     0.000000010994
      12        0.000000875215     0.000000631414     0.000002879245
      13       -0.000153038673    -0.000064871685     0.000128564914
      14        0.000006641899    -0.000004102668    -0.000001589344
      15       -0.000006693061     0.000000281122     0.000004556485
      16       -0.000216852658    -0.000136873612    -0.000075491765
      17        0.000008877754    -0.000016281888     0.000019471210
      18        0.000006089593    -0.000010074998    -0.000005247847
      19       -0.000008774707     0.000041202529     0.000030928561
      20        0.000221995623     0.000163367069     0.000030566993
      21        0.000002818840    -0.000003538855     0.000003666881
      22       -0.000021785473    -0.000023664765    -0.000026361519
      23        0.000000479707    -0.000000153895     0.000018476542
      24        0.000003539972     0.000003254660    -0.000005182077
      25        0.000003992419     0.000009756871    -0.000004468075
      26       -0.000003769603    -0.000002277847    -0.000011900245
      27        0.000000733946    -0.000009155677     0.000009341335

  **** Optimization is complete! (in 7 steps) ****
    Final optimized geometry and variables:
    Molecular point group: c1

    Geometry (in Angstrom), charge = 0, multiplicity = 1:

    H           -0.631742141072     0.964126829240     2.658410959696
    O            0.134793431885     0.959473586547     3.212914940650
    C            0.754851996400    -0.299927946298     3.152997550523
    C            1.484510778374    -0.548291851786     1.837475484233
    H            1.461909426829    -0.319060459565     3.972356097382
    H            0.028586755286    -1.091347677700     3.334389841480
    C            0.565825719992    -0.584913077975     0.613641583950
    H            2.234754507648     0.227350198364     1.707473119606
    H            2.017079728084    -1.494408409785     1.918401039061
    C            1.323980251632    -0.881448053367    -0.682445618218
    H            0.055451760722     0.369974080166     0.522809631321
    H           -0.204941926687    -1.341115303280     0.761670400269
    C            0.458871239555    -1.016259860384    -1.942513949358
    H            2.065186190415    -0.101064535433    -0.844991412634
    H            1.882702731112    -1.806268702686    -0.553200397553
    C           -0.305845174927     0.254879432624    -2.365761234340
    H            1.117118023252    -1.316351163342    -2.753236965119
    H           -0.243140638129    -1.837906254485    -1.812178208870
    C           -1.775408161189     0.294215444837    -1.933903684607
    H           -0.273753959671     0.344875005363    -3.448833038430
    H            0.207959587159     1.134951422335    -1.982779849048
    C           -2.483172114309     1.579622184126    -2.361090759938
    H           -2.291862395440    -0.561122661835    -2.364206018336
    H           -1.853474077601     0.182082526678    -0.856207376702
    H           -2.450517188799     1.704971826126    -3.439745549334
    H           -3.526512783267     1.573706921023    -2.060774675213
    H           -2.015247410022     2.452545556043    -1.914461304175

  Mulliken Charges: (a.u.)
   Center  Symbol    Alpha    Beta     Spin     Total
       1     H     0.27997  0.27997  0.00000  0.44007
       2     O     4.37089  4.37089  0.00000 -0.74178
       3     C     2.99746  2.99746  0.00000  0.00507
       4     C     3.16083  3.16083  0.00000 -0.32165
       5     H     0.41440  0.41440  0.00000  0.17121
       6     H     0.43196  0.43196  0.00000  0.13607
       7     C     3.16343  3.16343  0.00000 -0.32687
       8     H     0.41509  0.41509  0.00000  0.16982
       9     H     0.42424  0.42424  0.00000  0.15152
      10     C     3.15156  3.15156  0.00000 -0.30313
      11     H     0.42290  0.42290  0.00000  0.15420
      12     H     0.42521  0.42521  0.00000  0.14957
      13     C     3.15637  3.15637  0.00000 -0.31274
      14     H     0.42172  0.42172  0.00000  0.15657
      15     H     0.42236  0.42236  0.00000  0.15528
      16     C     3.15603  3.15603  0.00000 -0.31207
      17     H     0.41889  0.41889  0.00000  0.16221
      18     H     0.42253  0.42253  0.00000  0.15494
      19     C     3.15259  3.15259  0.00000 -0.30518
      20     H     0.42058  0.42058  0.00000  0.15883
      21     H     0.42194  0.42194  0.00000  0.15612
      22     C     3.24025  3.24025  0.00000 -0.48050
      23     H     0.42247  0.42247  0.00000  0.15507
      24     H     0.42413  0.42413  0.00000  0.15174
      25     H     0.42112  0.42112  0.00000  0.15776
      26     H     0.41946  0.41946  0.00000  0.16108
      27     H     0.42161  0.42161  0.00000  0.15677

   Total alpha = 37.00000, Total beta = 37.00000, Total charge =  0.00000
