  ==> Input File <==

--------------------------------------------------------------------------
set {
	reference rhf
	basis cc-pvtz
}

set_num_threads( 4 )
memory 2 gb

molecule MOL {
0 1

O	 3.219313	 0.959291	 -0.614106
C	 2.698710	 0.058177	 -0.050237
C	 1.246364	 -0.005813	 0.348416
O	 3.344101	 -1.038700	 0.312317
C	 0.453207	 1.232821	 -0.049003
H	 0.839270	 -0.907818	 -0.092281
H	 1.216683	 -0.160521	 1.422434
C	 -0.998367	 1.217982	 0.432195
H	 0.481498	 1.345443	 -1.127236
H	 0.951413	 2.105557	 0.354893
C	 -1.882951	 0.151251	 -0.211235
H	 -1.429490	 2.193659	 0.228843
H	 -1.019755	 1.099323	 1.513279
C	 -3.342450	 0.243269	 0.226009
H	 -1.826223	 0.246578	 -1.293162
H	 -1.508033	 -0.839650	 0.027695
C	 -4.234517	 -0.821434	 -0.405970
H	 -3.730149	 1.228245	 -0.022691
H	 -3.398860	 0.159952	 1.308941
C	 -4.092478	 -2.190224	 0.251310
H	 -5.271161	 -0.500781	 -0.348770
H	 -4.000100	 -0.904537	 -1.463798
H	 -4.738199	 -2.921868	 -0.220628
H	 -4.354258	 -2.148146	 1.303360
H	 -3.072952	 -2.554564	 0.180378
C	 4.720529	 -1.114346	 0.001449
H	 4.874321	 -1.055557	 -1.065852
H	 5.057824	 -2.067950	 0.373977
H	 5.264321	 -0.313596	 0.480350

	symmetry c1
}
set optking {
	frozen_dihedral = ("
		21 17 14 11
	")
}

ee = optimize('scf')
oeprop('DIPOLE', 'QUADRUPOLE', 'MULLIKEN_CHARGES')
f=open( 'psi4out.xyz', 'w' )
f.write( "29  " )
f.write( str(ee) + "\n" )
f.write( MOL.save_string_xyz() )
f.close()
--------------------------------------------------------------------------

    Molecular point group: c1
  Charge       = 0
  Multiplicity = 1
  Basis Set: CC-PVTZ
  Basis Set:
  @DF-RHF Final Energy:  -501.22258710044946
    Total Energy =                       -501.2225871004495730
    Molecular point group: c1
  Basis Set: CC-PVTZ
  Basis Set:
  Basis Set: CC-PVTZ
  Basis Set:
  @DF-RHF Final Energy:  -501.22279528858257
    Total Energy =                       -501.2227952885823470
  Basis Set: CC-PVTZ
  Basis Set:
  Basis Set: CC-PVTZ
  Basis Set:
  @DF-RHF Final Energy:  -501.22279741722127
    Total Energy =                       -501.2227974172219547
  Basis Set: CC-PVTZ
  Basis Set:
  Basis Set: CC-PVTZ
  Basis Set:
  @DF-RHF Final Energy:  -501.22280910118025
    Total Energy =                       -501.2228091011800188
  Basis Set: CC-PVTZ
  Basis Set:
  Basis Set: CC-PVTZ
  Basis Set:
  @DF-RHF Final Energy:  -501.22281548566946
    Total Energy =                       -501.2228154856696847
  Basis Set: CC-PVTZ
  Basis Set:
  Charge       = 0
  Multiplicity = 1
  Basis Set: CC-PVTZ
  Basis Set:

    Orbital Energies (a.u.)
    -----------------------

    Doubly Occupied:

       1A    -20.596021     2A    -20.533869     3A    -11.364285
       4A    -11.278265     5A    -11.233002     6A    -11.217043
       7A    -11.215457     8A    -11.214145     9A    -11.213480
      10A    -11.212460    11A    -11.207563    12A     -1.471913
      13A     -1.365502    14A     -1.099243    15A     -1.067428
      16A     -1.019505    17A     -0.977094    18A     -0.929054
      19A     -0.869144    20A     -0.802634    21A     -0.783207
      22A     -0.765850    23A     -0.703013    24A     -0.685501
      25A     -0.676017    26A     -0.643663    27A     -0.630743
      28A     -0.608825    29A     -0.597318    30A     -0.589539
      31A     -0.560242    32A     -0.555525    33A     -0.535624
      34A     -0.526359    35A     -0.522602    36A     -0.510690
      37A     -0.497016    38A     -0.477371    39A     -0.473956
      40A     -0.463212    41A     -0.459836    42A     -0.451640
      43A     -0.444225    44A     -0.437777

  @DF-RHF Final Energy:  -501.22281639509470

   => Energetics <=

    Nuclear Repulsion Energy =            617.1055028740963735
    One-Electron Energy =               -1905.6829182401315848
    Two-Electron Energy =                 787.3545989709398327
    DFT Exchange-Correlation Energy =       0.0000000000000000
    Empirical Dispersion Energy =           0.0000000000000000
    PCM Polarization Energy =               0.0000000000000000
    EFP Energy =                            0.0000000000000000
    Total Energy =                       -501.2228163950953785
    Molecular point group: c1
  Basis Set: CC-PVTZ
  Basis Set:

  -Total Gradient:
     Atom            X                  Y                   Z
    ------   -----------------  -----------------  -----------------
       1       -0.000002367517    -0.000000787533    -0.000011895989
       2        0.000004840686     0.000014910617     0.000028801991
       3       -0.000004148785    -0.000014323488    -0.000018382003
       4       -0.000003119672    -0.000004670472    -0.000004353056
       5       -0.000003096268    -0.000012383178    -0.000015706673
       6       -0.000001130709     0.000004020048     0.000007009285
       7        0.000009154816     0.000001772220     0.000001577485
       8        0.000001408239    -0.000013028695     0.000018865979
       9        0.000005858592     0.000018598582    -0.000002125420
      10       -0.000003963344    -0.000008518537     0.000018012088
      11       -0.000251718140     0.000806325856    -0.001050799869
      12        0.000004328246    -0.000010064945    -0.000022517961
      13       -0.000004497271     0.000020371835     0.000009189327
      14        0.000414862572    -0.000997783713     0.001149590358
      15       -0.000017351927     0.000012307473    -0.000002676808
      16        0.000002995918     0.000004996356    -0.000011806562
      17       -0.000296622862    -0.000697200217     0.001621697470
      18       -0.000010121426     0.000005169547    -0.000025336070
      19       -0.000008186744     0.000010081509    -0.000013754764
      20        0.000005412120     0.000017642819     0.000004004786
      21        0.000173425641     0.000822281067    -0.001654425462
      22       -0.000005068472     0.000011795468    -0.000007294872
      23       -0.000004919186    -0.000004541764    -0.000003679966
      24       -0.000005380075    -0.000001509836    -0.000004226387
      25        0.000000948405     0.000015489405    -0.000006604888
      26       -0.000000952943    -0.000000973079    -0.000003857432
      27        0.000002259167    -0.000000209039    -0.000000175484
      28       -0.000000567685     0.000000044639     0.000000354297
      29       -0.000002281378     0.000000187058     0.000000516600

  **** Optimization is complete! (in 6 steps) ****
    Final optimized geometry and variables:
    Molecular point group: c1

    Geometry (in Angstrom), charge = 0, multiplicity = 1:

    O            3.071764998058     1.107696629778    -0.636733601587
    C            2.556063152283     0.204593229076    -0.071544984282
    C            1.104353252942     0.133755546035     0.328429968943
    O            3.207122408217    -0.888967212846     0.290906595821
    C            0.304854722048     1.368349075874    -0.068921027237
    H            0.701381977549    -0.770466021420    -0.111540077451
    H            1.076304725059    -0.020662005868     1.402532543126
    C           -1.146333408296     1.347143470958     0.413237640663
    H            0.332044501698     1.480941519144    -1.147194722633
    H            0.799082787593     2.243574789089     0.334527314196
    C           -2.026537027540     0.275313757191    -0.228127137691
    H           -1.582080929119     2.320594794691     0.208815604063
    H           -1.166424787082     1.229970842578     1.494494003352
    C           -3.489479911530     0.377322429342     0.201443152560
    H           -1.969883652784     0.368145731530    -1.310168915638
    H           -1.644175192631    -0.710505130034     0.014774918053
    C           -4.404360340805    -0.683591064140    -0.417006092051
    H           -3.857422883616     1.360854919066    -0.076764491716
    H           -3.557081345166     0.325318899920     1.285498395883
    C           -4.296183744543    -2.062708005362     0.227461452859
    H           -5.432411531945    -0.340859443066    -0.356333541314
    H           -4.185700904837    -0.764276657063    -1.478745127158
    H           -4.968732305924    -2.767203362280    -0.248481389420
    H           -4.553982951495    -2.020237141983     1.280573858621
    H           -3.293406285002    -2.466744664245     0.149564184232
    C            4.583564087363    -0.958176183985    -0.021456232438
    H            4.735890821728    -0.899248875730    -1.088963405622
    H            4.925931023221    -1.909915102910     0.351230906280
    H            5.124003069050    -0.154518173290     0.456373922507

  Mulliken Charges: (a.u.)
   Center  Symbol    Alpha    Beta     Spin     Total
       1     O     4.19698  4.19698  0.00000 -0.39395
       2     C     2.80479  2.80479  0.00000  0.39041
       3     C     3.10175  3.10175  0.00000 -0.20350
       4     O     4.14723  4.14723  0.00000 -0.29447
       5     C     3.09221  3.09221  0.00000 -0.18442
       6     H     0.43961  0.43961  0.00000  0.12077
       7     H     0.43979  0.43979  0.00000  0.12042
       8     C     3.10325  3.10325  0.00000 -0.20650
       9     H     0.44622  0.44622  0.00000  0.10755
      10     H     0.43959  0.43959  0.00000  0.12082
      11     C     3.09399  3.09399  0.00000 -0.18797
      12     H     0.44535  0.44535  0.00000  0.10931
      13     H     0.45347  0.45347  0.00000  0.09305
      14     C     3.09442  3.09442  0.00000 -0.18884
      15     H     0.45293  0.45293  0.00000  0.09415
      16     H     0.45229  0.45229  0.00000  0.09543
      17     C     3.09018  3.09018  0.00000 -0.18036
      18     H     0.44830  0.44830  0.00000  0.10341
      19     H     0.45486  0.45486  0.00000  0.09029
      20     C     3.14938  3.14938  0.00000 -0.29877
      21     H     0.44778  0.44778  0.00000  0.10444
      22     H     0.45572  0.45572  0.00000  0.08857
      23     H     0.44701  0.44701  0.00000  0.10599
      24     H     0.45507  0.45507  0.00000  0.08985
      25     H     0.45581  0.45581  0.00000  0.08837
      26     C     3.03821  3.03821  0.00000 -0.07642
      27     H     0.45436  0.45436  0.00000  0.09129
      28     H     0.44526  0.44526  0.00000  0.10948
      29     H     0.45420  0.45420  0.00000  0.09159

   Total alpha = 44.00000, Total beta = 44.00000, Total charge =  0.00000
