  ==> Input File <==

--------------------------------------------------------------------------
set {
	reference rhf
	basis cc-pvtz
}

set_num_threads( 4 )
memory 2 gb

molecule MOL {
0 1

H	 2.530620	 -0.931366	 -0.243237
O	 1.675515	 -0.612943	 -0.465627
C	 1.135873	 0.113391	 0.608264
C	 0.027642	 1.012027	 0.090274
H	 1.902972	 0.727968	 1.072615
H	 0.756163	 -0.561896	 1.370018
C	 -1.138737	 0.285728	 -0.581921
H	 0.464661	 1.708096	 -0.618252
H	 -0.340737	 1.603071	 0.925246
C	 -1.933983	 -0.631436	 0.343653
H	 -0.763151	 -0.285569	 -1.422081
H	 -1.808359	 1.035291	 -0.992333
H	 -2.789188	 -1.049673	 -0.174718
H	 -1.335629	 -1.461368	 0.700418
H	 -2.305435	 -0.092167	 1.209725

	symmetry c1
}
set optking {
	frozen_dihedral = ("
		1 2 3 4
	")
}

ee = optimize('scf')
oeprop('DIPOLE', 'QUADRUPOLE', 'MULLIKEN_CHARGES')
f=open( 'psi4out.xyz', 'w' )
f.write( "15  " )
f.write( str(ee) + "\n" )
f.write( MOL.save_string_xyz() )
f.close()
--------------------------------------------------------------------------

    Molecular point group: c1
  Charge       = 0
  Multiplicity = 1
  Basis Set: CC-PVTZ
  Basis Set:
  @DF-RHF Final Energy:  -232.23717980124360
    Total Energy =                       -232.2371798012436557
    Molecular point group: c1
  Basis Set: CC-PVTZ
  Basis Set:
  Basis Set: CC-PVTZ
  Basis Set:
  @DF-RHF Final Energy:  -232.23719370391822
    Total Energy =                       -232.2371937039184218
  Basis Set: CC-PVTZ
  Basis Set:
  Basis Set: CC-PVTZ
  Basis Set:
  @DF-RHF Final Energy:  -232.23719624481950
    Total Energy =                       -232.2371962448194154
  Basis Set: CC-PVTZ
  Basis Set:
  Basis Set: CC-PVTZ
  Basis Set:
  @DF-RHF Final Energy:  -232.23719973949960
    Total Energy =                       -232.2371997394996583
  Basis Set: CC-PVTZ
  Basis Set:
  Charge       = 0
  Multiplicity = 1
  Basis Set: CC-PVTZ
  Basis Set:

    Orbital Energies (a.u.)
    -----------------------

    Doubly Occupied:

       1A    -20.546187     2A    -11.265442     3A    -11.210804
       4A    -11.207008     5A    -11.202125     6A     -1.363922
       7A     -1.065086     8A     -0.971079     9A     -0.869295
      10A     -0.775821    11A     -0.706101    12A     -0.649369
      13A     -0.610279    14A     -0.571889    15A     -0.567362
      16A     -0.532603    17A     -0.510822    18A     -0.477311
      19A     -0.467103    20A     -0.452293    21A     -0.432367

  @DF-RHF Final Energy:  -232.23719987382583

   => Energetics <=

    Nuclear Repulsion Energy =            191.9348814612987439
    One-Electron Energy =                -695.4356273088001217
    Two-Electron Energy =                 271.2635459736754910
    DFT Exchange-Correlation Energy =       0.0000000000000000
    Empirical Dispersion Energy =           0.0000000000000000
    PCM Polarization Energy =               0.0000000000000000
    EFP Energy =                            0.0000000000000000
    Total Energy =                       -232.2371998738258867
    Molecular point group: c1
  Basis Set: CC-PVTZ
  Basis Set:

  -Total Gradient:
     Atom            X                  Y                   Z
    ------   -----------------  -----------------  -----------------
       1        0.000563309034     0.001127356140    -0.000523494527
       2       -0.000475590454    -0.001175542121     0.000591894538
       3       -0.000644103915    -0.000574654531     0.000071624146
       4        0.000555451495     0.000603482794    -0.000157364686
       5        0.000000692159     0.000002948720     0.000001673968
       6       -0.000003726320    -0.000002038399     0.000004851742
       7       -0.000000315382     0.000004542625     0.000009988115
       8       -0.000008933411     0.000005300153    -0.000006262993
       9       -0.000005360708    -0.000003035387    -0.000002644569
      10        0.000009436337    -0.000002588378     0.000000940944
      11        0.000003421722     0.000000192501     0.000012726827
      12        0.000002901873     0.000011606881    -0.000003507926
      13       -0.000000295462     0.000003737681    -0.000003432120
      14        0.000003454293    -0.000002548774     0.000001814580
      15       -0.000000341260     0.000001240095     0.000001191960

  **** Optimization is complete! (in 5 steps) ****
    Final optimized geometry and variables:
    Molecular point group: c1

    Geometry (in Angstrom), charge = 0, multiplicity = 1:

    H            2.515312012359    -0.952245475359    -0.240964585905
    O            1.660540749146    -0.631655020555    -0.459177337236
    C            1.135153401735     0.115825308288     0.608470575951
    C            0.026358242985     1.015799269732     0.093069374514
    H            1.909197499461     0.734203938182     1.054867409807
    H            0.764459955608    -0.547961830328     1.384383522652
    C           -1.137727768270     0.288435381495    -0.582227304323
    H            0.462295993901     1.714597131872    -0.613262951588
    H           -0.345011347595     1.602262444112     0.930107540122
    C           -1.928601525598    -0.635903266039     0.339788617350
    H           -0.759876065961    -0.278346711946    -1.424518533950
    H           -1.809929063377     1.037150584905    -0.989966467767
    H           -2.780911412946    -1.057272762097    -0.180768719032
    H           -1.325219757009    -1.463090148009     0.694090229584
    H           -2.303967106032    -0.101293024764     1.207070021933

  Mulliken Charges: (a.u.)
   Center  Symbol    Alpha    Beta     Spin     Total
       1     H     0.39449  0.39449  0.00000  0.21102
       2     O     4.20011  4.20011  0.00000 -0.40022
       3     C     2.97610  2.97610  0.00000  0.04781
       4     C     3.09212  3.09212  0.00000 -0.18424
       5     H     0.46378  0.46378  0.00000  0.07245
       6     H     0.47186  0.47186  0.00000  0.05628
       7     C     3.08711  3.08711  0.00000 -0.17423
       8     H     0.45022  0.45022  0.00000  0.09955
       9     H     0.45548  0.45548  0.00000  0.08903
      10     C     3.15483  3.15483  0.00000 -0.30966
      11     H     0.44665  0.44665  0.00000  0.10670
      12     H     0.45075  0.45075  0.00000  0.09851
      13     H     0.44682  0.44682  0.00000  0.10636
      14     H     0.45230  0.45230  0.00000  0.09540
      15     H     0.45738  0.45738  0.00000  0.08524

   Total alpha = 21.00000, Total beta = 21.00000, Total charge = -0.00000
