                              Psi4 1.0.54 Driver

  ==> Input File <==

--------------------------------------------------------------------------
set {
	reference rhf
	basis cc-pvtz
}

set_num_threads( 4 )
memory 2 gb

molecule MOL {
0 1

H	 -3.034039	 -0.667848	 0.004703
O	 -2.240597	 -1.171748	 0.000934
C	 -1.159675	 -0.364500	 0.000370
C	 -1.171483	 0.887930	 -0.579022
C	 -0.010672	 -0.841792	 0.611956
H	 -2.060503	 1.259101	 -1.055399
C	 -0.020887	 1.656628	 -0.540856
H	 -0.034100	 -1.820421	 1.050902
C	 1.135079	 -0.072964	 0.651171
H	 -0.025294	 2.630357	 -0.993188
C	 1.123395	 1.188629	 0.064458
C	 2.377528	 -0.582365	 1.337083
H	 2.007986	 1.796592	 0.082891
H	 3.261425	 -0.369436	 0.748686
H	 2.328348	 -1.650532	 1.499399
H	 2.504094	 -0.104317	 2.302533

	symmetry c1
}
set optking {
	frozen_dihedral = ("
		5 3 2 1
	")
}

ee,wfn = optimize('scf', return_wfn=True)
oeprop( wfn, 'DIPOLE', 'QUADRUPOLE', 'MULLIKEN_CHARGES')
f=open( 'psi4out.xyz', 'w' )
f.write( "16  " )
f.write( str(ee) + "\n" )
f.write( MOL.save_string_xyz() )
f.close()
--------------------------------------------------------------------------

    Molecular point group: c1
  Charge       = 0
  Multiplicity = 1
  Basis Set: CC-PVTZ
  Basis Set:
  @DF-RHF Final Energy:  -344.71947882535966
    Total Energy =                       -344.7194788253595448
    Molecular point group: c1
  Basis Set: CC-PVTZ
  Basis Set:
  Basis Set: CC-PVTZ
  Basis Set:
  @DF-RHF Final Energy:  -344.71952747023852
    Total Energy =                       -344.7195274702386314
  Basis Set: CC-PVTZ
  Basis Set:
  Basis Set: CC-PVTZ
  Basis Set:
  @DF-RHF Final Energy:  -344.71953638538707
    Total Energy =                       -344.7195363853867320
  Basis Set: CC-PVTZ
  Basis Set:
  Charge       = 0
  Multiplicity = 1
  Basis Set: CC-PVTZ
  Basis Set:

    Orbital Energies (a.u.)
    -----------------------

    Doubly Occupied:

       1A    -20.579256     2A    -11.292989     3A    -11.240473
       4A    -11.232517     5A    -11.219812     6A    -11.219237
       7A    -11.214759     8A    -11.214319     9A     -1.408983
      10A     -1.154316    11A     -1.046342    12A     -1.008380
      13A     -0.938671    14A     -0.827219    15A     -0.824733
      16A     -0.717837    17A     -0.683457    18A     -0.657727
      19A     -0.616605    20A     -0.594994    21A     -0.576298
      22A     -0.570887    23A     -0.560444    24A     -0.530233
      25A     -0.507103    26A     -0.484933    27A     -0.471773
      28A     -0.333341    29A     -0.313308

  @DF-RHF Final Energy:  -344.71953725768810

   => Energetics <=

    Nuclear Repulsion Energy =            346.2646115746473470
    One-Electron Energy =               -1153.8864063651942615
    Two-Electron Energy =                 462.9022575328585845
    DFT Exchange-Correlation Energy =       0.0000000000000000
    Empirical Dispersion Energy =           0.0000000000000000
    PCM Polarization Energy =               0.0000000000000000
    EFP Energy =                            0.0000000000000000
    Total Energy =                       -344.7195372576883301
    Molecular point group: c1
  Basis Set: CC-PVTZ
  Basis Set:

  -Total Gradient:
     Atom            X                  Y                   Z
    ------   -----------------  -----------------  -----------------
       1        0.000005843214     0.000000871199     0.002604555251
       2       -0.000266528444     0.000294123655    -0.002467993699
       3        0.000826769708    -0.000932306979    -0.001763716628
       4       -0.000042109263    -0.000113469915     0.000022035664
       5       -0.000472069650     0.000778153327     0.001607689077
       6        0.000007315794     0.000001248329    -0.000003952521
       7        0.000151921706     0.000029248297     0.000008209763
       8       -0.000015728603    -0.000017241663     0.000025521603
       9       -0.000043491334    -0.000183051017    -0.000018446561
      10       -0.000018823595     0.000007279438     0.000014118117
      11       -0.000113223634     0.000119443416    -0.000042471140
      12       -0.000017256096     0.000017213656     0.000019128017
      13        0.000007291019    -0.000005023786    -0.000003680501
      14       -0.000015685335     0.000005894070    -0.000005623715
      15       -0.000001751477    -0.000000867569    -0.000004884925
      16        0.000007525988    -0.000001514458     0.000009512197

  **** Optimization is complete! (in 4 steps) ****
    Final optimized geometry and variables:
    Molecular point group: c1

    Geometry (in Angstrom), charge = 0, multiplicity = 1:

    H           -3.000241582085    -0.715389345469    -0.237970746439
    O           -2.207666549358    -1.220835266646    -0.232994832087
    C           -1.122894382243    -0.410326618204    -0.211971351040
    C           -1.133810869033     0.842788661025    -0.789635711931
    C            0.019412302614    -0.884079319062     0.411473271429
    H           -2.017787993146     1.205107777060    -1.280863211762
    C            0.013261028745     1.615154770119    -0.739331368216
    H           -0.008610618298    -1.860088483410     0.856064286340
    C            1.167664963712    -0.117028245577     0.453027721879
    H            0.010751128873     2.590209997765    -1.188756092246
    C            1.155660220369     1.145168950001    -0.130063415888
    C            2.406422752639    -0.625047735248     1.146817611662
    H            2.039441540114     1.754360616871    -0.106029188857
    H            3.292981947010    -0.415660048303     0.561111708003
    H            2.355308228642    -1.692641676948     1.312390871562
    H            2.530296209293    -0.143957751823     2.111121841079

  Mulliken Charges: (a.u.)
   Center  Symbol    Alpha    Beta     Spin     Total
       1     H     0.38592  0.38592  0.00000  0.22816
       2     O     4.18054  4.18054  0.00000 -0.36108
       3     C     2.84511  2.84511  0.00000  0.30978
       4     C     3.14320  3.14320  0.00000 -0.28640
       5     C     3.13962  3.13962  0.00000 -0.27925
       6     H     0.43038  0.43038  0.00000  0.13924
       7     C     3.05811  3.05811  0.00000 -0.11623
       8     H     0.42108  0.42108  0.00000  0.15784
       9     C     2.93725  2.93725  0.00000  0.12550
      10     H     0.42288  0.42288  0.00000  0.15423
      11     C     3.11629  3.11629  0.00000 -0.23258
      12     C     3.14666  3.14666  0.00000 -0.29332
      13     H     0.42766  0.42766  0.00000  0.14467
      14     H     0.44806  0.44806  0.00000  0.10389
      15     H     0.45011  0.45011  0.00000  0.09979
      16     H     0.44712  0.44712  0.00000  0.10576

   Total alpha = 29.00000, Total beta = 29.00000, Total charge =  0.00000

*** Psi4 exiting successfully. Buy a developer a beer!
