  ==> Input File <==

--------------------------------------------------------------------------
set {
	reference rhf
	basis 6-31G*
}

set_num_threads( 4 )
memory 2 gb

molecule MOL {
0 1

H	 5.268524	 0.192471	 1.070992
C	 4.673736	 -0.214914	 0.259335
C	 3.185378	 -0.203514	 0.605509
H	 4.871837	 0.380453	 -0.627026
H	 5.025590	 -1.224632	 0.065769
C	 2.317601	 -0.778379	 -0.516234
H	 2.874655	 0.814325	 0.817774
H	 3.023650	 -0.778480	 1.515976
C	 0.897980	 -0.211877	 -0.548169
H	 2.791951	 -0.594270	 -1.473699
H	 2.252315	 -1.857563	 -0.397320
C	 0.811247	 1.236437	 -1.006544
H	 0.286245	 -0.792124	 -1.237272
H	 0.418742	 -0.309172	 0.423448
C	 -0.469308	 1.994016	 -0.701642
O	 1.705611	 1.759280	 -1.600810
C	 -1.714806	 1.398890	 -1.375233
H	 -0.318579	 3.015651	 -1.029144
H	 -0.614851	 2.007342	 0.376933
C	 -2.967794	 2.241010	 -1.127308
H	 -1.540354	 1.320822	 -2.446254
H	 -1.888358	 0.388624	 -1.013691
C	 -4.214141	 1.658973	 -1.792707
H	 -2.799516	 3.250635	 -1.493916
H	 -3.136108	 2.327899	 -0.056086
H	 -4.087822	 1.590080	 -2.869286
H	 -4.428889	 0.661280	 -1.420410
H	 -5.084953	 2.277693	 -1.601004

	symmetry c1
}
set optking {
	frozen_dihedral = ("
		10 6 3 2
	")
}

ee = optimize('scf')
oeprop('DIPOLE', 'QUADRUPOLE', 'MULLIKEN_CHARGES')
f=open( 'psi4out.xyz', 'w' )
f.write( "28  " )
f.write( str(ee) + "\n" )
f.write( MOL.save_string_xyz() )
f.close()
--------------------------------------------------------------------------

    Molecular point group: c1
  Charge       = 0
  Multiplicity = 1
  Basis Set: 6-31G*
  Basis Set:
  @DF-RHF Final Energy:  -426.16668626830074
    Total Energy =                       -426.1666862683007366
    Molecular point group: c1
  Basis Set: 6-31G*
  Basis Set:
  Basis Set: 6-31G*
  Basis Set:
  @DF-RHF Final Energy:  -426.16688515547935
    Total Energy =                       -426.1668851554799176
  Basis Set: 6-31G*
  Basis Set:
  Basis Set: 6-31G*
  Basis Set:
  @DF-RHF Final Energy:  -426.16678668574900
    Total Energy =                       -426.1667866857483205
  Basis Set: 6-31G*
  Basis Set:
  Basis Set: 6-31G*
  Basis Set:
  @DF-RHF Final Energy:  -426.16694396122114
    Total Energy =                       -426.1669439612212500
  Basis Set: 6-31G*
  Basis Set:
  Basis Set: 6-31G*
  Basis Set:
  @DF-RHF Final Energy:  -426.16693247911178
    Total Energy =                       -426.1669324791106419
  Basis Set: 6-31G*
  Basis Set:
  Basis Set: 6-31G*
  Basis Set:
  @DF-RHF Final Energy:  -426.16694374006545
    Total Energy =                       -426.1669437400659035
  Basis Set: 6-31G*
  Basis Set:
  Basis Set: 6-31G*
  Basis Set:
  @DF-RHF Final Energy:  -426.16695022731551
    Total Energy =                       -426.1669502273158514
  Basis Set: 6-31G*
  Basis Set:
  Charge       = 0
  Multiplicity = 1
  Basis Set: 6-31G*
  Basis Set:

    Orbital Energies (a.u.)
    -----------------------

    Doubly Occupied:

       1A    -20.548388     2A    -11.322057     3A    -11.232526
       4A    -11.230253     5A    -11.228934     6A    -11.226163
       7A    -11.216388     8A    -11.215915     9A    -11.212361
      10A    -11.203177    11A     -1.393372    12A     -1.095073
      13A     -1.076249    14A     -1.022195    15A     -0.990229
      16A     -0.907087    17A     -0.872622    18A     -0.809366
      19A     -0.799249    20A     -0.723155    21A     -0.668858
      22A     -0.652310    23A     -0.626447    24A     -0.620729
      25A     -0.608516    26A     -0.589695    27A     -0.577252
      28A     -0.571059    29A     -0.543962    30A     -0.529653
      31A     -0.522878    32A     -0.505327    33A     -0.500612
      34A     -0.484756    35A     -0.478130    36A     -0.474745
      37A     -0.469710    38A     -0.462885    39A     -0.455113
      40A     -0.392720

  @DF-RHF Final Energy:  -426.16695072782693

   => Energetics <=

    Nuclear Repulsion Energy =            532.6414360599055726
    One-Electron Energy =               -1633.4965396359434635
    Two-Electron Energy =                 674.6881528482113026
    DFT Exchange-Correlation Energy =       0.0000000000000000
    Empirical Dispersion Energy =           0.0000000000000000
    PCM Polarization Energy =               0.0000000000000000
    EFP Energy =                            0.0000000000000000
    Total Energy =                       -426.1669507278265883
    Molecular point group: c1
  Basis Set: 6-31G*
  Basis Set:

  -Total Gradient:
     Atom            X                  Y                   Z
    ------   -----------------  -----------------  -----------------
       1        0.000001678924    -0.000003058724    -0.000001562118
       2       -0.000201452369     0.002507185814    -0.001111867025
       3        0.000726682130    -0.004321343704     0.001612575026
       4       -0.000000978015     0.000001309992    -0.000003336131
       5       -0.000000134888     0.000005817655     0.000001510017
       6       -0.002283136869     0.005133563039    -0.000742068056
       7       -0.000005006107     0.000016774909     0.000000413827
       8       -0.000005904921     0.000003135086     0.000003982657
       9        0.000015812451    -0.000025418209    -0.000003461864
      10        0.001766065360    -0.003362369444     0.000254686796
      11        0.000010795993    -0.000009910631     0.000009721161
      12        0.000008577821     0.000036023638     0.000019019187
      13       -0.000001039800     0.000010405165    -0.000001552443
      14       -0.000004927265    -0.000006703276    -0.000002512281
      15       -0.000020195318    -0.000027407043    -0.000060986428
      16       -0.000020786071     0.000023138937    -0.000009932783
      17       -0.000004003638     0.000013382548     0.000024974280
      18       -0.000002895323     0.000001264510     0.000005659024
      19        0.000019142329    -0.000001551450     0.000013391805
      20        0.000002214354     0.000002196096    -0.000005584518
      21        0.000002327340    -0.000000769107    -0.000002361166
      22       -0.000003174184     0.000004794176    -0.000002828868
      23        0.000000195802    -0.000002603141     0.000003890927
      24       -0.000001903566     0.000000873262    -0.000002536377
      25        0.000002033254     0.000002226361    -0.000000259139
      26        0.000000089636     0.000001109712     0.000000647576
      27       -0.000000393325    -0.000001364912    -0.000000936774
      28        0.000000316262    -0.000000701261     0.000001313692

  **** Optimization is complete! (in 8 steps) ****
    Final optimized geometry and variables:
    Molecular point group: c1

    Geometry (in Angstrom), charge = 0, multiplicity = 1:

    H            4.902877742527    -0.768638092731     1.798095135275
    C            4.278521620596    -1.137520313686     0.990064327571
    C            2.798982104422    -1.090286544642     1.367900934140
    H            4.465814343553    -0.524300916301     0.114691545957
    H            4.598545002275    -2.151227882000     0.762472260172
    C            1.885940077970    -1.655157580863     0.268453242604
    H            2.535183275156    -0.055517568608     1.566101567716
    H            2.630852653476    -1.633082317423     2.295158969774
    C            0.467905053160    -1.089756831429     0.284957346628
    H            2.334651138442    -1.492966404802    -0.704656823774
    H            1.823169002655    -2.734814559259     0.385987946035
    C            0.373218510784     0.356952876264    -0.176795947166
    H           -0.172836613660    -1.674221868951    -0.373047311755
    H            0.026818518345    -1.175518780668     1.275997931395
    C           -0.918683789359     1.103224405822     0.108759020687
    O            1.272699371728     0.888913323077    -0.754936755798
    C           -2.146417699827     0.507710518553    -0.596443861298
    H           -0.767441200997     2.128639077595    -0.206457507705
    H           -1.087227413256     1.106207213748     1.184022364103
    C           -3.407069649024     1.345477587952    -0.374004270652
    H           -1.946921267614     0.434843632507    -1.663435000097
    H           -2.325794691726    -0.504473782529    -0.243340643386
    C           -4.636484818135     0.761986111912    -1.068968661478
    H           -3.233539777378     2.356722967744    -0.733600785187
    H           -3.599583570695     1.428456344109     0.693458275687
    H           -4.485863115001     0.696844636639    -2.142647808429
    H           -4.856632822841    -0.237469084241    -0.704651449141
    H           -5.513174385263     1.377645998139    -0.894917597309

  Mulliken Charges: (a.u.)
   Center  Symbol    Alpha    Beta     Spin     Total
       1     H     0.42091  0.42091  0.00000  0.15818
       2     C     3.24159  3.24159  0.00000 -0.48317
       3     C     3.15217  3.15217  0.00000 -0.30434
       4     H     0.41315  0.41315  0.00000  0.17371
       5     H     0.42414  0.42414  0.00000  0.15173
       6     C     3.15120  3.15120  0.00000 -0.30240
       7     H     0.41822  0.41822  0.00000  0.16355
       8     H     0.42481  0.42481  0.00000  0.15038
       9     C     3.21201  3.21201  0.00000 -0.42403
      10     H     0.40650  0.40650  0.00000  0.18701
      11     H     0.42110  0.42110  0.00000  0.15781
      12     C     2.73138  2.73138  0.00000  0.53725
      13     H     0.40351  0.40351  0.00000  0.19298
      14     H     0.41250  0.41250  0.00000  0.17500
      15     C     3.20175  3.20175  0.00000 -0.40350
      16     O     4.26648  4.26648  0.00000 -0.53297
      17     C     3.16371  3.16371  0.00000 -0.32742
      18     H     0.39975  0.39975  0.00000  0.20050
      19     H     0.41308  0.41308  0.00000  0.17384
      20     C     3.15181  3.15181  0.00000 -0.30363
      21     H     0.41371  0.41371  0.00000  0.17257
      22     H     0.41875  0.41875  0.00000  0.16250
      23     C     3.24034  3.24034  0.00000 -0.48068
      24     H     0.41835  0.41835  0.00000  0.16330
      25     H     0.42142  0.42142  0.00000  0.15716
      26     H     0.41959  0.41959  0.00000  0.16082
      27     H     0.42120  0.42120  0.00000  0.15760
      28     H     0.41686  0.41686  0.00000  0.16627

   Total alpha = 40.00000, Total beta = 40.00000, Total charge = -0.00000
