  ==> Input File <==

--------------------------------------------------------------------------
set {
	reference rhf
	basis 6-31G*
}

set_num_threads( 4 )
memory 2 gb

molecule MOL {
0 1

H	 0.240300	 -5.841526	 -1.620355
C	 0.503956	 -4.904761	 -1.140035
C	 -0.655232	 -3.910898	 -1.199051
H	 0.778419	 -5.127103	 -0.112679
H	 1.385728	 -4.514308	 -1.640306
C	 -0.325230	 -2.578145	 -0.534772
H	 -1.532941	 -4.329637	 -0.716688
H	 -0.926769	 -3.735996	 -2.238795
N	 -1.456822	 -1.673418	 -0.584021
H	 -0.079463	 -2.749455	 0.509840
H	 0.570717	 -2.150407	 -0.997046
C	 -1.217365	 -0.386708	 0.039277
H	 -1.731152	 -1.535131	 -1.538306
C	 -2.452633	 0.504241	 -0.042481
H	 -0.970152	 -0.561705	 1.082934
H	 -0.359715	 0.135181	 -0.398275
C	 -3.758029	 -0.289423	 -0.010781
H	 -2.394220	 1.093569	 -0.952170
H	 -2.440793	 1.210787	 0.785871
H	 -3.816659	 -0.981993	 -0.845726
H	 -4.617837	 0.370165	 -0.069296
H	 -3.847478	 -0.867502	 0.904682

	symmetry c1
}
set optking {
	frozen_dihedral = ("
		15 12 14 18
	")
}

ee = optimize('scf')
oeprop('DIPOLE', 'QUADRUPOLE', 'MULLIKEN_CHARGES')
f=open( 'psi4out.xyz', 'w' )
f.write( "22  " )
f.write( str(ee) + "\n" )
f.write( MOL.save_string_xyz() )
f.close()
--------------------------------------------------------------------------

    Molecular point group: c1
  Charge       = 0
  Multiplicity = 1
  Basis Set: 6-31G*
  Basis Set:
  @DF-RHF Final Energy:  -290.37745312567040
    Total Energy =                       -290.3774531256702289
    Molecular point group: c1
  Basis Set: 6-31G*
  Basis Set:
  Basis Set: 6-31G*
  Basis Set:
  @DF-RHF Final Energy:  -290.37855411989995
    Total Energy =                       -290.3785541198994906
  Basis Set: 6-31G*
  Basis Set:
  Basis Set: 6-31G*
  Basis Set:
  @DF-RHF Final Energy:  -290.37936122586285
    Total Energy =                       -290.3793612258627945
  Basis Set: 6-31G*
  Basis Set:
  Basis Set: 6-31G*
  Basis Set:
  @DF-RHF Final Energy:  -290.37941810437195
    Total Energy =                       -290.3794181043722347
  Basis Set: 6-31G*
  Basis Set:
  Basis Set: 6-31G*
  Basis Set:
  @DF-RHF Final Energy:  -290.37942167439292
    Total Energy =                       -290.3794216743930292
  Basis Set: 6-31G*
  Basis Set:
  Charge       = 0
  Multiplicity = 1
  Basis Set: 6-31G*
  Basis Set:

    Orbital Energies (a.u.)
    -----------------------

    Doubly Occupied:

       1A    -15.534786     2A    -11.238677     3A    -11.238615
       4A    -11.214006     5A    -11.213979     6A    -11.210081
       7A    -11.201319     8A     -1.206572     9A     -1.057213
      10A     -1.021308    11A     -0.926377    12A     -0.878818
      13A     -0.805744    14A     -0.788433    15A     -0.662684
      16A     -0.630854    17A     -0.615862    18A     -0.607137
      19A     -0.572998    20A     -0.565929    21A     -0.533222
      22A     -0.528567    23A     -0.503227    24A     -0.488009
      25A     -0.483336    26A     -0.470001    27A     -0.461440
      28A     -0.449973    29A     -0.358424

  @DF-RHF Final Energy:  -290.37942228338687

   => Energetics <=

    Nuclear Repulsion Energy =            318.0211791979144778
    One-Electron Energy =               -1021.8660163462359378
    Two-Electron Energy =                 413.4654148649347007
    DFT Exchange-Correlation Energy =       0.0000000000000000
    Empirical Dispersion Energy =           0.0000000000000000
    PCM Polarization Energy =               0.0000000000000000
    EFP Energy =                            0.0000000000000000
    Total Energy =                       -290.3794222833867025
    Molecular point group: c1
  Basis Set: 6-31G*
  Basis Set:

  -Total Gradient:
     Atom            X                  Y                   Z
    ------   -----------------  -----------------  -----------------
       1       -0.000003049657    -0.000000150910     0.000003222370
       2       -0.000000518453     0.000002813787     0.000012801707
       3       -0.000015333684     0.000015767607    -0.000008589083
       4        0.000004482829     0.000001661270    -0.000000418233
       5       -0.000001914053    -0.000001149924    -0.000002893686
       6        0.000005862211     0.000018062913     0.000016072771
       7       -0.000001993546    -0.000003251365    -0.000008460222
       8        0.000001058149     0.000002493608     0.000002418727
       9       -0.000049589405    -0.000044815435    -0.000054761908
      10        0.000005627534    -0.000001680794     0.000002815972
      11       -0.000004806695     0.000005958648    -0.000003502828
      12       -0.003911578359    -0.004997574169     0.000872835040
      13        0.000002131341    -0.000017556478    -0.000008648135
      14       -0.002990187808    -0.004310774253    -0.003767110427
      15        0.003797888907     0.004935601144    -0.000082752789
      16       -0.000020020926     0.000028267021     0.000015209106
      17        0.000002177693    -0.000039041188     0.000028312090
      18        0.003161055564     0.004440295257     0.003004149706
      19        0.000030736719    -0.000021587481    -0.000001920860
      20       -0.000012706952    -0.000014930017     0.000001746534
      21        0.000016727164    -0.000000502698    -0.000016336222
      22       -0.000016048573     0.000002093458    -0.000004189630

  **** Optimization is complete! (in 6 steps) ****
    Final optimized geometry and variables:
    Molecular point group: c1

    Geometry (in Angstrom), charge = 0, multiplicity = 1:

    H            1.677043394960    -3.942609018277    -1.127862196658
    C            1.906724791223    -3.007769487674    -0.626788892472
    C            0.736203860399    -2.030242875973    -0.722935550519
    H            2.141846222243    -3.237958315414     0.408531104425
    H            2.802435697240    -2.598847003592    -1.085839702032
    C            1.018183826896    -0.701601871088    -0.029148250398
    H           -0.154589672256    -2.467747256147    -0.283171930550
    H            0.506162372165    -1.846078260884    -1.771105764496
    N           -0.124153307581     0.186911518872    -0.113733620195
    H            1.222929234340    -0.882056386604     1.022669948661
    H            1.925419168997    -0.254074177302    -0.448558560073
    C            0.078081829895     1.466218903930     0.533841505451
    H           -0.358176831996     0.335590209263    -1.077529433762
    C           -1.133643113311     2.402282576947     0.427272378314
    H            0.317300782459     1.301780350524     1.580766019764
    H            0.949569016973     1.993273778135     0.130563787015
    C           -2.494131033307     1.721971134135     0.560893833309
    H           -1.071248080050     2.983244117050    -0.490767094776
    H           -1.033427196571     3.143062257435     1.218046313570
    H           -2.682205153856     1.028645613259    -0.249553880287
    H           -3.288606213157     2.462367789347     0.562399203327
    H           -2.556083977379     1.160195906472     1.487382736490

  Mulliken Charges: (a.u.)
   Center  Symbol    Alpha    Beta     Spin     Total
       1     H     0.41764  0.41764  0.00000  0.16472
       2     C     3.24334  3.24334  0.00000 -0.48669
       3     C     3.15557  3.15557  0.00000 -0.31113
       4     H     0.42063  0.42063  0.00000  0.15874
       5     H     0.42160  0.42160  0.00000  0.15679
       6     C     3.04645  3.04645  0.00000 -0.09291
       7     H     0.41292  0.41292  0.00000  0.17415
       8     H     0.42669  0.42669  0.00000  0.14662
       9     N     3.85580  3.85580  0.00000 -0.71159
      10     H     0.42128  0.42128  0.00000  0.15744
      11     H     0.43616  0.43616  0.00000  0.12769
      12     C     3.04971  3.04971  0.00000 -0.09942
      13     H     0.33501  0.33501  0.00000  0.32998
      14     C     3.16573  3.16573  0.00000 -0.33146
      15     H     0.42136  0.42136  0.00000  0.15727
      16     H     0.43488  0.43488  0.00000  0.13025
      17     C     3.22966  3.22966  0.00000 -0.45932
      18     H     0.42389  0.42389  0.00000  0.15221
      19     H     0.42069  0.42069  0.00000  0.15861
      20     H     0.41758  0.41758  0.00000  0.16484
      21     H     0.42430  0.42430  0.00000  0.15140
      22     H     0.41910  0.41910  0.00000  0.16180

   Total alpha = 29.00000, Total beta = 29.00000, Total charge = -0.00000
