                              Psi4 1.0.54 Driver

  ==> Input File <==

--------------------------------------------------------------------------
set {
	reference rhf
	basis cc-pvtz
}

set_num_threads( 4 )
memory 2 gb

molecule MOL {
0 1

H	 2.614283	 2.028610	 0.296620
O	 3.358864	 1.662087	 -0.142800
C	 3.565468	 0.338079	 0.273842
C	 2.533667	 -0.637565	 -0.272227
H	 4.548038	 0.064914	 -0.086598
H	 3.593945	 0.282242	 1.360360
C	 1.114816	 -0.402372	 0.240993
H	 2.544552	 -0.580764	 -1.356576
H	 2.850574	 -1.642962	 -0.005497
C	 0.113298	 -1.420414	 -0.302504
H	 0.796373	 0.598427	 -0.031033
H	 1.113377	 -0.446476	 1.328807
C	 0.711040	 -2.777118	 -0.679748
H	 -0.678093	 -1.567760	 0.428398
H	 -0.363778	 -0.998847	 -1.182929
C	 1.238377	 -3.600275	 0.494166
H	 -0.052981	 -3.355735	 -1.191609
H	 1.510338	 -2.628252	 -1.402324
C	 1.732536	 -4.983802	 0.079355
H	 0.450906	 -3.709911	 1.236687
H	 2.049356	 -3.072138	 0.986493
C	 2.263201	 -5.806913	 1.248447
H	 0.922636	 -5.524286	 -0.402845
H	 2.513489	 -4.876250	 -0.668714
H	 1.495542	 -5.959703	 1.999841
H	 2.602767	 -6.782626	 0.920140
H	 3.099800	 -5.310621	 1.729227

	symmetry c1
}
set optking {
	frozen_dihedral = ("
		14 10 7 4
	")
}

ee,wfn = optimize('scf', return_wfn=True)
oeprop( wfn, 'DIPOLE', 'QUADRUPOLE', 'MULLIKEN_CHARGES')
f=open( 'psi4out.xyz', 'w' )
f.write( "27  " )
f.write( str(ee) + "\n" )
f.write( MOL.save_string_xyz() )
f.close()
--------------------------------------------------------------------------

    Molecular point group: c1
  Charge       = 0
  Multiplicity = 1
  Basis Set: CC-PVTZ
  Basis Set:
  @DF-RHF Final Energy:  -388.41693700544579
    Total Energy =                       -388.4169370054453339
    Molecular point group: c1
  Basis Set: CC-PVTZ
  Basis Set:
  Basis Set: CC-PVTZ
  Basis Set:
  @DF-RHF Final Energy:  -388.39845357344279
    Total Energy =                       -388.3984535734430210
  Basis Set: CC-PVTZ
  Basis Set:
  Basis Set: CC-PVTZ
  Basis Set:
  @DF-RHF Final Energy:  -388.42007378370016
    Total Energy =                       -388.4200737837001043
  Basis Set: CC-PVTZ
  Basis Set:
  Basis Set: CC-PVTZ
  Basis Set:
  @DF-RHF Final Energy:  -388.42075442874250
    Total Energy =                       -388.4207544287420433
  Basis Set: CC-PVTZ
  Basis Set:
  Basis Set: CC-PVTZ
  Basis Set:
  @DF-RHF Final Energy:  -388.42111511473331
    Total Energy =                       -388.4211151147329701
  Basis Set: CC-PVTZ
  Basis Set:
  Basis Set: CC-PVTZ
  Basis Set:
  @DF-RHF Final Energy:  -388.42112386752547
    Total Energy =                       -388.4211238675254663
  Basis Set: CC-PVTZ
  Basis Set:
  Basis Set: CC-PVTZ
  Basis Set:
  @DF-RHF Final Energy:  -388.42112536360071
    Total Energy =                       -388.4211253636008223
  Basis Set: CC-PVTZ
  Basis Set:
  Charge       = 0
  Multiplicity = 1
  Basis Set: CC-PVTZ
  Basis Set:

    Orbital Energies (a.u.)
    -----------------------

    Doubly Occupied:

       1A    -20.545344     2A    -11.265230     3A    -11.217978
       4A    -11.215324     5A    -11.214044     6A    -11.213082
       7A    -11.212319     8A    -11.211614     9A    -11.207593
      10A     -1.363371    11A     -1.095421    12A     -1.060121
      13A     -1.010529    14A     -0.951353    15A     -0.888346
      16A     -0.834009    17A     -0.799232    18A     -0.763640
      19A     -0.697479    20A     -0.656815    21A     -0.638205
      22A     -0.615489    23A     -0.605449    24A     -0.585343
      25A     -0.570325    26A     -0.556187    27A     -0.548753
      28A     -0.524643    29A     -0.516227    30A     -0.490194
      31A     -0.487856    32A     -0.478856    33A     -0.467902
      34A     -0.456873    35A     -0.447435    36A     -0.438236
      37A     -0.428427

  @DF-RHF Final Energy:  -388.42112682204436

   => Energetics <=

    Nuclear Repulsion Energy =            469.3652931639400094
    One-Electron Energy =               -1457.0143477729666301
    Two-Electron Energy =                 599.2279277869820362
    DFT Exchange-Correlation Energy =       0.0000000000000000
    Empirical Dispersion Energy =           0.0000000000000000
    PCM Polarization Energy =               0.0000000000000000
    EFP Energy =                            0.0000000000000000
    Total Energy =                       -388.4211268220445845
    Molecular point group: c1
  Basis Set: CC-PVTZ
  Basis Set:

  -Total Gradient:
     Atom            X                  Y                   Z
    ------   -----------------  -----------------  -----------------
       1       -0.000003714627     0.000000581192    -0.000006558975
       2       -0.000022279700     0.000002971601     0.000012719004
       3        0.000042076470     0.000007658969    -0.000038615260
       4        0.001992781403    -0.002345891597     0.004713049114
       5       -0.000001567406    -0.000006306136     0.000007591602
       6       -0.000004733861    -0.000001113683     0.000018310105
       7       -0.001812837830     0.002474987310    -0.006070727803
       8        0.000003937593     0.000001114187    -0.000009381029
       9        0.000017869486    -0.000027600678     0.000012438203
      10       -0.005282518365     0.004063884553    -0.002073222191
      11       -0.000018584225     0.000020861758     0.000006136998
      12        0.000004995904     0.000007919405     0.000001513274
      13        0.000006198802     0.000002822130    -0.000010660608
      14        0.005089820853    -0.004214452259     0.003437198654
      15       -0.000012503984     0.000005327017    -0.000018682743
      16        0.000005662941    -0.000009844618     0.000032047206
      17       -0.000011519468     0.000000090211    -0.000010829159
      18       -0.000002903853     0.000012905267     0.000004000254
      19        0.000003961473     0.000007753977    -0.000015937145
      20        0.000018216969     0.000010119247    -0.000023998128
      21       -0.000002499320     0.000003934766     0.000012007925
      22       -0.000017396060    -0.000004427743     0.000014915323
      23       -0.000002841470    -0.000005543697     0.000000179901
      24       -0.000019329773    -0.000004540951     0.000016208482
      25        0.000015554258     0.000002235882    -0.000016725663
      26        0.000009227470    -0.000007081027     0.000003129277
      27        0.000004926319     0.000001634913     0.000003893383

  **** Optimization is complete! (in 8 steps) ****
    Final optimized geometry and variables:
    Molecular point group: c1

    Geometry (in Angstrom), charge = 0, multiplicity = 1:

    H           -0.037589771593     4.031617066773    -0.658315358779
    O            0.750744015935     3.764991515793    -1.092847246544
    C            1.298516442780     2.638993710560    -0.460152117858
    C            0.526991994259     1.353706273764    -0.725522269686
    H            2.303358080642     2.541967985489    -0.848633671970
    H            1.382738861306     2.809192744983     0.611586049058
    C           -0.877198459542     1.354796376755    -0.121610741223
    H            0.477028297140     1.203513752987    -1.800127808743
    H            1.107960484926     0.534157604373    -0.318795096769
    C           -1.744386260093     0.101866893195    -0.372982908303
    H           -1.428465568172     2.216138234493    -0.483698356617
    H           -0.770940456207     1.497829355237     0.951278344230
    C           -1.009962543744    -1.237322903459    -0.515827203780
    H           -2.413789131997    -0.017159344913     0.473522123979
    H           -2.352130410289     0.257045082484    -1.257029546794
    C           -0.395296779422    -1.758216483846     0.782709418720
    H           -1.727788899932    -1.971960841699    -0.870183155500
    H           -0.247478714378    -1.174373842154    -1.284899977372
    C            0.330869898655    -3.089981463035     0.613509042858
    H           -1.183203845634    -1.873438908764     1.523679085261
    H            0.296283167868    -1.027962351064     1.192934086800
    C            0.921080383450    -3.622366185744     1.915093403598
    H           -0.357784219746    -3.823897726054     0.203867117244
    H            1.123807412027    -2.975448081209    -0.120574254547
    H            0.147660020598    -3.782328049806     2.658969327735
    H            1.429408065800    -4.566948730233     1.758957704180
    H            1.640242696861    -2.925578378126     2.333048959916

  Mulliken Charges: (a.u.)
   Center  Symbol    Alpha    Beta     Spin     Total
       1     H     0.39267  0.39267  0.00000  0.21467
       2     O     4.20560  4.20560  0.00000 -0.41121
       3     C     2.97831  2.97831  0.00000  0.04337
       4     C     3.09333  3.09333  0.00000 -0.18666
       5     H     0.44825  0.44825  0.00000  0.10351
       6     H     0.46981  0.46981  0.00000  0.06038
       7     C     3.11632  3.11632  0.00000 -0.23264
       8     H     0.44930  0.44930  0.00000  0.10141
       9     H     0.45272  0.45272  0.00000  0.09456
      10     C     3.09964  3.09964  0.00000 -0.19928
      11     H     0.44936  0.44936  0.00000  0.10129
      12     H     0.45089  0.45089  0.00000  0.09821
      13     C     3.11025  3.11025  0.00000 -0.22050
      14     H     0.45099  0.45099  0.00000  0.09802
      15     H     0.44425  0.44425  0.00000  0.11150
      16     C     3.08970  3.08970  0.00000 -0.17941
      17     H     0.44287  0.44287  0.00000  0.11425
      18     H     0.44853  0.44853  0.00000  0.10293
      19     C     3.08428  3.08428  0.00000 -0.16855
      20     H     0.45173  0.45173  0.00000  0.09653
      21     H     0.45481  0.45481  0.00000  0.09037
      22     C     3.14991  3.14991  0.00000 -0.29983
      23     H     0.45372  0.45372  0.00000  0.09256
      24     H     0.45400  0.45400  0.00000  0.09200
      25     H     0.45507  0.45507  0.00000  0.08986
      26     H     0.44812  0.44812  0.00000  0.10375
      27     H     0.45556  0.45556  0.00000  0.08888

   Total alpha = 37.00000, Total beta = 37.00000, Total charge = -0.00000

*** Psi4 exiting successfully. Buy a developer a beer!
