                              Psi4 1.0.54 Driver

  ==> Input File <==

--------------------------------------------------------------------------
set {
	reference rhf
	basis cc-pvtz
}

set_num_threads( 4 )
memory 2 gb

molecule MOL {
0 1

O	 -2.699718	 -0.541428	 0.612356
C	 -1.922978	 0.063265	 -0.045005
C	 -2.265509	 0.817055	 -1.299169
O	 -0.637375	 0.157174	 0.243149
H	 -1.692399	 0.422458	 -2.128359
H	 -3.320370	 0.724066	 -1.499814
H	 -1.998362	 1.859349	 -1.181586
C	 0.162530	 -1.009518	 0.097799
C	 1.587210	 -0.664190	 0.477086
H	 0.096803	 -1.356267	 -0.924704
H	 -0.233803	 -1.785900	 0.736810
C	 2.256770	 0.342732	 -0.454344
H	 2.154716	 -1.590834	 0.479041
H	 1.598751	 -0.289614	 1.496104
C	 3.698146	 0.643205	 -0.057145
H	 2.235038	 -0.042575	 -1.470299
H	 1.683491	 1.262594	 -0.461300
H	 4.150202	 1.356548	 -0.736242
H	 4.305463	 -0.255904	 -0.069842
H	 3.749130	 1.061068	 0.942759

	symmetry c1
}
set optking {
	frozen_dihedral = ("
		1 2 4 8
	")
}

ee,wfn = optimize('scf', return_wfn=True)
oeprop( wfn, 'DIPOLE', 'QUADRUPOLE', 'MULLIKEN_CHARGES')
f=open( 'psi4out.xyz', 'w' )
f.write( "20  " )
f.write( str(ee) + "\n" )
f.write( MOL.save_string_xyz() )
f.close()
--------------------------------------------------------------------------

    Molecular point group: c1
  Charge       = 0
  Multiplicity = 1
  Basis Set: CC-PVTZ
  Basis Set:
  @DF-RHF Final Energy:  -384.07076342131268
    Total Energy =                       -384.0707634213127903
    Molecular point group: c1
  Basis Set: CC-PVTZ
  Basis Set:
  Basis Set: CC-PVTZ
  Basis Set:
  @DF-RHF Final Energy:  -383.22472178390478
    Total Energy =                       -383.2247217839044993
  Basis Set: CC-PVTZ
  Basis Set:
  Basis Set: CC-PVTZ
  Basis Set:
  @DF-RHF Final Energy:  -383.43816335637547
    Total Energy =                       -383.4381633563755258
  Basis Set: CC-PVTZ
  Basis Set:
  Basis Set: CC-PVTZ
  Basis Set:
  @DF-RHF Final Energy:  -383.66218449428533
    Total Energy =                       -383.6621844942854977
  Basis Set: CC-PVTZ
  Basis Set:
  @DF-RHF Final Energy:  -383.94869381150068
    Total Energy =                       -383.9486938115009025
  @DF-RHF Final Energy:  -383.14290943645358
    Total Energy =                       -383.1429094364539765
  @DF-RHF Final Energy:  -383.53026945956208
    Total Energy =                       -383.5302694595623620
  @DF-RHF Final Energy:  -383.82766468749998
    Total Energy =                       -383.8276646875000324
  @DF-RHF Final Energy:  -384.01585180919204
    Total Energy =                       -384.0158518091917017
  @DF-RHF Final Energy:  -383.77596924458373
    Total Energy =                       -383.7759692445838482
  @DF-RHF Final Energy:  -383.98831711795532
    Total Energy =                       -383.9883171179550345
  @DF-RHF Final Energy:  -384.06605113501695
    Total Energy =                       -384.0660511350170054
  @DF-RHF Final Energy:  -384.07023392598791
    Total Energy =                       -384.0702339259877363
  @DF-RHF Final Energy:  -384.07124633575683
    Total Energy =                       -384.0712463357569959
  @DF-RHF Final Energy:  -384.07157397906656
    Total Energy =                       -384.0715739790662155
  Basis Set: CC-PVTZ
  Basis Set:
  @DF-RHF Final Energy:  -384.07185297117638
    Total Energy =                       -384.0718529711766678
  Basis Set: CC-PVTZ
  Basis Set:
  Basis Set: CC-PVTZ
  Basis Set:
  @DF-RHF Final Energy:  -384.07183936917238
    Total Energy =                       -384.0718393691727215
  Basis Set: CC-PVTZ
  Basis Set:
  Basis Set: CC-PVTZ
  Basis Set:
  @DF-RHF Final Energy:  -384.07187890013512
    Total Energy =                       -384.0718789001352889
  Basis Set: CC-PVTZ
  Basis Set:
  Charge       = 0
  Multiplicity = 1
  Basis Set: CC-PVTZ
  Basis Set:

    Orbital Energies (a.u.)
    -----------------------

    Doubly Occupied:

       1A    -20.577404     2A    -20.543226     3A    -11.369567
       4A    -11.287864     5A    -11.234693     6A    -11.224849
       7A    -11.219770     8A    -11.212104     9A     -1.461806
      10A     -1.368051    11A     -1.085874    12A     -1.025404
      13A     -0.987026    14A     -0.881599    15A     -0.811579
      16A     -0.776945    17A     -0.696331    18A     -0.687831
      19A     -0.653683    20A     -0.636427    21A     -0.614013
      22A     -0.594198    23A     -0.575875    24A     -0.561322
      25A     -0.547663    26A     -0.529296    27A     -0.506698
      28A     -0.486522    29A     -0.478769    30A     -0.475036
      31A     -0.448884    32A     -0.440146

  @DF-RHF Final Energy:  -384.07188391197650

   => Energetics <=

    Nuclear Repulsion Energy =            384.7531668301110699
    One-Electron Energy =               -1285.6491921618076049
    Two-Electron Energy =                 516.8241414197204904
    DFT Exchange-Correlation Energy =       0.0000000000000000
    Empirical Dispersion Energy =           0.0000000000000000
    PCM Polarization Energy =               0.0000000000000000
    EFP Energy =                            0.0000000000000000
    Total Energy =                       -384.0718839119761014
    Molecular point group: c1
  Basis Set: CC-PVTZ
  Basis Set:

  -Total Gradient:
     Atom            X                  Y                   Z
    ------   -----------------  -----------------  -----------------
       1        0.005593128706    -0.003338311462     0.000671898170
       2       -0.007768428710     0.007350002798    -0.000893918035
       3        0.000042173145     0.000014625076    -0.000020689220
       4        0.001182826255    -0.009093760184     0.000239373487
       5       -0.000006459582    -0.000005373751     0.000006250565
       6       -0.000011661650     0.000000203862     0.000029340221
       7       -0.000017866399     0.000001982771    -0.000000473797
       8        0.001006004303     0.005057652143     0.000007281440
       9       -0.000028310707    -0.000003417790    -0.000018479636
      10       -0.000012405675    -0.000007871141     0.000006432443
      11        0.000002079060     0.000003883913     0.000021784564
      12       -0.000030850436     0.000003241744    -0.000010943168
      13        0.000016078395    -0.000001091635    -0.000020490767
      14       -0.000008567038     0.000014975858     0.000014886020
      15        0.000031178268     0.000001050943    -0.000008316481
      16        0.000010965552    -0.000023336169    -0.000010975255
      17        0.000003858744    -0.000005946794    -0.000003908809
      18        0.000005169822     0.000004061466    -0.000021727198
      19        0.000000568017     0.000003083659     0.000002749727
      20       -0.000009480071     0.000024344694     0.000009925733

  **** Optimization is complete! (in 19 steps) ****
    Final optimized geometry and variables:
    Molecular point group: c1

    Geometry (in Angstrom), charge = 0, multiplicity = 1:

    O           -0.529209548145    -1.145092851695     2.520105352486
    C            0.048840653103    -0.307608027793     1.927724290877
    C            0.780751115741     0.837986482111     2.565353730457
    O            0.193272699861    -0.339469894507     0.591195970492
    H            0.384845544304     1.775019984137     2.191910228067
    H            0.682355359972     0.793860066645     3.638019388802
    H            1.824583719135     0.792488597867     2.281540202598
    C           -0.971525578920    -0.114849741864    -0.190233530486
    C           -0.620491342401    -0.272175037555    -1.654492208005
    H           -1.342108226055     0.887043581764     0.008927016376
    H           -1.733541408978    -0.826013127207     0.099249056781
    C            0.379905701150     0.756915494474    -2.173200127391
    H           -1.545575915260    -0.199161020009    -2.220027491159
    H           -0.235391219872    -1.274693472590    -1.809833467719
    C            0.692957003463     0.576287659178    -3.654669134788
    H           -0.016330718191     1.755643780807    -2.007754236676
    H            1.295347075352     0.688293580627    -1.597765739806
    H            1.402799493043     1.319871155968    -3.997595566634
    H           -0.202328784863     0.669526375732    -4.260580212186
    H            1.120579896769    -0.401900600175    -3.846735019996

  Mulliken Charges: (a.u.)
   Center  Symbol    Alpha    Beta     Spin     Total
       1     O     4.17550  4.17550  0.00000 -0.35099
       2     C     2.80517  2.80517  0.00000  0.38966
       3     C     3.13976  3.13976  0.00000 -0.27952
       4     O     4.17204  4.17204  0.00000 -0.34408
       5     H     0.45006  0.45006  0.00000  0.09987
       6     H     0.43717  0.43717  0.00000  0.12566
       7     H     0.44388  0.44388  0.00000  0.11224
       8     C     2.98782  2.98782  0.00000  0.02435
       9     C     3.08809  3.08809  0.00000 -0.17618
      10     H     0.46407  0.46407  0.00000  0.07187
      11     H     0.44063  0.44063  0.00000  0.11875
      12     C     3.08593  3.08593  0.00000 -0.17187
      13     H     0.45283  0.45283  0.00000  0.09434
      14     H     0.44763  0.44763  0.00000  0.10473
      15     C     3.14978  3.14978  0.00000 -0.29956
      16     H     0.45756  0.45756  0.00000  0.08489
      17     H     0.44556  0.44556  0.00000  0.10889
      18     H     0.44760  0.44760  0.00000  0.10480
      19     H     0.45573  0.45573  0.00000  0.08854
      20     H     0.45319  0.45319  0.00000  0.09362

   Total alpha = 32.00000, Total beta = 32.00000, Total charge = -0.00000

*** Psi4 exiting successfully. Buy a developer a beer!
