  ==> Input File <==

--------------------------------------------------------------------------
set {
	reference rhf
	basis 6-31G*
}

set_num_threads( 4 )
memory 2 gb

molecule MOL {
0 1

H	 -2.968841	 -1.347614	 0.175510
O	 -2.310168	 -0.871793	 -0.309793
C	 -2.026376	 0.340750	 0.341611
C	 -0.673256	 0.843270	 -0.132153
H	 -2.792215	 1.080697	 0.115987
H	 -2.013526	 0.200402	 1.421792
C	 0.486613	 -0.083066	 0.235839
H	 -0.715586	 0.970948	 -1.210718
H	 -0.508072	 1.829858	 0.297090
C	 1.840406	 0.433480	 -0.254303
H	 0.300215	 -1.068318	 -0.178947
H	 0.519509	 -0.203625	 1.318070
C	 3.000220	 -0.489290	 0.118523
H	 1.809207	 0.553576	 -1.335192
H	 2.021860	 1.424500	 0.157276
H	 2.864959	 -1.479103	 -0.307933
H	 3.946603	 -0.099227	 -0.243630
H	 3.080049	 -0.602997	 1.196117

	symmetry c1
}
set optking {
	frozen_dihedral = ("
		1 2 3 4
	")
}

ee = optimize('scf')
oeprop('DIPOLE', 'QUADRUPOLE', 'MULLIKEN_CHARGES')
f=open( 'psi4out.xyz', 'w' )
f.write( "18  " )
f.write( str(ee) + "\n" )
f.write( MOL.save_string_xyz() )
f.close()
--------------------------------------------------------------------------

    Molecular point group: c1
  Charge       = 0
  Multiplicity = 1
  Basis Set: 6-31G*
  Basis Set:
  @DF-RHF Final Energy:  -271.17956005528714
    Total Energy =                       -271.1795600552871974
    Molecular point group: c1
  Basis Set: 6-31G*
  Basis Set:
  Basis Set: 6-31G*
  Basis Set:
  @DF-RHF Final Energy:  -271.17957114453372
    Total Energy =                       -271.1795711445336678
  Basis Set: 6-31G*
  Basis Set:
  Basis Set: 6-31G*
  Basis Set:
  @DF-RHF Final Energy:  -271.17957834898959
    Total Energy =                       -271.1795783489897644
  Basis Set: 6-31G*
  Basis Set:
  Charge       = 0
  Multiplicity = 1
  Basis Set: 6-31G*
  Basis Set:

    Orbital Energies (a.u.)
    -----------------------

    Doubly Occupied:

       1A    -20.552830     2A    -11.268156     3A    -11.211894
       4A    -11.211217     5A    -11.207116     6A    -11.205077
       7A     -1.359421     8A     -1.075179     9A     -1.008989
      10A     -0.913645    11A     -0.818242    12A     -0.784038
      13A     -0.705813    14A     -0.637422    15A     -0.629497
      16A     -0.579318    17A     -0.569692    18A     -0.561800
      19A     -0.523426    20A     -0.497137    21A     -0.485725
      22A     -0.469163    23A     -0.458929    24A     -0.453769
      25A     -0.425880

  @DF-RHF Final Energy:  -271.17957875201716

   => Energetics <=

    Nuclear Repulsion Energy =            249.0131158933974405
    One-Electron Energy =                -861.1586388878984053
    Two-Electron Energy =                 340.9659442424838858
    DFT Exchange-Correlation Energy =       0.0000000000000000
    Empirical Dispersion Energy =           0.0000000000000000
    PCM Polarization Energy =               0.0000000000000000
    EFP Energy =                            0.0000000000000000
    Total Energy =                       -271.1795787520171075
    Molecular point group: c1
  Basis Set: 6-31G*
  Basis Set:

  -Total Gradient:
     Atom            X                  Y                   Z
    ------   -----------------  -----------------  -----------------
       1        0.000995452372    -0.000569137931     0.000665388370
       2       -0.001060112036     0.000601664072    -0.000625428006
       3       -0.000290742497     0.000449057366    -0.000633866585
       4        0.000384497244    -0.000475245878     0.000602963247
       5        0.000001955798    -0.000026369855     0.000007188976
       6        0.000017351573     0.000007241499    -0.000000927764
       7       -0.000025422953     0.000011558141    -0.000005708709
       8        0.000005076922     0.000006780927    -0.000024284304
       9       -0.000023227365    -0.000015077836    -0.000012870399
      10        0.000006782632     0.000020479304     0.000026438799
      11       -0.000000869949    -0.000016165577    -0.000015075781
      12        0.000000329667     0.000013170572     0.000012541720
      13       -0.000004067076    -0.000009194235    -0.000017106789
      14       -0.000008409090     0.000004662741     0.000015793144
      15        0.000004639379     0.000002103878     0.000011349804
      16       -0.000000487366    -0.000010311083     0.000005818567
      17       -0.000006071000    -0.000005776559    -0.000009550067
      18        0.000003323752     0.000010560456    -0.000002664223

  **** Optimization is complete! (in 4 steps) ****
    Final optimized geometry and variables:
    Molecular point group: c1

    Geometry (in Angstrom), charge = 0, multiplicity = 1:

    H           -2.979189135700    -1.345280368780     0.161474641296
    O           -2.321347212459    -0.866408839487    -0.320836153206
    C           -2.026303384949     0.339051836497     0.340712844518
    C           -0.673539272356     0.843167600947    -0.133346138521
    H           -2.794404391121     1.080432063434     0.130126762279
    H           -2.004161514961     0.187809105098     1.418874051966
    C            0.487426026485    -0.079134414822     0.239613941885
    H           -0.714242617335     0.966492537222    -1.212660777528
    H           -0.511555158073     1.832602164525     0.290578970595
    C            1.840787415237     0.434657257280    -0.254577037824
    H            0.301068371101    -1.066866591747    -0.169468614001
    H            0.521837726429    -0.192833111783     1.322788057759
    C            3.000282591329    -0.488776828115     0.117541138383
    H            1.807064294607     0.552206770181    -1.335562483614
    H            2.024392839874     1.426400711386     0.154293529757
    H            2.861502771671    -1.480176714488    -0.304211213515
    H            3.945893844074    -0.102087665908    -0.250065484879
    H            3.084332377498    -0.598013808627     1.195276115228

  Mulliken Charges: (a.u.)
   Center  Symbol    Alpha    Beta     Spin     Total
       1     H     0.28024  0.28024  0.00000  0.43952
       2     O     4.37020  4.37020  0.00000 -0.74039
       3     C     2.99747  2.99747  0.00000  0.00505
       4     C     3.15996  3.15996  0.00000 -0.31991
       5     H     0.42740  0.42740  0.00000  0.14521
       6     H     0.43320  0.43320  0.00000  0.13360
       7     C     3.15325  3.15325  0.00000 -0.30650
       8     H     0.41462  0.41462  0.00000  0.17076
       9     H     0.42432  0.42432  0.00000  0.15136
      10     C     3.15169  3.15169  0.00000 -0.30338
      11     H     0.40888  0.40888  0.00000  0.18225
      12     H     0.42849  0.42849  0.00000  0.14302
      13     C     3.23894  3.23894  0.00000 -0.47788
      14     H     0.42221  0.42221  0.00000  0.15557
      15     H     0.42515  0.42515  0.00000  0.14971
      16     H     0.42099  0.42099  0.00000  0.15802
      17     H     0.42018  0.42018  0.00000  0.15964
      18     H     0.42281  0.42281  0.00000  0.15437

   Total alpha = 25.00000, Total beta = 25.00000, Total charge =  0.00000
