  ==> Input File <==

--------------------------------------------------------------------------
set {
	reference rhf
	basis 6-31G*
}

set_num_threads( 1 )
memory 2 gb

molecule MOL {
0 1

H	 3.243298	 -0.767972	 0.773066
N	 3.092854	 -0.246221	 -0.068770
C	 1.865559	 0.531981	 0.018834
H	 3.033582	 -0.912414	 -0.815432
C	 0.645745	 -0.382037	 -0.029944
H	 1.841966	 1.207024	 -0.831236
H	 1.815756	 1.155410	 0.915079
C	 -0.679275	 0.379305	 0.025956
H	 0.698998	 -0.976915	 -0.937203
H	 0.693479	 -1.083846	 0.802235
C	 -1.903357	 -0.536963	 -0.023547
H	 -0.726309	 1.082987	 -0.803784
H	 -0.717680	 0.977832	 0.934877
C	 -3.225172	 0.228290	 0.028445
H	 -1.867824	 -1.134999	 -0.931459
H	 -1.860449	 -1.239604	 0.805977
H	 -3.313397	 0.915643	 -0.808262
H	 -4.073500	 -0.448134	 -0.008893
H	 -3.306061	 0.809945	 0.942516

	symmetry c1
}
set optking {
	frozen_dihedral = ("
		6 3 5 9,
		12 8 5 9,
		12 8 11 15
	")
}

ee = energy('scf')
oeprop('DIPOLE', 'QUADRUPOLE', 'MULLIKEN_CHARGES')
f=open( 'psi4out.xyz', 'w' )
f.write( "19  " )
f.write( str(ee) + "\n" )
f.write( MOL.save_string_xyz() )
f.close()
--------------------------------------------------------------------------

    Molecular point group: c1

    Geometry (in Angstrom), charge = 0, multiplicity = 1:

       Center              X                  Y                   Z               Mass
    ------------   -----------------  -----------------  -----------------  -----------------
           H          3.252737074039    -0.753974727549     0.780967850574     1.007825032070
           N          3.102293074039    -0.232223727549    -0.060868149426    14.003074004780
           C          1.874998074039     0.545978272451     0.026735850574    12.000000000000
           H          3.043021074039    -0.898416727549    -0.807530149426     1.007825032070
           C          0.655184074039    -0.368039727549    -0.022042149426    12.000000000000
           H          1.851405074039     1.221021272451    -0.823334149426     1.007825032070
           H          1.825195074039     1.169407272451     0.922980850574     1.007825032070
           C         -0.669835925961     0.393302272451     0.033857850574    12.000000000000
           H          0.708437074039    -0.962917727549    -0.929301149426     1.007825032070
           H          0.702918074039    -1.069848727549     0.810136850574     1.007825032070
           C         -1.893917925961    -0.522965727549    -0.015645149426    12.000000000000
           H         -0.716869925961     1.096984272451    -0.795882149426     1.007825032070
           H         -0.708240925961     0.991829272451     0.942778850574     1.007825032070
           C         -3.215732925961     0.242287272451     0.036346850574    12.000000000000
           H         -1.858384925961    -1.121001727549    -0.923557149426     1.007825032070
           H         -1.851009925961    -1.225606727549     0.813878850574     1.007825032070
           H         -3.303957925961     0.929640272451    -0.800360149426     1.007825032070
           H         -4.064060925961    -0.434136727549    -0.000991149426     1.007825032070
           H         -3.296621925961     0.823942272451     0.950417850574     1.007825032070

  Charge       = 0
  Multiplicity = 1
  Basis Set: 6-31G*
  Basis Set:

    Orbital Energies (a.u.)
    -----------------------

    Doubly Occupied:

       1A    -15.531022     2A    -11.240824     3A    -11.216523
       4A    -11.215037     5A    -11.212460     6A    -11.209392
       7A     -1.178546     8A     -1.075066     9A     -0.999439
      10A     -0.901253    11A     -0.819397    12A     -0.793247
      13A     -0.679535    14A     -0.637469    15A     -0.600916
      16A     -0.583096    17A     -0.574760    18A     -0.560483
      19A     -0.519765    20A     -0.506958    21A     -0.481650
      22A     -0.472435    23A     -0.467693    24A     -0.464257
      25A     -0.371451

  @DF-RHF Final Energy:  -251.34912559015373

   => Energetics <=

    Nuclear Repulsion Energy =            246.2665750998525596
    One-Electron Energy =                -826.6059462212735980
    Two-Electron Energy =                 328.9902455312676466
    DFT Exchange-Correlation Energy =       0.0000000000000000
    Empirical Dispersion Energy =           0.0000000000000000
    PCM Polarization Energy =               0.0000000000000000
    EFP Energy =                            0.0000000000000000
    Total Energy =                       -251.3491255901533350

  Mulliken Charges: (a.u.)
   Center  Symbol    Alpha    Beta     Spin     Total
       1     H     0.33518  0.33518  0.00000  0.32965
       2     N     3.91799  3.91799  0.00000 -0.83599
       3     C     3.06206  3.06206  0.00000 -0.12411
       4     H     0.33413  0.33413  0.00000  0.33174
       5     C     3.15788  3.15788  0.00000 -0.31577
       6     H     0.41835  0.41835  0.00000  0.16329
       7     H     0.41883  0.41883  0.00000  0.16233
       8     C     3.15541  3.15541  0.00000 -0.31083
       9     H     0.42695  0.42695  0.00000  0.14610
      10     H     0.42702  0.42702  0.00000  0.14596
      11     C     3.15068  3.15068  0.00000 -0.30137
      12     H     0.42323  0.42323  0.00000  0.15354
      13     H     0.42383  0.42383  0.00000  0.15234
      14     C     3.23932  3.23932  0.00000 -0.47865
      15     H     0.42312  0.42312  0.00000  0.15377
      16     H     0.42332  0.42332  0.00000  0.15336
      17     H     0.42160  0.42160  0.00000  0.15680
      18     H     0.41930  0.41930  0.00000  0.16140
      19     H     0.42178  0.42178  0.00000  0.15644

   Total alpha = 25.00000, Total beta = 25.00000, Total charge = -0.00000
