  ==> Input File <==

--------------------------------------------------------------------------
set {
	reference rhf
	basis 6-31G*
}

set_num_threads( 1 )
memory 2 gb

molecule MOL {
0 1

H	 1.126106	 1.515035	 1.632136
O	 1.357707	 0.702643	 1.202914
C	 0.709265	 0.639550	 -0.033818
C	 -0.793441	 0.596080	 0.058728
H	 1.070380	 -0.260091	 -0.519046
H	 1.003966	 1.474742	 -0.668349
C	 -1.530462	 -0.493172	 -0.025500
H	 -1.268471	 1.554324	 0.202247
H	 -1.092586	 -1.461565	 -0.186463
H	 -2.602122	 -0.450675	 0.050101

	symmetry c1
}
set optking {
	frozen_dihedral = ("
		5 3 2 1,
		3 4 7 9
	")
}

ee = energy('scf')
oeprop('DIPOLE', 'QUADRUPOLE', 'MULLIKEN_CHARGES')
f=open( 'psi4out.xyz', 'w' )
f.write( "10  " )
f.write( str(ee) + "\n" )
f.write( MOL.save_string_xyz() )
f.close()
--------------------------------------------------------------------------

    Molecular point group: c1

    Geometry (in Angstrom), charge = 0, multiplicity = 1:

       Center              X                  Y                   Z               Mass
    ------------   -----------------  -----------------  -----------------  -----------------
           H          1.116384893521     1.126719771977     1.291897993288     1.007825032070
           O          1.347985893521     0.314327771977     0.862675993288    15.994914619560
           C          0.699543893521     0.251234771977    -0.374056006712    12.000000000000
           C         -0.803162106479     0.207764771977    -0.281510006712    12.000000000000
           H          1.060658893521    -0.648406228023    -0.859284006712     1.007825032070
           H          0.994244893521     1.086426771977    -1.008587006712     1.007825032070
           C         -1.540183106479    -0.881487228023    -0.365738006712    12.000000000000
           H         -1.278192106479     1.166008771977    -0.137991006712     1.007825032070
           H         -1.102307106479    -1.849880228023    -0.526701006712     1.007825032070
           H         -2.611843106479    -0.838990228023    -0.290137006712     1.007825032070

  Charge       = 0
  Multiplicity = 1
  Basis Set: 6-31G*
  Basis Set:

    Orbital Energies (a.u.)
    -----------------------

    Doubly Occupied:

       1A    -20.557203     2A    -11.274689     3A    -11.230012
       4A    -11.226567     5A     -1.365785     6A     -1.061632
       7A     -0.920850     8A     -0.779627     9A     -0.684855
      10A     -0.656165    11A     -0.614520    12A     -0.572242
      13A     -0.546199    14A     -0.480953    15A     -0.439564
      16A     -0.373611

  @DF-RHF Final Energy:  -191.91351730022882

   => Energetics <=

    Nuclear Repulsion Energy =            117.5825670138028300
    One-Electron Energy =                -493.4232058137164358
    Two-Electron Energy =                 183.9271214996848016
    DFT Exchange-Correlation Energy =       0.0000000000000000
    Empirical Dispersion Energy =           0.0000000000000000
    PCM Polarization Energy =               0.0000000000000000
    EFP Energy =                            0.0000000000000000
    Total Energy =                       -191.9135173002288184

  Mulliken Charges: (a.u.)
   Center  Symbol    Alpha    Beta     Spin     Total
       1     H     0.28313  0.28313  0.00000  0.43374
       2     O     4.36160  4.36160  0.00000 -0.72320
       3     C     3.01094  3.01094  0.00000 -0.02189
       4     C     3.08381  3.08381  0.00000 -0.16763
       5     H     0.41220  0.41220  0.00000  0.17560
       6     H     0.42827  0.42827  0.00000  0.14345
       7     C     3.18823  3.18823  0.00000 -0.37645
       8     H     0.41324  0.41324  0.00000  0.17352
       9     H     0.40899  0.40899  0.00000  0.18203
      10     H     0.40959  0.40959  0.00000  0.18082

   Total alpha = 16.00000, Total beta = 16.00000, Total charge =  0.00000
