  ==> Input File <==

--------------------------------------------------------------------------
set {
	reference rhf
	basis 6-31G*
}

set_num_threads( 4 )
memory 2 gb

molecule MOL {
0 1

O	 -0.069996	 -1.371234	 -2.730841
C	 -0.603543	 -0.446493	 -2.197348
C	 -0.889235	 -0.467034	 -0.705952
C	 -0.990795	 0.797659	 -2.965137
C	 0.379448	 -0.143569	 0.099626
H	 -1.235596	 -1.462731	 -0.451145
H	 -1.676705	 0.238910	 -0.457837
C	 1.631333	 -0.777471	 -0.511575
H	 0.482768	 0.934507	 0.149241
H	 0.263088	 -0.495696	 1.123449
C	 2.915987	 -0.544314	 0.291766
H	 1.766672	 -0.399098	 -1.523130
H	 1.471257	 -1.849544	 -0.605828
C	 3.373361	 0.914346	 0.347591
H	 3.708709	 -1.142521	 -0.150311
H	 2.780642	 -0.921148	 1.303579
H	 3.506512	 1.320010	 -0.651625
H	 4.322697	 0.999599	 0.867103
H	 2.660624	 1.545032	 0.868198
H	 -2.073342	 0.892245	 -2.985378
H	 -0.616593	 0.739332	 -3.977735
H	 -0.600905	 1.686855	 -2.478186

	symmetry c1
}
set optking {
	frozen_dihedral = ("
		6 3 5 8
	")
}

ee = optimize('scf')
oeprop('DIPOLE', 'QUADRUPOLE', 'MULLIKEN_CHARGES')
f=open( 'psi4out.xyz', 'w' )
f.write( "22  " )
f.write( str(ee) + "\n" )
f.write( MOL.save_string_xyz() )
f.close()
--------------------------------------------------------------------------

    Molecular point group: c1
  Charge       = 0
  Multiplicity = 1
  Basis Set: 6-31G*
  Basis Set:
  @DF-RHF Final Energy:  -348.09070693027689
    Total Energy =                       -348.0907069302770651
    Molecular point group: c1
  Basis Set: 6-31G*
  Basis Set:
  Basis Set: 6-31G*
  Basis Set:
  @DF-RHF Final Energy:  -348.09377530621930
    Total Energy =                       -348.0937753062195270
  Basis Set: 6-31G*
  Basis Set:
  Basis Set: 6-31G*
  Basis Set:
  @DF-RHF Final Energy:  -348.09271767041173
    Total Energy =                       -348.0927176704113890
  Basis Set: 6-31G*
  Basis Set:
  Basis Set: 6-31G*
  Basis Set:
  @DF-RHF Final Energy:  -348.09470305875180
    Total Energy =                       -348.0947030587519748
  Basis Set: 6-31G*
  Basis Set:
  @DF-RHF Final Energy:  -348.09520316202492
    Total Energy =                       -348.0952031620248590
  @DF-RHF Final Energy:  -348.09538458017732
    Total Energy =                       -348.0953845801772673
  @DF-RHF Final Energy:  -348.09543558855751
    Total Energy =                       -348.0954355885575069
  Basis Set: 6-31G*
  Basis Set:
  @DF-RHF Final Energy:  -348.09552352235056
    Total Energy =                       -348.0955235223502768
  Basis Set: 6-31G*
  Basis Set:
  Basis Set: 6-31G*
  Basis Set:
  @DF-RHF Final Energy:  -348.09555500570195
    Total Energy =                       -348.0955550057018968
  Basis Set: 6-31G*
  Basis Set:
  Basis Set: 6-31G*
  Basis Set:
  @DF-RHF Final Energy:  -348.09555635591488
    Total Energy =                       -348.0955563559142547
  Basis Set: 6-31G*
  Basis Set:
  Charge       = 0
  Multiplicity = 1
  Basis Set: 6-31G*
  Basis Set:

    Orbital Energies (a.u.)
    -----------------------

    Doubly Occupied:

       1A    -20.548097     2A    -11.324356     3A    -11.232123
       4A    -11.229492     5A    -11.227718     6A    -11.220683
       7A    -11.220075     8A    -11.213427     9A     -1.393283
      10A     -1.096038    11A     -1.043915    12A     -0.996752
      13A     -0.939184    14A     -0.861800    15A     -0.791543
      16A     -0.727105    17A     -0.657480    18A     -0.644268
      19A     -0.627527    20A     -0.620903    21A     -0.598771
      22A     -0.577164    23A     -0.570661    24A     -0.543009
      25A     -0.535875    26A     -0.518378    27A     -0.503999
      28A     -0.487258    29A     -0.471183    30A     -0.462769
      31A     -0.453951    32A     -0.397876

  @DF-RHF Final Energy:  -348.09555713823903

   => Energetics <=

    Nuclear Repulsion Energy =            382.4871559504585434
    One-Electron Energy =               -1229.6920997338374946
    Two-Electron Energy =                 499.1093866451396934
    DFT Exchange-Correlation Energy =       0.0000000000000000
    Empirical Dispersion Energy =           0.0000000000000000
    PCM Polarization Energy =               0.0000000000000000
    EFP Energy =                            0.0000000000000000
    Total Energy =                       -348.0955571382392009
    Molecular point group: c1
  Basis Set: 6-31G*
  Basis Set:

  -Total Gradient:
     Atom            X                  Y                   Z
    ------   -----------------  -----------------  -----------------
       1        0.000010877264     0.000040945955     0.000008091688
       2        0.000007734165    -0.000043828771     0.000004970472
       3        0.003296541248    -0.001247343892    -0.005183420870
       4       -0.000046724360    -0.000000374162    -0.000027099329
       5       -0.001004342804    -0.003344602834     0.003774089919
       6       -0.002578035752     0.001895703354     0.003479579369
       7       -0.000013456021    -0.000010947125     0.000006997312
       8        0.000274139825     0.002718415971    -0.002067572123
       9        0.000007615192    -0.000005791200     0.000010311180
      10        0.000020069371     0.000006559750    -0.000005851481
      11       -0.000010176940    -0.000002383802    -0.000002650233
      12        0.000001218912     0.000000544152     0.000009774356
      13       -0.000001318702    -0.000006346588     0.000002483713
      14        0.000000764692    -0.000000202577    -0.000008916049
      15        0.000001266456     0.000008941670     0.000000948952
      16       -0.000007687888    -0.000005535302    -0.000005216629
      17       -0.000005168027    -0.000001146097     0.000002659923
      18        0.000004843001     0.000002628399    -0.000000826965
      19        0.000003108585    -0.000005183135     0.000001778652
      20        0.000019349748     0.000003849821     0.000005579969
      21        0.000006540592     0.000011929270    -0.000007021792
      22        0.000012841443    -0.000015832854     0.000001309970

  **** Optimization is complete! (in 11 steps) ****
    Final optimized geometry and variables:
    Molecular point group: c1

    Geometry (in Angstrom), charge = 0, multiplicity = 1:

    O           -1.385886476184    -1.296046294912    -1.768832546984
    C           -1.449840338048    -0.284510408135    -1.139278046834
    C           -1.548205076820    -0.296658002917     0.374149187802
    C           -1.452890980700     1.068248793072    -1.820619963079
    C           -0.253660991962     0.128799434541     1.100916558303
    H           -1.847936477243    -1.287951294275     0.691857418763
    H           -2.346076896916     0.379929756461     0.673963357663
    C            1.028077560164    -0.461336416612     0.501934966469
    H           -0.186806443137     1.212712036376     1.103087956236
    H           -0.344123884692    -0.170283767855     2.141150014410
    C            2.283820951331    -0.212286636718     1.344853583655
    H            1.187570378021    -0.060061681936    -0.496578372206
    H            0.897828165825    -1.533023788837     0.375180152506
    C            2.685782744798     1.258691635073     1.468736061947
    H            3.108142494200    -0.763177177976     0.899714444735
    H            2.139360849605    -0.632733848906     2.337909924923
    H            2.821431909219     1.710192934628     0.489443077416
    H            3.622285551014     1.357486441506     2.008620191914
    H            1.941540403139     1.841040326908     2.002211699123
    H           -2.431439466692     1.527952641884    -1.710183496837
    H           -1.233731669418     0.948068453665    -2.872501963237
    H           -0.729548921848     1.739557349680    -1.368958437937

  Mulliken Charges: (a.u.)
   Center  Symbol    Alpha    Beta     Spin     Total
       1     O     4.26199  4.26199  0.00000 -0.52397
       2     C     2.73494  2.73494  0.00000  0.53013
       3     C     3.20282  3.20282  0.00000 -0.40564
       4     C     3.28971  3.28971  0.00000 -0.57942
       5     C     3.16252  3.16252  0.00000 -0.32505
       6     H     0.40022  0.40022  0.00000  0.19955
       7     H     0.41418  0.41418  0.00000  0.17164
       8     C     3.16032  3.16032  0.00000 -0.32063
       9     H     0.41872  0.41872  0.00000  0.16255
      10     H     0.41344  0.41344  0.00000  0.17313
      11     C     3.15331  3.15331  0.00000 -0.30662
      12     H     0.42134  0.42134  0.00000  0.15731
      13     H     0.41035  0.41035  0.00000  0.17930
      14     C     3.24233  3.24233  0.00000 -0.48466
      15     H     0.41778  0.41778  0.00000  0.16444
      16     H     0.42233  0.42233  0.00000  0.15533
      17     H     0.42214  0.42214  0.00000  0.15572
      18     H     0.41741  0.41741  0.00000  0.16518
      19     H     0.42101  0.42101  0.00000  0.15797
      20     H     0.40685  0.40685  0.00000  0.18629
      21     H     0.39675  0.39675  0.00000  0.20651
      22     H     0.40953  0.40953  0.00000  0.18095

   Total alpha = 32.00000, Total beta = 32.00000, Total charge = -0.00000
