                              Psi4 1.0.54 Driver

  ==> Input File <==

--------------------------------------------------------------------------
set {
	reference rhf
	basis cc-pvtz
}

set_num_threads( 4 )
memory 2 gb

molecule MOL {
0 1

H	 3.028839	 -1.075958	 0.477533
N	 3.091268	 -0.241216	 -0.065538
C	 1.860978	 0.530248	 0.016256
H	 3.277637	 -0.515918	 -1.007426
C	 0.644130	 -0.381765	 -0.031064
H	 1.835721	 1.204666	 -0.833114
H	 1.808789	 1.151975	 0.911067
C	 -0.678115	 0.376691	 0.025731
H	 0.693998	 -0.977147	 -0.936845
H	 0.693309	 -1.082142	 0.800523
C	 -1.900706	 -0.535531	 -0.022488
H	 -0.725296	 1.079516	 -0.802982
H	 -0.715474	 0.974884	 0.933278
C	 -3.220513	 0.226854	 0.028039
H	 -1.865036	 -1.134397	 -0.928236
H	 -1.857948	 -1.236381	 0.806820
H	 -3.309098	 0.911849	 -0.808725
H	 -4.066838	 -0.449485	 -0.008086
H	 -3.301685	 0.809374	 0.939860

	symmetry c1
}
set optking {
	frozen_dihedral = ("
		1 2 3 6
	")
}

ee,wfn = optimize('scf', return_wfn=True)
oeprop( wfn, 'DIPOLE', 'QUADRUPOLE', 'MULLIKEN_CHARGES')
f=open( 'psi4out.xyz', 'w' )
f.write( "19  " )
f.write( str(ee) + "\n" )
f.write( MOL.save_string_xyz() )
f.close()
--------------------------------------------------------------------------

    Molecular point group: c1
  Charge       = 0
  Multiplicity = 1
  Basis Set: CC-PVTZ
  Basis Set:
  @DF-RHF Final Energy:  -251.44553568011904
    Total Energy =                       -251.4455356801190646
    Molecular point group: c1
  Basis Set: CC-PVTZ
  Basis Set:
  Basis Set: CC-PVTZ
  Basis Set:
  @DF-RHF Final Energy:  -251.44685369626217
    Total Energy =                       -251.4468536962618259
  Basis Set: CC-PVTZ
  Basis Set:
  Basis Set: CC-PVTZ
  Basis Set:
  @DF-RHF Final Energy:  -251.44705420838594
    Total Energy =                       -251.4470542083860209
  Basis Set: CC-PVTZ
  Basis Set:
  Basis Set: CC-PVTZ
  Basis Set:
  @DF-RHF Final Energy:  -251.44705731683635
    Total Energy =                       -251.4470573168361511
  Basis Set: CC-PVTZ
  Basis Set:
  Charge       = 0
  Multiplicity = 1
  Basis Set: CC-PVTZ
  Basis Set:

    Orbital Energies (a.u.)
    -----------------------

    Doubly Occupied:

       1A    -15.526448     2A    -11.238185     3A    -11.214689
       4A    -11.213312     5A    -11.211644     6A    -11.207448
       7A     -1.178424     8A     -1.076713     9A     -1.000936
      10A     -0.902069    11A     -0.819470    12A     -0.792924
      13A     -0.677728    14A     -0.639074    15A     -0.601230
      16A     -0.588434    17A     -0.573905    18A     -0.557120
      19A     -0.522059    20A     -0.504040    21A     -0.481740
      22A     -0.471405    23A     -0.466760    24A     -0.463825
      25A     -0.379221

  @DF-RHF Final Energy:  -251.44705754150090

   => Energetics <=

    Nuclear Repulsion Energy =            245.8848883228413342
    One-Electron Energy =                -826.0462879661365605
    Two-Electron Energy =                 328.7143421017945570
    DFT Exchange-Correlation Energy =       0.0000000000000000
    Empirical Dispersion Energy =           0.0000000000000000
    PCM Polarization Energy =               0.0000000000000000
    EFP Energy =                            0.0000000000000000
    Total Energy =                       -251.4470575415006692
    Molecular point group: c1
  Basis Set: CC-PVTZ
  Basis Set:

  -Total Gradient:
     Atom            X                  Y                   Z
    ------   -----------------  -----------------  -----------------
       1       -0.000900429204    -0.001408732018    -0.002177600722
       2        0.000858955050     0.001340881929     0.002424657680
       3        0.001109453588     0.001859410451     0.001101073012
       4       -0.000000252966     0.000000898618    -0.000007622398
       5        0.000018124196    -0.000000256868     0.000006806745
       6       -0.001075733203    -0.001781314699    -0.001348119791
       7        0.000003976210     0.000000904950     0.000003793858
       8        0.000017396318    -0.000005112109    -0.000005300273
       9       -0.000003027564     0.000003715999     0.000004747718
      10       -0.000005575874    -0.000011294193    -0.000002320329
      11       -0.000018802052    -0.000003175918    -0.000004609672
      12        0.000000918151    -0.000000914448    -0.000000628659
      13       -0.000005317608     0.000002779491    -0.000004620667
      14       -0.000003605670    -0.000003655993     0.000010741958
      15        0.000004865293     0.000003918013    -0.000001765435
      16        0.000000198682    -0.000000964204    -0.000001175384
      17        0.000000908105    -0.000002342511    -0.000002240730
      18        0.000001043930     0.000000841071     0.000002006253
      19       -0.000003095386     0.000004412438     0.000002176838

  **** Optimization is complete! (in 5 steps) ****
    Final optimized geometry and variables:
    Molecular point group: c1

    Geometry (in Angstrom), charge = 0, multiplicity = 1:

    H            3.108932395634    -1.070898155775     0.441858789614
    N            3.141685411818    -0.235869309233    -0.105619553673
    C            1.875615026804     0.479952895768    -0.038353838836
    H            3.330027756714    -0.524829300592    -1.042478018109
    C            0.630298864270    -0.403822296317    -0.038237936264
    H            1.828400991399     1.148994549451    -0.890757960930
    H            1.875118441518     1.102012843486     0.850691857822
    C           -0.671092011157     0.388768096339     0.038242346145
    H            0.631521246251    -1.018724366298    -0.935487141503
    H            0.684247812800    -1.090596907077     0.804339243209
    C           -1.918794654679    -0.490120962043     0.049381400684
    H           -0.724974793110     1.074010992432    -0.804677571172
    H           -0.662919449153     1.008314424320     0.931928529273
    C           -3.215132083165     0.309429101045     0.125683317189
    H           -1.929499106307    -1.108789489949    -0.843820315078
    H           -1.867739251385    -1.174021895812     0.892183305340
    H           -3.312810730301     0.978507348577    -0.722824432953
    H           -4.080021436089    -0.343957122537     0.132285631907
    H           -3.250085069817     0.913225787207     1.026427632905

  Mulliken Charges: (a.u.)
   Center  Symbol    Alpha    Beta     Spin     Total
       1     H     0.43194  0.43194  0.00000  0.13611
       2     N     3.68872  3.68872  0.00000 -0.37744
       3     C     3.02570  3.02570  0.00000 -0.05140
       4     H     0.43235  0.43235  0.00000  0.13529
       5     C     3.08866  3.08866  0.00000 -0.17731
       6     H     0.45613  0.45613  0.00000  0.08774
       7     H     0.45436  0.45436  0.00000  0.09127
       8     C     3.09453  3.09453  0.00000 -0.18906
       9     H     0.45897  0.45897  0.00000  0.08206
      10     H     0.45910  0.45910  0.00000  0.08180
      11     C     3.08293  3.08293  0.00000 -0.16587
      12     H     0.45474  0.45474  0.00000  0.09052
      13     H     0.45438  0.45438  0.00000  0.09124
      14     C     3.14988  3.14988  0.00000 -0.29975
      15     H     0.45464  0.45464  0.00000  0.09072
      16     H     0.45444  0.45444  0.00000  0.09111
      17     H     0.45513  0.45513  0.00000  0.08973
      18     H     0.44845  0.44845  0.00000  0.10310
      19     H     0.45494  0.45494  0.00000  0.09013

   Total alpha = 25.00000, Total beta = 25.00000, Total charge = -0.00000

*** Psi4 exiting successfully. Buy a developer a beer!
