                              Psi4 1.0.54 Driver

  ==> Input File <==

--------------------------------------------------------------------------
set {
	reference rhf
	basis cc-pvtz
}

set_num_threads( 4 )
memory 2 gb

molecule MOL {
0 1

O	 -2.440701	 -0.934798	 -0.415053
C	 -1.922978	 0.063265	 -0.045005
C	 -2.632749	 1.372204	 0.158357
O	 -0.637375	 0.157174	 0.243149
H	 -2.187724	 2.129143	 -0.474664
H	 -3.677681	 1.257276	 -0.079438
H	 -2.516788	 1.693160	 1.185542
C	 0.162530	 -1.009518	 0.097799
C	 1.587210	 -0.664190	 0.477086
H	 0.096803	 -1.356267	 -0.924704
H	 -0.233803	 -1.785900	 0.736810
C	 2.560717	 -0.643244	 -0.698333
H	 1.914495	 -1.399477	 1.207135
H	 1.593754	 0.298193	 0.979695
C	 3.989179	 -0.320177	 -0.273202
H	 2.541477	 -1.610163	 -1.194112
H	 2.226693	 0.084389	 -1.428964
H	 4.659080	 -0.315859	 -1.125023
H	 4.362874	 -1.049998	 0.437506
H	 4.045948	 0.656103	 0.196555

	symmetry c1
}
set optking {
	frozen_dihedral = ("
		12 9 8 10
	")
}

ee,wfn = optimize('scf', return_wfn=True)
oeprop( wfn, 'DIPOLE', 'QUADRUPOLE', 'MULLIKEN_CHARGES')
f=open( 'psi4out.xyz', 'w' )
f.write( "20  " )
f.write( str(ee) + "\n" )
f.write( MOL.save_string_xyz() )
f.close()
--------------------------------------------------------------------------

    Molecular point group: c1
  Charge       = 0
  Multiplicity = 1
  Basis Set: CC-PVTZ
  Basis Set:
  @DF-RHF Final Energy:  -384.08216509466200
    Total Energy =                       -384.0821650946619457
    Molecular point group: c1
  Basis Set: CC-PVTZ
  Basis Set:
  Basis Set: CC-PVTZ
  Basis Set:
  @DF-RHF Final Energy:  -384.08248287684785
    Total Energy =                       -384.0824828768481893
  Basis Set: CC-PVTZ
  Basis Set:
  Basis Set: CC-PVTZ
  Basis Set:
  @DF-RHF Final Energy:  -384.08246221435218
    Total Energy =                       -384.0824622143525175
  Basis Set: CC-PVTZ
  Basis Set:
  Basis Set: CC-PVTZ
  Basis Set:
  @DF-RHF Final Energy:  -384.08254305417563
    Total Energy =                       -384.0825430541755168
  Basis Set: CC-PVTZ
  Basis Set:
  Basis Set: CC-PVTZ
  Basis Set:
  @DF-RHF Final Energy:  -384.08257268290589
    Total Energy =                       -384.0825726829054929
  Basis Set: CC-PVTZ
  Basis Set:
  Charge       = 0
  Multiplicity = 1
  Basis Set: CC-PVTZ
  Basis Set:

    Orbital Energies (a.u.)
    -----------------------

    Doubly Occupied:

       1A    -20.593566     2A    -20.531944     3A    -11.365710
       4A    -11.280183     5A    -11.231120     6A    -11.222634
       7A    -11.221895     8A    -11.212629     9A     -1.469810
      10A     -1.363973    11A     -1.086293    12A     -1.029640
      13A     -0.980402    14A     -0.882542    15A     -0.808113
      16A     -0.781770    17A     -0.691786    18A     -0.684518
      19A     -0.669937    20A     -0.633358    21A     -0.602813
      22A     -0.593776    23A     -0.571704    24A     -0.554996
      25A     -0.545281    26A     -0.525423    27A     -0.514734
      28A     -0.481899    29A     -0.480189    30A     -0.477124
      31A     -0.449853    32A     -0.440193

  @DF-RHF Final Energy:  -384.08257331851661

   => Energetics <=

    Nuclear Repulsion Energy =            381.6107120735202329
    One-Electron Energy =               -1279.4269544885371488
    Two-Electron Energy =                 513.7336690965000798
    DFT Exchange-Correlation Energy =       0.0000000000000000
    Empirical Dispersion Energy =           0.0000000000000000
    PCM Polarization Energy =               0.0000000000000000
    EFP Energy =                            0.0000000000000000
    Total Energy =                       -384.0825733185167792
    Molecular point group: c1
  Basis Set: CC-PVTZ
  Basis Set:

  -Total Gradient:
     Atom            X                  Y                   Z
    ------   -----------------  -----------------  -----------------
       1       -0.000057094853    -0.000072389950    -0.000051664095
       2        0.000009608452     0.000043616147     0.000001172205
       3        0.000015430704    -0.000033774806     0.000024706227
       4        0.000118599123     0.000014905741     0.000047488889
       5        0.000016787546     0.000021017010    -0.000028556645
       6       -0.000027022758    -0.000007747882    -0.000011159885
       7        0.000006875184     0.000014266845     0.000027176916
       8        0.000595254827    -0.004220428118     0.001218217709
       9       -0.000666457571     0.003555885308    -0.000557989359
      10       -0.000415743748     0.002700980522    -0.000877747204
      11        0.000047514181     0.000018678409    -0.000023442168
      12        0.000414691505    -0.002055086738     0.000245855618
      13       -0.000024183055     0.000004669061    -0.000023022906
      14       -0.000006465604     0.000004343806     0.000009658991
      15       -0.000023067148     0.000024327890     0.000012666164
      16        0.000010075445    -0.000008403949     0.000004513957
      17       -0.000004799659    -0.000000633118    -0.000017683688
      18       -0.000012611685     0.000006805567    -0.000006709621
      19        0.000001181256    -0.000012700840    -0.000002325055
      20        0.000001427857     0.000001669096     0.000008843951

  **** Optimization is complete! (in 6 steps) ****
    Final optimized geometry and variables:
    Molecular point group: c1

    Geometry (in Angstrom), charge = 0, multiplicity = 1:

    O           -2.507520662483    -0.684405647721    -0.398800698306
    C           -1.990509385051     0.305343411398    -0.005081944198
    C           -2.694333435087     1.618341853881     0.192035965521
    O           -0.712442331228     0.385459563717     0.316552006622
    H           -2.223583836082     2.377980391408    -0.418731286945
    H           -3.732841339364     1.515804057506    -0.077728307807
    H           -2.605927262200     1.926393490687     1.225898691899
    C            0.081390294278    -0.791090396190     0.178525277975
    C            1.518434032102    -0.444362277345     0.565975806185
    H            0.013320329635    -1.114696072367    -0.850184496361
    H           -0.337450409587    -1.563609810882     0.805209134053
    C            2.476979318457    -0.395838365716    -0.621636846356
    H            1.880964605050    -1.180201368745     1.276511828642
    H            1.515151774108     0.506921803316     1.083470894586
    C            3.900846727248    -0.030027660486    -0.219527197240
    H            2.478406310760    -1.361812081379    -1.118392304510
    H            2.109826206741     0.322182492430    -1.349828405500
    H            4.557589619670    -0.007816204676    -1.081184731236
    H            4.305099976591    -0.748305770386     0.486101114640
    H            3.935697995040     0.947696617809     0.249124086419

  Mulliken Charges: (a.u.)
   Center  Symbol    Alpha    Beta     Spin     Total
       1     O     4.19759  4.19759  0.00000 -0.39519
       2     C     2.80799  2.80799  0.00000  0.38402
       3     C     3.13775  3.13775  0.00000 -0.27551
       4     O     4.15322  4.15322  0.00000 -0.30644
       5     H     0.44621  0.44621  0.00000  0.10759
       6     H     0.43813  0.43813  0.00000  0.12373
       7     H     0.44582  0.44582  0.00000  0.10835
       8     C     2.98629  2.98629  0.00000  0.02742
       9     C     3.08890  3.08890  0.00000 -0.17780
      10     H     0.45361  0.45361  0.00000  0.09278
      11     H     0.44833  0.44833  0.00000  0.10333
      12     C     3.08794  3.08794  0.00000 -0.17587
      13     H     0.45024  0.45024  0.00000  0.09953
      14     H     0.44684  0.44684  0.00000  0.10633
      15     C     3.15070  3.15070  0.00000 -0.30140
      16     H     0.45286  0.45286  0.00000  0.09428
      17     H     0.45164  0.45164  0.00000  0.09673
      18     H     0.44719  0.44719  0.00000  0.10563
      19     H     0.45477  0.45477  0.00000  0.09047
      20     H     0.45398  0.45398  0.00000  0.09203

   Total alpha = 32.00000, Total beta = 32.00000, Total charge = -0.00000

*** Psi4 exiting successfully. Buy a developer a beer!
