  ==> Input File <==

--------------------------------------------------------------------------
set {
	reference rhf
	basis 6-31G*
}

set_num_threads( 4 )
memory 2 gb

molecule MOL {
0 1

H	 -0.946963	 4.998415	 5.374831
C	 -1.664102	 4.188323	 5.285467
C	 -1.646100	 3.587143	 3.880677
H	 -1.413273	 3.440689	 6.032106
H	 -2.644965	 4.586141	 5.531329
C	 -2.651823	 2.445250	 3.718152
H	 -0.647736	 3.224179	 3.659027
H	 -1.866440	 4.366795	 3.153157
C	 -2.669485	 1.835305	 2.316395
H	 -2.435666	 1.664842	 4.439182
H	 -3.649528	 2.816008	 3.942126
C	 -1.436708	 1.010915	 1.975979
H	 -3.525039	 1.169136	 2.216314
H	 -2.805952	 2.604519	 1.559518
C	 -1.181045	 0.701995	 0.511084
O	 -0.702830	 0.602780	 2.825246
C	 -2.285934	 -0.139295	 -0.145128
H	 -0.232501	 0.181262	 0.458026
H	 -1.076284	 1.642026	 -0.027481
C	 -3.651768	 0.085446	 0.506485
H	 -2.346596	 0.110469	 -1.202272
H	 -2.034737	 -1.195320	 -0.088721
C	 -4.759797	 -0.746382	 -0.137905
H	 -3.908762	 1.140117	 0.445781
H	 -3.588286	 -0.154158	 1.565709
H	 -4.868882	 -0.505166	 -1.191300
H	 -4.548009	 -1.809175	 -0.062213
H	 -5.715422	 -0.564821	 0.343442

	symmetry c1
}
set optking {
	frozen_dihedral = ("
		12 15 17 21
	")
}

ee = optimize('scf')
oeprop('DIPOLE', 'QUADRUPOLE', 'MULLIKEN_CHARGES')
f=open( 'psi4out.xyz', 'w' )
f.write( "28  " )
f.write( str(ee) + "\n" )
f.write( MOL.save_string_xyz() )
f.close()
--------------------------------------------------------------------------

    Molecular point group: c1
  Charge       = 0
  Multiplicity = 1
  Basis Set: 6-31G*
  Basis Set:
  @DF-RHF Final Energy:  -426.12971283896547
    Total Energy =                       -426.1297128389655882
    Molecular point group: c1
  Basis Set: 6-31G*
  Basis Set:
  Basis Set: 6-31G*
  Basis Set:
  @DF-RHF Final Energy:  -426.15198703948829
    Total Energy =                       -426.1519870394879490
  Basis Set: 6-31G*
  Basis Set:
  Basis Set: 6-31G*
  Basis Set:
  @DF-RHF Final Energy:  -426.15701337906648
    Total Energy =                       -426.1570133790664840
  Basis Set: 6-31G*
  Basis Set:
  Basis Set: 6-31G*
  Basis Set:
  @DF-RHF Final Energy:  -426.15683833609080
    Total Energy =                       -426.1568383360903454
  Basis Set: 6-31G*
  Basis Set:
  @DF-RHF Final Energy:  -426.15980504804384
    Total Energy =                       -426.1598050480437223
  @DF-RHF Final Energy:  -426.16098622574088
    Total Energy =                       -426.1609862257411123
  @DF-RHF Final Energy:  -426.16170025018960
    Total Energy =                       -426.1617002501895968
  @DF-RHF Final Energy:  -426.16263960551123
    Total Energy =                       -426.1626396055110035
  @DF-RHF Final Energy:  -426.16338692146792
    Total Energy =                       -426.1633869214683727
  @DF-RHF Final Energy:  -426.16377009091786
    Total Energy =                       -426.1637700909177511
  @DF-RHF Final Energy:  -426.16392616054100
    Total Energy =                       -426.1639261605413367
  @DF-RHF Final Energy:  -426.16399688763704
    Total Energy =                       -426.1639968876368130
  @DF-RHF Final Energy:  -426.16402287302606
    Total Energy =                       -426.1640228730261697
  @DF-RHF Final Energy:  -426.16407594870122
    Total Energy =                       -426.1640759487015657
  @DF-RHF Final Energy:  -426.16413803955561
    Total Energy =                       -426.1641380395558372
  Basis Set: 6-31G*
  Basis Set:
  @DF-RHF Final Energy:  -426.16419004232534
    Total Energy =                       -426.1641900423256857
  Basis Set: 6-31G*
  Basis Set:
  Basis Set: 6-31G*
  Basis Set:
  @DF-RHF Final Energy:  -426.16419847843792
    Total Energy =                       -426.1641984784381521
  Basis Set: 6-31G*
  Basis Set:
  Basis Set: 6-31G*
  Basis Set:
  @DF-RHF Final Energy:  -426.16420004900158
    Total Energy =                       -426.1642000490016926
  Basis Set: 6-31G*
  Basis Set:
  Charge       = 0
  Multiplicity = 1
  Basis Set: 6-31G*
  Basis Set:

    Orbital Energies (a.u.)
    -----------------------

    Doubly Occupied:

       1A    -20.548337     2A    -11.324391     3A    -11.231398
       4A    -11.231365     5A    -11.223875     6A    -11.216585
       7A    -11.212871     8A    -11.211730     9A    -11.207863
      10A    -11.205503    11A     -1.394556    12A     -1.086803
      13A     -1.075338    14A     -1.020915    15A     -0.989059
      16A     -0.909606    17A     -0.867009    18A     -0.808857
      19A     -0.790593    20A     -0.720528    21A     -0.671217
      22A     -0.641375    23A     -0.630405    24A     -0.616105
      25A     -0.605973    26A     -0.583334    27A     -0.576636
      28A     -0.573954    29A     -0.548270    30A     -0.525580
      31A     -0.518646    32A     -0.509487    33A     -0.492849
      34A     -0.479858    35A     -0.473318    36A     -0.466784
      37A     -0.464475    38A     -0.460573    39A     -0.456083
      40A     -0.392081

  @DF-RHF Final Energy:  -426.16420025407979

   => Energetics <=

    Nuclear Repulsion Energy =            540.2691126480167441
    One-Electron Energy =               -1648.9382564213153728
    Two-Electron Energy =                 682.5049435192191822
    DFT Exchange-Correlation Energy =       0.0000000000000000
    Empirical Dispersion Energy =           0.0000000000000000
    PCM Polarization Energy =               0.0000000000000000
    EFP Energy =                            0.0000000000000000
    Total Energy =                       -426.1642002540794465
    Molecular point group: c1
  Basis Set: 6-31G*
  Basis Set:

  -Total Gradient:
     Atom            X                  Y                   Z
    ------   -----------------  -----------------  -----------------
       1        0.000002332968     0.000002699714     0.000003699730
       2        0.000007668042     0.000000735987     0.000007068366
       3       -0.000009643486     0.000009353723     0.000007708029
       4        0.000001596384     0.000001536751    -0.000003140945
       5       -0.000000904690    -0.000002506965    -0.000001628853
       6       -0.000003810922     0.000023277544     0.000008402605
       7       -0.000001439377    -0.000006681860     0.000000959171
       8       -0.000001245448    -0.000003347768    -0.000001697099
       9       -0.000018118912     0.000003768257     0.000010806032
      10        0.000005227526     0.000005381918    -0.000007885405
      11        0.000007256644     0.000003211830     0.000013728422
      12       -0.004571034417     0.002373917078    -0.001364443973
      13       -0.000013790289     0.000000963813    -0.000017428028
      14        0.000003719770    -0.000006108165    -0.000003028075
      15        0.005275762021    -0.003046191974     0.002281945381
      16        0.000001684803    -0.000014814573    -0.000010151437
      17        0.005794411861    -0.001326225700    -0.002558245865
      18       -0.000007833579    -0.000015507137     0.000001838592
      19        0.000010563530     0.000014772779    -0.000002893841
      20        0.000017392704     0.000008453176    -0.000023386495
      21       -0.006505472785     0.001978967658     0.001643493137
      22        0.000000394211    -0.000008439235    -0.000006139393
      23        0.000003312338    -0.000008562912    -0.000009352701
      24       -0.000001428579     0.000005082353     0.000008988299
      25        0.000006248281     0.000006223035     0.000020037567
      26        0.000002275858    -0.000000059684     0.000001637072
      27       -0.000002682172     0.000002219429     0.000000754815
      28       -0.000002442281    -0.000002119069    -0.000001645115

  **** Optimization is complete! (in 19 steps) ****
    Final optimized geometry and variables:
    Molecular point group: c1

    Geometry (in Angstrom), charge = 0, multiplicity = 1:

    H            2.163683222817     2.455280067086     4.085261591020
    C            1.166716010781     2.358213960368     3.666734367120
    C            1.223541958273     2.006447440306     2.180762754973
    H            0.645505125428     1.589255072807     4.229276013205
    H            0.646479532723     3.298234283133     3.829927472380
    C           -0.167226206461     1.871958428141     1.556246734222
    H            1.768859612257     1.077727078824     2.051742416749
    H            1.781735516579     2.776483858876     1.650491627194
    C           -0.143190354570     1.532932154159     0.066967527612
    H           -0.730094776181     1.109180437278     2.083442552407
    H           -0.705956633984     2.807967793176     1.685515063400
    C            0.265141290880     0.106482507718    -0.256747265072
    H           -1.131354461597     1.673398991538    -0.371087712948
    H            0.511485094809     2.211677394000    -0.477127933853
    C            0.530856209509    -0.201941197783    -1.722829885610
    O            0.391159479045    -0.725507135457     0.590911878194
    C           -0.015605461348    -1.542990987644    -2.260518557156
    H            1.610147219078    -0.161652771748    -1.852674003790
    H            0.129680743615     0.612201408756    -2.319412869464
    C           -1.318565678722    -2.036005734297    -1.616450478914
    H           -0.236394858525    -1.393226767150    -3.313880836888
    H            0.738413334779    -2.318199708943    -2.182763435160
    C           -1.885990311745    -3.255188648630    -2.343227064767
    H           -2.056982685151    -1.234851149227    -1.634875805456
    H           -1.150060996948    -2.280277576264    -0.576152295245
    H           -2.112213410163    -3.029912000109    -3.381885967530
    H           -1.179556026264    -4.080527661584    -2.330870944759
    H           -2.801570806941    -3.599073764542    -1.872310495160

  Mulliken Charges: (a.u.)
   Center  Symbol    Alpha    Beta     Spin     Total
       1     H     0.41937  0.41937  0.00000  0.16126
       2     C     3.24017  3.24017  0.00000 -0.48035
       3     C     3.15635  3.15635  0.00000 -0.31269
       4     H     0.41855  0.41855  0.00000  0.16289
       5     H     0.42380  0.42380  0.00000  0.15239
       6     C     3.14930  3.14930  0.00000 -0.29859
       7     H     0.40856  0.40856  0.00000  0.18288
       8     H     0.42786  0.42786  0.00000  0.14429
       9     C     3.21429  3.21429  0.00000 -0.42857
      10     H     0.40810  0.40810  0.00000  0.18380
      11     H     0.42179  0.42179  0.00000  0.15642
      12     C     2.72830  2.72830  0.00000  0.54339
      13     H     0.40517  0.40517  0.00000  0.18966
      14     H     0.40981  0.40981  0.00000  0.18038
      15     C     3.20885  3.20885  0.00000 -0.41771
      16     O     4.27100  4.27100  0.00000 -0.54201
      17     C     3.14527  3.14527  0.00000 -0.29055
      18     H     0.40053  0.40053  0.00000  0.19894
      19     H     0.41401  0.41401  0.00000  0.17199
      20     C     3.16423  3.16423  0.00000 -0.32845
      21     H     0.42029  0.42029  0.00000  0.15942
      22     H     0.41328  0.41328  0.00000  0.17343
      23     C     3.24044  3.24044  0.00000 -0.48089
      24     H     0.42915  0.42915  0.00000  0.14171
      25     H     0.39913  0.39913  0.00000  0.20175
      26     H     0.42395  0.42395  0.00000  0.15211
      27     H     0.42043  0.42043  0.00000  0.15914
      28     H     0.41803  0.41803  0.00000  0.16393

   Total alpha = 40.00000, Total beta = 40.00000, Total charge = -0.00000
