                              Psi4 1.0.54 Driver

  ==> Input File <==

--------------------------------------------------------------------------
set {
	reference rhf
	basis cc-pvtz
}

set_num_threads( 4 )
memory 2 gb

molecule MOL {
0 1

O	 0.623971	 1.347241	 -0.000777
C	 0.485107	 0.171416	 -0.000134
C	 1.606966	 -0.836201	 0.000174
O	 -0.695554	 -0.422406	 0.000602
C	 2.988788	 -0.202529	 -0.000115
H	 1.465110	 -1.474645	 -0.864821
H	 1.465209	 -1.474077	 0.865596
H	 3.131767	 0.419673	 -0.873407
H	 3.750876	 -0.972315	 0.000098
H	 3.131883	 0.420264	 0.872742
C	 -0.731714	 -1.825607	 0.219703
C	 -2.177319	 -2.262496	 0.176771
H	 -0.278964	 -2.045294	 1.176313
H	 -0.145595	 -2.317415	 -0.543784
H	 -2.754348	 -1.762929	 0.944784
H	 -2.241111	 -3.331695	 0.341018
H	 -2.620215	 -2.036671	 -0.785111

	symmetry c1
}
set optking {
	frozen_dihedral = ("
		11 4 2 3
	")
}

ee,wfn = optimize('scf', return_wfn=True)
oeprop( wfn, 'DIPOLE', 'QUADRUPOLE', 'MULLIKEN_CHARGES')
f=open( 'psi4out.xyz', 'w' )
f.write( "17  " )
f.write( str(ee) + "\n" )
f.write( MOL.save_string_xyz() )
f.close()
--------------------------------------------------------------------------

    Molecular point group: c1
  Charge       = 0
  Multiplicity = 1
  Basis Set: CC-PVTZ
  Basis Set:
  @DF-RHF Final Energy:  -345.01534534281342
    Total Energy =                       -345.0153453428129069
    Molecular point group: c1
  Basis Set: CC-PVTZ
  Basis Set:
  Basis Set: CC-PVTZ
  Basis Set:
  @DF-RHF Final Energy:  -344.99679491893778
    Total Energy =                       -344.9967949189377237
  Basis Set: CC-PVTZ
  Basis Set:
  Basis Set: CC-PVTZ
  Basis Set:
  @DF-RHF Final Energy:  -345.02263870033511
    Total Energy =                       -345.0226387003349373
  Basis Set: CC-PVTZ
  Basis Set:
  Basis Set: CC-PVTZ
  Basis Set:
  @DF-RHF Final Energy:  -345.02584804811499
    Total Energy =                       -345.0258480481151651
  Basis Set: CC-PVTZ
  Basis Set:
  @DF-RHF Final Energy:  -345.02642140665199
    Total Energy =                       -345.0264214066520481
  @DF-RHF Final Energy:  -345.02668961858620
    Total Energy =                       -345.0266896185863743
  Basis Set: CC-PVTZ
  Basis Set:
  @DF-RHF Final Energy:  -345.02644360704426
    Total Energy =                       -345.0264436070440865
  Basis Set: CC-PVTZ
  Basis Set:
  Basis Set: CC-PVTZ
  Basis Set:
  @DF-RHF Final Energy:  -345.02674873592110
    Total Energy =                       -345.0267487359212168
  Basis Set: CC-PVTZ
  Basis Set:
  Basis Set: CC-PVTZ
  Basis Set:
  @DF-RHF Final Energy:  -345.02675463782674
    Total Energy =                       -345.0267546378267411
  Basis Set: CC-PVTZ
  Basis Set:
  Charge       = 0
  Multiplicity = 1
  Basis Set: CC-PVTZ
  Basis Set:

    Orbital Energies (a.u.)
    -----------------------

    Doubly Occupied:

       1A    -20.591873     2A    -20.526521     3A    -11.364889
       4A    -11.297058     5A    -11.245158     6A    -11.225497
       7A    -11.217601     8A     -1.464394     9A     -1.366174
      10A     -1.064267    11A     -1.047964    12A     -0.901931
      13A     -0.882246    14A     -0.771801    15A     -0.706897
      16A     -0.698721    17A     -0.658063    18A     -0.634830
      19A     -0.590661    20A     -0.577514    21A     -0.561067
      22A     -0.538571    23A     -0.525050    24A     -0.522399
      25A     -0.507645    26A     -0.500417    27A     -0.446998
      28A     -0.432999

  @DF-RHF Final Energy:  -345.02675436739338

   => Energetics <=

    Nuclear Repulsion Energy =            315.9616131743742358
    One-Electron Energy =               -1096.2383166209592673
    Two-Electron Energy =                 435.2499490791919925
    DFT Exchange-Correlation Energy =       0.0000000000000000
    Empirical Dispersion Energy =           0.0000000000000000
    PCM Polarization Energy =               0.0000000000000000
    EFP Energy =                            0.0000000000000000
    Total Energy =                       -345.0267543673930959
    Molecular point group: c1
  Basis Set: CC-PVTZ
  Basis Set:

  -Total Gradient:
     Atom            X                  Y                   Z
    ------   -----------------  -----------------  -----------------
       1        0.000033219582    -0.000157711630     0.000066980280
       2       -0.000051320262     0.000073343158     0.001117283547
       3       -0.000018022801     0.000036797211    -0.000490262273
       4        0.000063119288    -0.000079805786    -0.001439409926
       5       -0.000023905779     0.000006158810    -0.000010578445
       6       -0.000061613889     0.000003581693     0.000009261426
       7        0.000026574209     0.000026706518    -0.000035872568
       8       -0.000003699091    -0.000019640804     0.000015973546
       9       -0.000019028686     0.000009454727     0.000001280098
      10       -0.000005407607    -0.000019006097    -0.000014811191
      11       -0.000009778807     0.000152486640     0.000921268078
      12        0.000011247025    -0.000002905218    -0.000020105196
      13       -0.000064948875    -0.000077005528    -0.000036464960
      14        0.000080843260     0.000036900036    -0.000073218634
      15        0.000023621587    -0.000016628819    -0.000013015858
      16        0.000011815108     0.000040752999    -0.000015335195
      17        0.000007285741    -0.000013477908     0.000017027271

  **** Optimization is complete! (in 10 steps) ****
    Final optimized geometry and variables:
    Molecular point group: c1

    Geometry (in Angstrom), charge = 0, multiplicity = 1:

    O            0.305878423978     1.838925672820    -0.007238441659
    C            0.245331411220     0.661221255534    -0.025605954079
    C            1.468096153425    -0.227197397068    -0.112331159322
    O           -0.949065430292     0.076293100374     0.000290103790
    C            2.766313277932     0.564324530353    -0.143587781474
    H            1.373362011692    -0.839808963531    -1.002682475139
    H            1.461712253390    -0.913718080870     0.726815158691
    H            2.792498782476     1.232598412063    -0.992781078503
    H            3.609951885085    -0.112050977996    -0.209965001824
    H            2.875866045950     1.164511801483     0.749012392505
    C           -1.140141803958    -1.314397152801     0.156009861011
    C           -2.629144247026    -1.574225682388     0.127490025327
    H           -0.718529540463    -1.642463915954     1.098337568885
    H           -0.648536065710    -1.854296116287    -0.643396528326
    H           -3.123539043852    -1.039736567734     0.927824556055
    H           -2.820640940796    -2.634123997192     0.247145081040
    H           -3.053564339279    -1.249649366499    -0.813550394119

  Mulliken Charges: (a.u.)
   Center  Symbol    Alpha    Beta     Spin     Total
       1     O     4.18283  4.18283  0.00000 -0.36566
       2     C     2.81592  2.81592  0.00000  0.36817
       3     C     3.12252  3.12252  0.00000 -0.24505
       4     O     4.12768  4.12768  0.00000 -0.25537
       5     C     3.13889  3.13889  0.00000 -0.27779
       6     H     0.44000  0.44000  0.00000  0.12001
       7     H     0.44171  0.44171  0.00000  0.11658
       8     H     0.44483  0.44483  0.00000  0.11035
       9     H     0.45162  0.45162  0.00000  0.09676
      10     H     0.44603  0.44603  0.00000  0.10793
      11     C     2.98609  2.98609  0.00000  0.02783
      12     C     3.13191  3.13191  0.00000 -0.26382
      13     H     0.45945  0.45945  0.00000  0.08110
      14     H     0.46019  0.46019  0.00000  0.07963
      15     H     0.44638  0.44638  0.00000  0.10725
      16     H     0.45638  0.45638  0.00000  0.08724
      17     H     0.44758  0.44758  0.00000  0.10484

   Total alpha = 28.00000, Total beta = 28.00000, Total charge = -0.00000

*** Psi4 exiting successfully. Buy a developer a beer!
