                              Psi4 1.0.54 Driver

  ==> Input File <==

--------------------------------------------------------------------------
set {
	reference rhf
	basis cc-pvtz
}

set_num_threads( 4 )
memory 2 gb

molecule MOL {
0 1

H	 0.591283	 -2.074710	 -0.887224
C	 -0.163867	 -1.316308	 -1.101756
N	 -0.537714	 -0.645117	 0.000000
O	 -0.579563	 -1.139509	 -2.202963
C	 -1.522613	 0.412524	 0.000000
H	 -0.107284	 -0.898056	 0.854831
H	 -2.150256	 0.356137	 -0.880771
H	 -1.005621	 1.357208	 0.000000
H	 -2.150256	 0.356137	 0.880771

	symmetry c1
}
set optking {
	frozen_dihedral = ("
		6 3 5 7
	")
}

ee,wfn = optimize('scf', return_wfn=True)
oeprop( wfn, 'DIPOLE', 'QUADRUPOLE', 'MULLIKEN_CHARGES')
f=open( 'psi4out.xyz', 'w' )
f.write( "9  " )
f.write( str(ee) + "\n" )
f.write( MOL.save_string_xyz() )
f.close()
--------------------------------------------------------------------------

    Molecular point group: c1
  Charge       = 0
  Multiplicity = 1
  Basis Set: CC-PVTZ
  Basis Set:
  @DF-RHF Final Energy:  -208.04292777881199
    Total Energy =                       -208.0429277788118725
    Molecular point group: c1
  Basis Set: CC-PVTZ
  Basis Set:
  Basis Set: CC-PVTZ
  Basis Set:
  @DF-RHF Final Energy:  -207.74730761509971
    Total Energy =                       -207.7473076150997713
  Basis Set: CC-PVTZ
  Basis Set:
  Basis Set: CC-PVTZ
  Basis Set:
  @DF-RHF Final Energy:  -207.91064991983768
    Total Energy =                       -207.9106499198377094
  Basis Set: CC-PVTZ
  Basis Set:
  Basis Set: CC-PVTZ
  Basis Set:
  @DF-RHF Final Energy:  -208.02640078215580
    Total Energy =                       -208.0264007821558039
  Basis Set: CC-PVTZ
  Basis Set:
  @DF-RHF Final Energy:  -208.04337731202315
    Total Energy =                       -208.0433773120231535
  @DF-RHF Final Energy:  -208.04350291233243
    Total Energy =                       -208.0435029123325137
  @DF-RHF Final Energy:  -208.04326395604386
    Total Energy =                       -208.0432639560439156
  @DF-RHF Final Energy:  -208.04360448961430
    Total Energy =                       -208.0436044896142107
  Basis Set: CC-PVTZ
  Basis Set:
  @DF-RHF Final Energy:  -208.04362023335449
    Total Energy =                       -208.0436202333544884
  Basis Set: CC-PVTZ
  Basis Set:
  Basis Set: CC-PVTZ
  Basis Set:
  @DF-RHF Final Energy:  -208.04362867482999
    Total Energy =                       -208.0436286748300461
  Basis Set: CC-PVTZ
  Basis Set:
  Basis Set: CC-PVTZ
  Basis Set:
  @DF-RHF Final Energy:  -208.04363828730078
    Total Energy =                       -208.0436382873007801
  Basis Set: CC-PVTZ
  Basis Set:
  Charge       = 0
  Multiplicity = 1
  Basis Set: CC-PVTZ
  Basis Set:

    Orbital Energies (a.u.)
    -----------------------

    Doubly Occupied:

       1A    -20.516622     2A    -15.584818     3A    -11.337123
       4A    -11.259623     5A     -1.393997     6A     -1.239722
       7A     -0.970059     8A     -0.808415     9A     -0.748783
      10A     -0.646329    11A     -0.629583    12A     -0.596505
      13A     -0.556768    14A     -0.540409    15A     -0.428594
      16A     -0.396390

  @DF-RHF Final Energy:  -208.04363954761178

   => Energetics <=

    Nuclear Repulsion Energy =            122.7800288040191106
    One-Electron Energy =                -526.3398507433350915
    Two-Electron Energy =                 195.5161823917042341
    DFT Exchange-Correlation Energy =       0.0000000000000000
    Empirical Dispersion Energy =           0.0000000000000000
    PCM Polarization Energy =               0.0000000000000000
    EFP Energy =                            0.0000000000000000
    Total Energy =                       -208.0436395476117184
    Molecular point group: c1
  Basis Set: CC-PVTZ
  Basis Set:

  -Total Gradient:
     Atom            X                  Y                   Z
    ------   -----------------  -----------------  -----------------
       1       -0.000006852529     0.000012957910    -0.000017302348
       2       -0.000014620416    -0.000005410522     0.000070335781
       3       -0.000038438434    -0.000224600955     0.000039400767
       4       -0.000004540463     0.000006993366    -0.000015345169
       5       -0.000097457799    -0.000056331955     0.000076559575
       6        0.000080536491     0.000134557739    -0.000050508660
       7        0.000070430394     0.000086685320    -0.000107930648
       8       -0.000019000186     0.000055403597    -0.000009089626
       9        0.000029942941    -0.000010254502     0.000013880328

  **** Optimization is complete! (in 12 steps) ****
    Final optimized geometry and variables:
    Molecular point group: c1

    Geometry (in Angstrom), charge = 0, multiplicity = 1:

    H            1.695311252502    -0.912670313287    -0.030455151443
    C            0.729087895095    -0.458003061689    -0.257251075784
    N            0.153955303429     0.093001319385     0.824555159638
    O            0.264420658056    -0.480250878032    -1.352669029957
    C           -1.101137886651     0.808298798246     0.770812566160
    H            0.683700772258     0.117797122324     1.660479947716
    H           -1.697491149581     0.407730651683    -0.032599857569
    H           -0.955603494376     1.868148499630     0.594904858852
    H           -1.631638509772     0.677819752723     1.703962427568

  Mulliken Charges: (a.u.)
   Center  Symbol    Alpha    Beta     Spin     Total
       1     H     0.46338  0.46338  0.00000  0.07324
       2     C     2.88083  2.88083  0.00000  0.23834
       3     N     3.60694  3.60694  0.00000 -0.21389
       4     O     4.21424  4.21424  0.00000 -0.42848
       5     C     3.07924  3.07924  0.00000 -0.15847
       6     H     0.41031  0.41031  0.00000  0.17937
       7     H     0.43586  0.43586  0.00000  0.12827
       8     H     0.45545  0.45545  0.00000  0.08909
       9     H     0.45374  0.45374  0.00000  0.09252

   Total alpha = 16.00000, Total beta = 16.00000, Total charge = -0.00000

*** Psi4 exiting successfully. Buy a developer a beer!
