  ==> Input File <==

--------------------------------------------------------------------------
set {
	reference rhf
	basis cc-pvtz
}

set_num_threads( 4 )
memory 2 gb

molecule MOL {
0 1

H	 1.357854	 -1.360862	 0.008286
C	 0.788062	 -0.429851	 0.010289
N	 -0.537714	 -0.645117	 0.000000
O	 1.323820	 0.632964	 0.020573
C	 -1.522613	 0.412524	 0.000000
H	 -0.845867	 -1.585841	 -0.007983
H	 -2.150256	 0.356137	 -0.880771
H	 -1.005621	 1.357208	 0.000000
H	 -2.150256	 0.356137	 0.880771

	symmetry c1
}
set optking {
	frozen_dihedral = ("
		6 3 5 7
	")
}

ee = optimize('scf')
oeprop('DIPOLE', 'QUADRUPOLE', 'MULLIKEN_CHARGES')
f=open( 'psi4out.xyz', 'w' )
f.write( "9  " )
f.write( str(ee) + "\n" )
f.write( MOL.save_string_xyz() )
f.close()
--------------------------------------------------------------------------

    Molecular point group: c1
  Charge       = 0
  Multiplicity = 1
  Basis Set: CC-PVTZ
  Basis Set:
  @DF-RHF Final Energy:  -208.04356662712058
    Total Energy =                       -208.0435666271207253
    Molecular point group: c1
  Basis Set: CC-PVTZ
  Basis Set:
  Charge       = 0
  Multiplicity = 1
  Basis Set: CC-PVTZ
  Basis Set:

    Orbital Energies (a.u.)
    -----------------------

    Doubly Occupied:

       1A    -20.515811     2A    -15.585161     3A    -11.337656
       4A    -11.259120     5A     -1.393441     6A     -1.239927
       7A     -0.970566     8A     -0.808237     9A     -0.748859
      10A     -0.646331    11A     -0.629214    12A     -0.596977
      13A     -0.554676    14A     -0.542886    15A     -0.428022
      16A     -0.395749

  @DF-RHF Final Energy:  -208.04356692998829

   => Energetics <=

    Nuclear Repulsion Energy =            122.6911410753884155
    One-Electron Energy =                -526.1641496923427894
    Two-Electron Energy =                 195.4294416869660438
    DFT Exchange-Correlation Energy =       0.0000000000000000
    Empirical Dispersion Energy =           0.0000000000000000
    PCM Polarization Energy =               0.0000000000000000
    EFP Energy =                            0.0000000000000000
    Total Energy =                       -208.0435669299883159
    Molecular point group: c1
  Basis Set: CC-PVTZ
  Basis Set:

  -Total Gradient:
     Atom            X                  Y                   Z
    ------   -----------------  -----------------  -----------------
       1        0.000016436388    -0.000023543712    -0.000004202023
       2       -0.000033487253    -0.000124347429     0.000011361243
       3        0.000104029639     0.000054965680     0.000013574739
       4       -0.000074002557     0.000044701150    -0.000012550206
       5       -0.000025703949     0.000033689979     0.000015366421
       6        0.000021680857    -0.000003116540    -0.000018110560
       7        0.000004509125    -0.000008187843     0.000004415758
       8        0.000000802329     0.000015465531    -0.000001351108
       9       -0.000014264580     0.000010373185    -0.000008504265

  **** Optimization is complete! (in 2 steps) ****
    Final optimized geometry and variables:
    Molecular point group: c1

    Geometry (in Angstrom), charge = 0, multiplicity = 1:

    H            1.358475638841    -1.361198144339     0.000200875394
    C            0.788449955422    -0.430106843604     0.002584615130
    N           -0.537440912670    -0.645187593675    -0.007883819663
    O            1.323003907826     0.633245921073     0.013123542214
    C           -1.522253486682     0.412581706094    -0.007610829984
    H           -0.845441435421    -1.586063200553    -0.015870660097
    H           -2.149853710235     0.355950768964    -0.888414703376
    H           -1.005347895822     1.357467206574    -0.007899234628
    H           -2.150199471463     0.356902291982     0.873090415284

  Mulliken Charges: (a.u.)
   Center  Symbol    Alpha    Beta     Spin     Total
       1     H     0.46270  0.46270  0.00000  0.07460
       2     C     2.88099  2.88099  0.00000  0.23801
       3     N     3.60831  3.60831  0.00000 -0.21662
       4     O     4.21535  4.21535  0.00000 -0.43070
       5     C     3.08128  3.08128  0.00000 -0.16256
       6     H     0.40932  0.40932  0.00000  0.18135
       7     H     0.45469  0.45469  0.00000  0.09062
       8     H     0.43264  0.43264  0.00000  0.13472
       9     H     0.45472  0.45472  0.00000  0.09057

   Total alpha = 16.00000, Total beta = 16.00000, Total charge =  0.00000
