  ==> Input File <==

--------------------------------------------------------------------------
set {
	reference rhf
	basis 6-31G*
}

set_num_threads( 4 )
memory 2 gb

molecule MOL {
0 1

H	 1.501874	 -0.820543	 2.270515
O	 0.816558	 -0.266372	 1.925658
C	 1.135793	 0.118896	 0.612333
C	 0.031547	 1.023609	 0.088541
H	 1.218602	 -0.755027	 -0.031322
H	 2.095210	 0.630754	 0.587377
C	 -1.134819	 0.293262	 -0.585751
H	 0.474374	 1.714721	 -0.623187
H	 -0.338529	 1.620940	 0.920081
C	 -1.917817	 -0.639439	 0.339494
H	 -0.758119	 -0.268455	 -1.433105
H	 -1.813832	 1.041889	 -0.986690
H	 -2.777680	 -1.057197	 -0.174994
H	 -1.310268	 -1.471279	 0.680599
H	 -2.283753	 -0.111424	 1.216626

	symmetry c1
}
set optking {
	frozen_dihedral = ("
		2 3 4 8
	")
}

ee = optimize('scf')
oeprop('DIPOLE', 'QUADRUPOLE', 'MULLIKEN_CHARGES')
f=open( 'psi4out.xyz', 'w' )
f.write( "15  " )
f.write( str(ee) + "\n" )
f.write( MOL.save_string_xyz() )
f.close()
--------------------------------------------------------------------------

    Molecular point group: c1
  Charge       = 0
  Multiplicity = 1
  Basis Set: 6-31G*
  Basis Set:
  @DF-RHF Final Energy:  -232.14123927433468
    Total Energy =                       -232.1412392743347937
    Molecular point group: c1
  Basis Set: 6-31G*
  Basis Set:
  Basis Set: 6-31G*
  Basis Set:
  @DF-RHF Final Energy:  -232.14154723378491
    Total Energy =                       -232.1415472337847632
  Basis Set: 6-31G*
  Basis Set:
  Basis Set: 6-31G*
  Basis Set:
  @DF-RHF Final Energy:  -232.14159172186035
    Total Energy =                       -232.1415917218602658
  Basis Set: 6-31G*
  Basis Set:
  Basis Set: 6-31G*
  Basis Set:
  @DF-RHF Final Energy:  -232.14159607864445
    Total Energy =                       -232.1415960786445680
  Basis Set: 6-31G*
  Basis Set:
  Charge       = 0
  Multiplicity = 1
  Basis Set: 6-31G*
  Basis Set:

    Orbital Energies (a.u.)
    -----------------------

    Doubly Occupied:

       1A    -20.553313     2A    -11.268545     3A    -11.213009
       4A    -11.212118     5A    -11.198406     6A     -1.359539
       7A     -1.063569     8A     -0.968606     9A     -0.864060
      10A     -0.780122    11A     -0.701576    12A     -0.647086
      13A     -0.606981    14A     -0.573374    15A     -0.552342
      16A     -0.539235    17A     -0.503614    18A     -0.474582
      19A     -0.467278    20A     -0.454923    21A     -0.426575

  @DF-RHF Final Energy:  -232.14159638802755

   => Energetics <=

    Nuclear Repulsion Energy =            192.1190929425542890
    One-Electron Energy =                -695.6636729828712760
    Two-Electron Energy =                 271.4029836522893220
    DFT Exchange-Correlation Energy =       0.0000000000000000
    Empirical Dispersion Energy =           0.0000000000000000
    PCM Polarization Energy =               0.0000000000000000
    EFP Energy =                            0.0000000000000000
    Total Energy =                       -232.1415963880276649
    Molecular point group: c1
  Basis Set: 6-31G*
  Basis Set:

  -Total Gradient:
     Atom            X                  Y                   Z
    ------   -----------------  -----------------  -----------------
       1        0.000003230141     0.000017083617    -0.000037552210
       2        0.000938111387     0.001732530272     0.000786042678
       3       -0.001173015646    -0.001884785734    -0.000561979963
       4       -0.000281353343    -0.001627960991    -0.002203538346
       5        0.000005466791    -0.000001587043    -0.000020789052
       6       -0.000021238631     0.000028682213    -0.000016741580
       7        0.000045069461    -0.000036052073    -0.000015681605
       8        0.000467144661     0.001729736604     0.002058258981
       9        0.000008674680     0.000032527008     0.000014329818
      10        0.000002205933     0.000001777790     0.000018186869
      11       -0.000019295098    -0.000009707830    -0.000039566220
      12        0.000018994368     0.000000406616     0.000024450391
      13        0.000005985933    -0.000000958753    -0.000004319216
      14        0.000005294354     0.000020367093     0.000000809808
      15       -0.000005274988    -0.000002058789    -0.000001910350

  **** Optimization is complete! (in 5 steps) ****
    Final optimized geometry and variables:
    Molecular point group: c1

    Geometry (in Angstrom), charge = 0, multiplicity = 1:

    H            1.680935355372    -0.953748197964     1.713826718364
    O            1.011966158569    -0.364107648043     1.395799706028
    C            1.328549140537     0.045579357405     0.087759402433
    C            0.212655774332     0.943840362527    -0.437652666511
    H            1.462971721788    -0.815708183104    -0.565194612508
    H            2.266588727288     0.597109580530     0.094456658376
    C           -0.957832227905     0.214926638082    -1.104836914647
    H            0.644013407108     1.653002316596    -1.140025097306
    H           -0.146931707429     1.534821942637     0.400411936255
    C           -1.749831690259    -0.703218381065    -0.172885780693
    H           -0.583822957287    -0.360773637701    -1.949758003689
    H           -1.630397857962     0.960108866481    -1.522831501526
    H           -2.581644178831    -1.158795841069    -0.702241316467
    H           -1.131272185632    -1.496064005528     0.229849785773
    H           -2.152250107867    -0.148145210162     0.668895582817

  Mulliken Charges: (a.u.)
   Center  Symbol    Alpha    Beta     Spin     Total
       1     H     0.28143  0.28143  0.00000  0.43714
       2     O     4.36910  4.36910  0.00000 -0.73819
       3     C     2.99871  2.99871  0.00000  0.00258
       4     C     3.16227  3.16227  0.00000 -0.32454
       5     H     0.43163  0.43163  0.00000  0.13674
       6     H     0.42876  0.42876  0.00000  0.14248
       7     C     3.15522  3.15522  0.00000 -0.31044
       8     H     0.42138  0.42138  0.00000  0.15723
       9     H     0.40998  0.40998  0.00000  0.18005
      10     C     3.23559  3.23559  0.00000 -0.47118
      11     H     0.42596  0.42596  0.00000  0.14809
      12     H     0.42150  0.42150  0.00000  0.15700
      13     H     0.42487  0.42487  0.00000  0.15026
      14     H     0.41403  0.41403  0.00000  0.17193
      15     H     0.41957  0.41957  0.00000  0.16086

   Total alpha = 21.00000, Total beta = 21.00000, Total charge =  0.00000
