                              Psi4 1.0.54 Driver

  ==> Input File <==

--------------------------------------------------------------------------
set {
	reference rhf
	basis cc-pvtz
}

set_num_threads( 4 )
memory 2 gb

molecule MOL {
0 1

H	 -2.266619	 1.169943	 0.000098
O	 -1.438073	 1.611259	 0.000041
C	 -0.408657	 0.734701	 0.000005
C	 0.205639	 0.492847	 -1.214719
C	 0.022980	 0.099030	 1.158334
H	 -0.156715	 1.002996	 -2.085568
C	 1.262272	 -0.389794	 -1.288483
C	 1.086642	 -0.782678	 1.054693
C	 -0.648433	 0.364049	 2.483163
H	 1.734270	 -0.572594	 -2.234940
C	 1.709762	 -1.034080	 -0.151347
H	 1.432127	 -1.282001	 1.940855
H	 -1.700562	 0.093977	 2.463021
H	 -0.183513	 -0.213718	 3.268959
H	 -0.579745	 1.410296	 2.767722
H	 2.531159	 -1.721974	 -0.201140

	symmetry c1
}
set optking {
	frozen_dihedral = ("
		4 3 2 1
	")
}

ee,wfn = optimize('scf', return_wfn=True)
oeprop( wfn, 'DIPOLE', 'QUADRUPOLE', 'MULLIKEN_CHARGES')
f=open( 'psi4out.xyz', 'w' )
f.write( "16  " )
f.write( str(ee) + "\n" )
f.write( MOL.save_string_xyz() )
f.close()
--------------------------------------------------------------------------

    Molecular point group: c1
  Charge       = 0
  Multiplicity = 1
  Basis Set: CC-PVTZ
  Basis Set:
  @DF-RHF Final Energy:  -344.71528593773235
    Total Energy =                       -344.7152859377321192
    Molecular point group: c1
  Basis Set: CC-PVTZ
  Basis Set:
  Basis Set: CC-PVTZ
  Basis Set:
  @DF-RHF Final Energy:  -344.71611833296504
    Total Energy =                       -344.7161183329649248
  Basis Set: CC-PVTZ
  Basis Set:
  Basis Set: CC-PVTZ
  Basis Set:
  @DF-RHF Final Energy:  -344.71618610828142
    Total Energy =                       -344.7161861082813630
  Basis Set: CC-PVTZ
  Basis Set:
  Basis Set: CC-PVTZ
  Basis Set:
  @DF-RHF Final Energy:  -344.71619740748355
    Total Energy =                       -344.7161974074837190
  Basis Set: CC-PVTZ
  Basis Set:
  Basis Set: CC-PVTZ
  Basis Set:
  @DF-RHF Final Energy:  -344.71620086449843
    Total Energy =                       -344.7162008644980915
  Basis Set: CC-PVTZ
  Basis Set:
  Charge       = 0
  Multiplicity = 1
  Basis Set: CC-PVTZ
  Basis Set:

    Orbital Energies (a.u.)
    -----------------------

    Doubly Occupied:

       1A    -20.569933     2A    -11.282588     3A    -11.233885
       4A    -11.226989     5A    -11.226371     6A    -11.222949
       7A    -11.222493     8A    -11.219916     9A     -1.396211
      10A     -1.153645    11A     -1.048590    12A     -1.007133
      13A     -0.936333    14A     -0.831573    15A     -0.810802
      16A     -0.730127    17A     -0.671388    18A     -0.658383
      19A     -0.625568    20A     -0.594435    21A     -0.573790
      22A     -0.569148    23A     -0.547391    24A     -0.522122
      25A     -0.503024    26A     -0.488083    27A     -0.466448
      28A     -0.333624    29A     -0.322381

  @DF-RHF Final Energy:  -344.71620157870859

   => Energetics <=

    Nuclear Repulsion Energy =            350.4684565056478505
    One-Electron Energy =               -1162.3786748420341155
    Two-Electron Energy =                 467.1940167576777299
    DFT Exchange-Correlation Energy =       0.0000000000000000
    Empirical Dispersion Energy =           0.0000000000000000
    PCM Polarization Energy =               0.0000000000000000
    EFP Energy =                            0.0000000000000000
    Total Energy =                       -344.7162015787085352
    Molecular point group: c1
  Basis Set: CC-PVTZ
  Basis Set:

  -Total Gradient:
     Atom            X                  Y                   Z
    ------   -----------------  -----------------  -----------------
       1        0.000007323472     0.000034062712    -0.000672145121
       2       -0.000217018689    -0.000152963273     0.000785831664
       3        0.000559122570     0.000442308260    -0.000063800277
       4       -0.000419027780    -0.000270750211    -0.000102811799
       5        0.000055642227    -0.000034973186     0.000045248887
       6        0.000007800006    -0.000010682885     0.000014759457
       7        0.000069387270    -0.000066413801     0.000045339721
       8       -0.000091221094     0.000076110760     0.000054009166
       9       -0.000000949623    -0.000033683305    -0.000033750056
      10        0.000004919594    -0.000003820534    -0.000008269036
      11        0.000018392160     0.000010899576    -0.000094951292
      12        0.000003022955    -0.000007315778     0.000007073320
      13       -0.000002356101     0.000001961392    -0.000001598870
      14        0.000001614938    -0.000001752735     0.000016308223
      15        0.000011798705     0.000016013429     0.000005163900
      16       -0.000008450614     0.000000999583     0.000003592112

  **** Optimization is complete! (in 6 steps) ****
    Final optimized geometry and variables:
    Molecular point group: c1

    Geometry (in Angstrom), charge = 0, multiplicity = 1:

    H           -2.416428162944     1.023546918726    -0.238476223245
    O           -1.581087757386     1.457368072248    -0.232975562997
    C           -0.560876025152     0.545083371984    -0.291054830822
    C            0.055376824219     0.310689652988    -1.501949906150
    C           -0.134327947339    -0.090199999440     0.868706406763
    H           -0.297531936940     0.832042755414    -2.370506463267
    C            1.115146615046    -0.573544698935    -1.580150352713
    C            0.927012764850    -0.973720524686     0.767347037456
    C           -0.809467823256     0.185533806472     2.186984863253
    H            1.593914807190    -0.752258118422    -2.523773971021
    C            1.550940189032    -1.219645936811    -0.442298759067
    H            1.274156000654    -1.475223822762     1.651375427730
    H           -1.840554791186    -0.152765533204     2.183870887605
    H           -0.298067668950    -0.323422642622     2.992565719592
    H           -0.821782647971     1.246223697892     2.402537946010
    H            2.373390404427    -1.907161085834    -0.490408923075

  Mulliken Charges: (a.u.)
   Center  Symbol    Alpha    Beta     Spin     Total
       1     H     0.38990  0.38990  0.00000  0.22019
       2     O     4.18874  4.18874  0.00000 -0.37748
       3     C     2.88578  2.88578  0.00000  0.22844
       4     C     3.10640  3.10640  0.00000 -0.21281
       5     C     2.99503  2.99503  0.00000  0.00994
       6     H     0.41790  0.41790  0.00000  0.16420
       7     C     3.07694  3.07694  0.00000 -0.15388
       8     C     3.09432  3.09432  0.00000 -0.18864
       9     C     3.14786  3.14786  0.00000 -0.29573
      10     H     0.42204  0.42204  0.00000  0.15593
      11     C     3.07912  3.07912  0.00000 -0.15824
      12     H     0.42454  0.42454  0.00000  0.15093
      13     H     0.45566  0.45566  0.00000  0.08867
      14     H     0.45128  0.45128  0.00000  0.09744
      15     H     0.44049  0.44049  0.00000  0.11902
      16     H     0.42399  0.42399  0.00000  0.15202

   Total alpha = 29.00000, Total beta = 29.00000, Total charge = -0.00000

*** Psi4 exiting successfully. Buy a developer a beer!
