  ==> Input File <==

--------------------------------------------------------------------------
set {
	reference rhf
	basis 6-31G*
}

set_num_threads( 1 )
memory 2 gb

molecule MOL {
0 1

H	 2.608607	 -4.041577	 2.010861
O	 3.387589	 -3.895885	 1.494108
C	 3.070570	 -3.972915	 0.127500
C	 2.284082	 -2.767657	 -0.376005
H	 4.018505	 -4.033551	 -0.391553
H	 2.525861	 -4.891850	 -0.086111
C	 0.901307	 -2.615905	 0.262565
H	 2.871206	 -1.871590	 -0.192382
H	 2.175770	 -2.860349	 -1.455377
C	 0.115918	 -1.429151	 -0.302766
H	 1.015022	 -2.497214	 1.336505
H	 0.328290	 -3.530105	 0.106905
C	 -1.309753	 -1.282496	 0.241564
H	 0.669374	 -0.511051	 -0.114018
H	 0.062369	 -1.533317	 -1.384423
C	 -2.037799	 -0.007733	 -0.193645
H	 -1.890610	 -2.142323	 -0.085726
H	 -1.285946	 -1.330893	 1.329189
C	 -3.489788	 0.042957	 0.286558
H	 -2.017067	 0.064384	 -1.280144
H	 -1.513726	 0.868678	 0.179924
C	 -4.216917	 1.317354	 -0.141063
H	 -4.025645	 -0.823308	 -0.095450
H	 -3.513059	 -0.038752	 1.371301
H	 -4.239342	 1.411634	 -1.223113
H	 -5.243387	 1.322503	 0.212445
H	 -3.726170	 2.201406	 0.256408

	symmetry c1
}
set optking {
	frozen_dihedral = ("
		14 10 7 4,
		10 7 4 8,
		8 4 3 2,
		10 13 16 20,
		20 16 19 22,
		4 3 2 1
	")
}

ee = energy('scf')
oeprop('DIPOLE', 'QUADRUPOLE', 'MULLIKEN_CHARGES')
f=open( 'psi4out.xyz', 'w' )
f.write( "27  " )
f.write( str(ee) + "\n" )
f.write( MOL.save_string_xyz() )
f.close()
--------------------------------------------------------------------------

    Molecular point group: c1

    Geometry (in Angstrom), charge = 0, multiplicity = 1:

       Center              X                  Y                   Z               Mass
    ------------   -----------------  -----------------  -----------------  -----------------
           H          2.710591220943    -2.386937077830     1.832172672975     1.007825032070
           O          3.489573220943    -2.241245077830     1.315419672975    15.994914619560
           C          3.172554220943    -2.318275077830    -0.051188327025    12.000000000000
           C          2.386066220943    -1.113017077830    -0.554693327025    12.000000000000
           H          4.120489220943    -2.378911077830    -0.570241327025     1.007825032070
           H          2.627845220943    -3.237210077830    -0.264799327025     1.007825032070
           C          1.003291220943    -0.961265077830     0.083876672975    12.000000000000
           H          2.973190220943    -0.216950077830    -0.371070327025     1.007825032070
           H          2.277754220943    -1.205709077830    -1.634065327025     1.007825032070
           C          0.217902220943     0.225488922170    -0.481454327025    12.000000000000
           H          1.117006220943    -0.842574077830     1.157816672975     1.007825032070
           H          0.430274220943    -1.875465077830    -0.071783327025     1.007825032070
           C         -1.207768779057     0.372143922170     0.062875672975    12.000000000000
           H          0.771358220943     1.143588922170    -0.292706327025     1.007825032070
           H          0.164353220943     0.121322922170    -1.563111327025     1.007825032070
           C         -1.935814779057     1.646906922170    -0.372333327025    12.000000000000
           H         -1.788625779057    -0.487683077830    -0.264414327025     1.007825032070
           H         -1.183961779057     0.323746922170     1.150500672975     1.007825032070
           C         -3.387803779057     1.697596922170     0.107869672975    12.000000000000
           H         -1.915082779057     1.719023922170    -1.458832327025     1.007825032070
           H         -1.411741779057     2.523317922170     0.001235672975     1.007825032070
           C         -4.114932779057     2.971993922170    -0.319751327025    12.000000000000
           H         -3.923660779057     0.831331922170    -0.274138327025     1.007825032070
           H         -3.411074779057     1.615887922170     1.192612672975     1.007825032070
           H         -4.137357779057     3.066273922170    -1.401801327025     1.007825032070
           H         -5.141402779057     2.977142922170     0.033756672975     1.007825032070
           H         -3.624185779057     3.856045922170     0.077719672975     1.007825032070

  Charge       = 0
  Multiplicity = 1
  Basis Set: 6-31G*
  Basis Set:

    Orbital Energies (a.u.)
    -----------------------

    Doubly Occupied:

       1A    -20.552408     2A    -11.267278     3A    -11.220899
       4A    -11.217257     5A    -11.216008     6A    -11.215673
       7A    -11.215540     8A    -11.214594     9A    -11.209206
      10A     -1.359167    11A     -1.094039    12A     -1.063005
      13A     -1.011619    14A     -0.950741    15A     -0.883463
      16A     -0.819961    17A     -0.791762    18A     -0.789862
      19A     -0.694398    20A     -0.658686    21A     -0.635326
      22A     -0.613319    23A     -0.599586    24A     -0.587174
      25A     -0.575564    26A     -0.554597    27A     -0.538246
      28A     -0.520354    29A     -0.512357    30A     -0.490738
      31A     -0.483246    32A     -0.473729    33A     -0.469031
      34A     -0.461494    35A     -0.460170    36A     -0.443882
      37A     -0.421147

  @DF-RHF Final Energy:  -388.28284628291027

   => Energetics <=

    Nuclear Repulsion Energy =            450.4922778148932707
    One-Electron Energy =               -1418.9793921060465891
    Two-Electron Energy =                 580.2042680082423658
    DFT Exchange-Correlation Energy =       0.0000000000000000
    Empirical Dispersion Energy =           0.0000000000000000
    PCM Polarization Energy =               0.0000000000000000
    EFP Energy =                            0.0000000000000000
    Total Energy =                       -388.2828462829110094

  Mulliken Charges: (a.u.)
   Center  Symbol    Alpha    Beta     Spin     Total
       1     H     0.27985  0.27985  0.00000  0.44029
       2     O     4.37099  4.37099  0.00000 -0.74197
       3     C     2.99741  2.99741  0.00000  0.00518
       4     C     3.16145  3.16145  0.00000 -0.32289
       5     H     0.41432  0.41432  0.00000  0.17135
       6     H     0.43195  0.43195  0.00000  0.13609
       7     C     3.16164  3.16164  0.00000 -0.32327
       8     H     0.41479  0.41479  0.00000  0.17043
       9     H     0.42407  0.42407  0.00000  0.15187
      10     C     3.15048  3.15048  0.00000 -0.30096
      11     H     0.42458  0.42458  0.00000  0.15084
      12     H     0.42501  0.42501  0.00000  0.14999
      13     C     3.15187  3.15187  0.00000 -0.30374
      14     H     0.42169  0.42169  0.00000  0.15662
      15     H     0.42344  0.42344  0.00000  0.15312
      16     C     3.15090  3.15090  0.00000 -0.30179
      17     H     0.42440  0.42440  0.00000  0.15120
      18     H     0.42430  0.42430  0.00000  0.15140
      19     C     3.15175  3.15175  0.00000 -0.30350
      20     H     0.42406  0.42406  0.00000  0.15188
      21     H     0.42305  0.42305  0.00000  0.15390
      22     C     3.23931  3.23931  0.00000 -0.47862
      23     H     0.42315  0.42315  0.00000  0.15370
      24     H     0.42296  0.42296  0.00000  0.15408
      25     H     0.42172  0.42172  0.00000  0.15656
      26     H     0.41923  0.41923  0.00000  0.16154
      27     H     0.42164  0.42164  0.00000  0.15672

   Total alpha = 37.00000, Total beta = 37.00000, Total charge = -0.00000
