                              Psi4 1.0.54 Driver

  ==> Input File <==

--------------------------------------------------------------------------
set {
	reference rhf
	basis cc-pvtz
}

set_num_threads( 4 )
memory 2 gb

molecule MOL {
0 1

O	 -3.472335	 -0.022137	 -0.849136
C	 -2.664672	 0.129869	 0.003507
C	 -2.880044	 0.999432	 1.212539
O	 -1.481217	 -0.452708	 0.001092
H	 -3.752813	 0.642114	 1.742329
H	 -2.024100	 0.997162	 1.868280
H	 -3.087473	 2.007196	 0.878685
C	 -0.332055	 0.384012	 -0.000250
C	 0.892252	 -0.506059	 -0.000295
H	 -0.360822	 1.020205	 -0.874146
H	 -0.359817	 1.021310	 0.872861
C	 2.188199	 0.299473	 -0.001416
H	 0.857046	 -1.152781	 -0.871031
H	 0.857910	 -1.151798	 0.871202
C	 3.437151	 -0.577593	 -0.000991
H	 2.209565	 0.950707	 -0.871712
H	 2.210062	 0.952234	 0.867721
C	 4.732399	 0.226982	 -0.000914
H	 3.417321	 -1.229122	 -0.869998
H	 3.416993	 -1.228707	 0.868337
H	 4.797903	 0.863451	 -0.876963
H	 5.598517	 -0.424436	 -0.000420
H	 4.797415	 0.864118	 0.874691

	symmetry c1
}
set optking {
	frozen_dihedral = ("
		1 2 4 8
	")
}

ee,wfn = optimize('scf', return_wfn=True)
oeprop( wfn, 'DIPOLE', 'QUADRUPOLE', 'MULLIKEN_CHARGES')
f=open( 'psi4out.xyz', 'w' )
f.write( "23  " )
f.write( str(ee) + "\n" )
f.write( MOL.save_string_xyz() )
f.close()
--------------------------------------------------------------------------

    Molecular point group: c1
  Charge       = 0
  Multiplicity = 1
  Basis Set: CC-PVTZ
  Basis Set:
  @DF-RHF Final Energy:  -423.11241109612797
    Total Energy =                       -423.1124110961281986
    Molecular point group: c1
  Basis Set: CC-PVTZ
  Basis Set:
  Basis Set: CC-PVTZ
  Basis Set:
  @DF-RHF Final Energy:  -422.98102525423820
    Total Energy =                       -422.9810252542386024
  Basis Set: CC-PVTZ
  Basis Set:
  Basis Set: CC-PVTZ
  Basis Set:
  @DF-RHF Final Energy:  -423.08515983659771
    Total Energy =                       -423.0851598365971995
  Basis Set: CC-PVTZ
  Basis Set:
  Basis Set: CC-PVTZ
  Basis Set:
  @DF-RHF Final Energy:  -423.11326412199321
    Total Energy =                       -423.1132641219930974
  Basis Set: CC-PVTZ
  Basis Set:
  @DF-RHF Final Energy:  -423.02614337309609
    Total Energy =                       -423.0261433730962608
  @DF-RHF Final Energy:  -423.10879639055264
    Total Energy =                       -423.1087963905525839
  @DF-RHF Final Energy:  -423.11539231887531
    Total Energy =                       -423.1153923188751378
  @DF-RHF Final Energy:  -423.11567708526411
    Total Energy =                       -423.1156770852644513
  @DF-RHF Final Energy:  -423.11582158312086
    Total Energy =                       -423.1158215831205780
  @DF-RHF Final Energy:  -423.11596958753262
    Total Energy =                       -423.1159695875328453
  @DF-RHF Final Energy:  -423.11611454501912
    Total Energy =                       -423.1161145450189451
  @DF-RHF Final Energy:  -423.11626196226314
    Total Energy =                       -423.1162619622632519
  @DF-RHF Final Energy:  -423.11646203589868
    Total Energy =                       -423.1164620358981665
  @DF-RHF Final Energy:  -423.11675400550217
    Total Energy =                       -423.1167540055023437
  @DF-RHF Final Energy:  -423.11611210119537
    Total Energy =                       -423.1161121011957675
  Basis Set: CC-PVTZ
  Basis Set:
  @DF-RHF Final Energy:  -423.11680502394012
    Total Energy =                       -423.1168050239402874
  Basis Set: CC-PVTZ
  Basis Set:
  Basis Set: CC-PVTZ
  Basis Set:
  @DF-RHF Final Energy:  -423.11687084319379
    Total Energy =                       -423.1168708431936238
  Basis Set: CC-PVTZ
  Basis Set:
  Basis Set: CC-PVTZ
  Basis Set:
  @DF-RHF Final Energy:  -423.11687584964392
    Total Energy =                       -423.1168758496437476
  Basis Set: CC-PVTZ
  Basis Set:
  Charge       = 0
  Multiplicity = 1
  Basis Set: CC-PVTZ
  Basis Set:

    Orbital Energies (a.u.)
    -----------------------

    Doubly Occupied:

       1A    -20.579509     2A    -20.539504     3A    -11.368731
       4A    -11.292634     5A    -11.237187     6A    -11.225635
       7A    -11.225016     8A    -11.221861     9A    -11.213215
      10A     -1.460869    11A     -1.369099    12A     -1.096943
      13A     -1.036577    14A     -1.012358    15A     -0.939225
      16A     -0.845547    17A     -0.806315    18A     -0.777401
      19A     -0.700250    20A     -0.691709    21A     -0.660104
      22A     -0.651145    23A     -0.620061    24A     -0.593665
      25A     -0.580883    26A     -0.578279    27A     -0.567464
      28A     -0.545804    29A     -0.521401    30A     -0.502145
      31A     -0.491454    32A     -0.481484    33A     -0.474839
      34A     -0.474317    35A     -0.455032    36A     -0.435660

  @DF-RHF Final Energy:  -423.11687616543963

   => Energetics <=

    Nuclear Repulsion Energy =            450.0963153498726115
    One-Electron Energy =               -1467.8797385415086865
    Two-Electron Energy =                 594.6665470261957580
    DFT Exchange-Correlation Energy =       0.0000000000000000
    Empirical Dispersion Energy =           0.0000000000000000
    PCM Polarization Energy =               0.0000000000000000
    EFP Energy =                            0.0000000000000000
    Total Energy =                       -423.1168761654403170
    Molecular point group: c1
  Basis Set: CC-PVTZ
  Basis Set:

  -Total Gradient:
     Atom            X                  Y                   Z
    ------   -----------------  -----------------  -----------------
       1        0.001572546299     0.002152809708    -0.001866800883
       2       -0.002321135834    -0.003280104540     0.001273387152
       3       -0.000028515201     0.000101778746    -0.000004062515
       4        0.000753067344     0.001365880618     0.003187188502
       5        0.000043744583    -0.000027064635     0.000008974887
       6        0.000003671888     0.000000788278     0.000027207973
       7       -0.000022946140    -0.000023974155     0.000008362093
       8        0.000012572814    -0.000267770530    -0.002633720514
       9        0.000001982465    -0.000008960803     0.000026682239
      10       -0.000025991397     0.000012019004    -0.000012721532
      11       -0.000006751082    -0.000005687022     0.000011826468
      12       -0.000007185251    -0.000001051592    -0.000004978294
      13        0.000011859170    -0.000003761305    -0.000011947135
      14       -0.000002812831    -0.000010653676     0.000009801818
      15        0.000005883843     0.000002351568    -0.000011966853
      16        0.000007820764     0.000004883889    -0.000010520298
      17       -0.000012750562     0.000005817385     0.000009572170
      18        0.000004438835    -0.000009917174    -0.000000779895
      19        0.000009477226    -0.000009369082    -0.000012321411
      20       -0.000004652408    -0.000003111058     0.000009366605
      21        0.000000989930     0.000005795988    -0.000010435927
      22        0.000007859081    -0.000006872221    -0.000001950044
      23       -0.000003173544     0.000006172608     0.000009835394

  **** Optimization is complete! (in 19 steps) ****
    Final optimized geometry and variables:
    Molecular point group: c1

    Geometry (in Angstrom), charge = 0, multiplicity = 1:

    O           -3.433669641279     0.356346007850    -0.820479798944
    C           -2.657792360872     0.519110553658     0.048651221375
    C           -2.837599099715     1.541071280619     1.142277982487
    O           -1.550447350313    -0.234925551418     0.130056584391
    H           -3.847255147705     1.916863552737     1.112831574184
    H           -2.625789200735     1.101336040707     2.108060096454
    H           -2.152375931160     2.367178575328     0.993921394240
    C           -0.281218560197     0.389276559973     0.077563514385
    C            0.771236426288    -0.693748466140    -0.031133540226
    H           -0.241057202418     1.047012346776    -0.784705622744
    H           -0.118982388968     0.985591733729     0.969289836410
    C            2.185795129443    -0.125160605487    -0.090749195881
    H            0.566669434014    -1.284774691995    -0.916696425295
    H            0.671218026570    -1.358630476311     0.820406048573
    C            3.257792067194    -1.205653633327    -0.203858075511
    H            2.270566928776     0.550557265296    -0.938550652237
    H            2.375846338343     0.473600933313     0.797086415433
    C            4.672376335545    -0.639790749644    -0.263944528266
    H            3.070235771897    -1.803731010875    -1.090882035369
    H            3.175011295251    -1.881616082806     0.642446431879
    H            4.796615764107     0.014030226719    -1.120745634570
    H            5.407689256578    -1.431842106606    -0.343765137201
    H            4.902241735950    -0.063888393701     0.626377989576

  Mulliken Charges: (a.u.)
   Center  Symbol    Alpha    Beta     Spin     Total
       1     O     4.17011  4.17011  0.00000 -0.34022
       2     C     2.81309  2.81309  0.00000  0.37382
       3     C     3.16137  3.16137  0.00000 -0.32275
       4     O     4.15285  4.15285  0.00000 -0.30570
       5     H     0.43044  0.43044  0.00000  0.13912
       6     H     0.44204  0.44204  0.00000  0.11592
       7     H     0.44844  0.44844  0.00000  0.10312
       8     C     2.98097  2.98097  0.00000  0.03805
       9     C     3.08347  3.08347  0.00000 -0.16694
      10     H     0.45923  0.45923  0.00000  0.08154
      11     H     0.46153  0.46153  0.00000  0.07693
      12     C     3.09946  3.09946  0.00000 -0.19893
      13     H     0.44398  0.44398  0.00000  0.11203
      14     H     0.44837  0.44837  0.00000  0.10326
      15     C     3.08583  3.08583  0.00000 -0.17165
      16     H     0.45320  0.45320  0.00000  0.09360
      17     H     0.45479  0.45479  0.00000  0.09043
      18     C     3.14947  3.14947  0.00000 -0.29893
      19     H     0.45180  0.45180  0.00000  0.09640
      20     H     0.45285  0.45285  0.00000  0.09429
      21     H     0.45455  0.45455  0.00000  0.09090
      22     H     0.44695  0.44695  0.00000  0.10610
      23     H     0.45520  0.45520  0.00000  0.08961

   Total alpha = 36.00000, Total beta = 36.00000, Total charge =  0.00000

*** Psi4 exiting successfully. Buy a developer a beer!
