  ==> Input File <==

--------------------------------------------------------------------------
set {
	reference rhf
	basis cc-pvtz
}

set_num_threads( 4 )
memory 2 gb

molecule MOL {
0 1

H	 2.310389	 -0.153465	 0.300278
O	 1.583947	 -0.677544	 -0.001533
C	 0.489979	 0.078084	 0.002623
C	 -0.763662	 -0.754014	 0.000816
O	 0.539051	 1.259395	 -0.000088
C	 -2.038001	 0.074705	 -0.000833
H	 -0.712945	 -1.405886	 -0.864342
H	 -0.715137	 -1.405770	 0.866182
H	 -2.087267	 0.710831	 -0.874232
H	 -2.903419	 -0.576199	 -0.001922
H	 -2.089467	 0.710909	 0.872389

	symmetry c1
}
set optking {
	frozen_dihedral = ("
		1 2 3 5
	")
}

ee = optimize('scf')
oeprop('DIPOLE', 'QUADRUPOLE', 'MULLIKEN_CHARGES')
f=open( 'psi4out.xyz', 'w' )
f.write( "11  " )
f.write( str(ee) + "\n" )
f.write( MOL.save_string_xyz() )
f.close()
--------------------------------------------------------------------------

    Molecular point group: c1
  Charge       = 0
  Multiplicity = 1
  Basis Set: CC-PVTZ
  Basis Set:
  @DF-RHF Final Energy:  -266.95102349472450
    Total Energy =                       -266.9510234947246090
    Molecular point group: c1
  Basis Set: CC-PVTZ
  Basis Set:
  Basis Set: CC-PVTZ
  Basis Set:
  @DF-RHF Final Energy:  -266.94840918698583
    Total Energy =                       -266.9484091869857707
  Basis Set: CC-PVTZ
  Basis Set:
  Basis Set: CC-PVTZ
  Basis Set:
  @DF-RHF Final Energy:  -266.95116908484709
    Total Energy =                       -266.9511690848470948
  Basis Set: CC-PVTZ
  Basis Set:
  Basis Set: CC-PVTZ
  Basis Set:
  @DF-RHF Final Energy:  -266.95119718513121
    Total Energy =                       -266.9511971851310363
  Basis Set: CC-PVTZ
  Basis Set:
  @DF-RHF Final Energy:  -266.95120261315378
    Total Energy =                       -266.9512026131538391
  @DF-RHF Final Energy:  -266.95103324126433
    Total Energy =                       -266.9510332412645539
  @DF-RHF Final Energy:  -266.95120189645183
    Total Energy =                       -266.9512018964519484
  @DF-RHF Final Energy:  -266.95120138492996
    Total Energy =                       -266.9512013849301866
  @DF-RHF Final Energy:  -266.95120177805870
    Total Energy =                       -266.9512017780583619
  @DF-RHF Final Energy:  -266.95119884910616
    Total Energy =                       -266.9511988491064471
  @DF-RHF Final Energy:  -266.95119997119480
    Total Energy =                       -266.9511999711949102
  @DF-RHF Final Energy:  -266.95120157734539
    Total Energy =                       -266.9512015773455005
  @DF-RHF Final Energy:  -266.95120173592920
    Total Energy =                       -266.9512017359292031
  @DF-RHF Final Energy:  -266.95120149988895
    Total Energy =                       -266.9512014998889526
  @DF-RHF Final Energy:  -266.95117452405651
    Total Energy =                       -266.9511745240566825
  @DF-RHF Final Energy:  -266.86467547975940
    Total Energy =                       -266.8646754797595122
  @DF-RHF Final Energy:  -266.75970586871881
    Total Energy =                       -266.7597058687186973
  @DF-RHF Final Energy:  -266.90253665109776
    Total Energy =                       -266.9025366510975914
  @DF-RHF Final Energy:  -266.94322926257450
    Total Energy =                       -266.9432292625747323
  @DF-RHF Final Energy:  -266.94942004938537
    Total Energy =                       -266.9494200493854805
  @DF-RHF Final Energy:  -266.95119238581674
    Total Energy =                       -266.9511923858164550
  @DF-RHF Final Energy:  -266.95118986615063
    Total Energy =                       -266.9511898661506848
  @DF-RHF Final Energy:  -266.87847933306438
    Total Energy =                       -266.8784793330645471
  @DF-RHF Final Energy:  -266.86149884094192
    Total Energy =                       -266.8614988409418629
  @DF-RHF Final Energy:  -266.83358480850399
    Total Energy =                       -266.8335848085037583
  @DF-RHF Final Energy:  -266.85128748429037
    Total Energy =                       -266.8512874842904239
  @DF-RHF Final Energy:  -266.88281900483378
    Total Energy =                       -266.8828190048337774
  @DF-RHF Final Energy:  -266.87011877158170
    Total Energy =                       -266.8701187715814740
  @DF-RHF Final Energy:  -266.90300578507458
    Total Energy =                       -266.9030057850745834
  @DF-RHF Final Energy:  -266.92979447944663
    Total Energy =                       -266.9297944794464570
  @DF-RHF Final Energy:  -266.93910089742883
    Total Energy =                       -266.9391008974289434
  @DF-RHF Final Energy:  -266.91676037746186
    Total Energy =                       -266.9167603774620261
  @DF-RHF Final Energy:  -266.94643149897610
    Total Energy =                       -266.9464314989762102
  @DF-RHF Final Energy:  -266.94840976133185
    Total Energy =                       -266.9484097613320159
  @DF-RHF Final Energy:  -266.94897980460212
    Total Energy =                       -266.9489798046018905
  @DF-RHF Final Energy:  -266.94973264507831
    Total Energy =                       -266.9497326450783703
  Basis Set: CC-PVTZ
  Basis Set:
  @DF-RHF Final Energy:  -266.95047668350855
    Total Energy =                       -266.9504766835085547
  Basis Set: CC-PVTZ
  Basis Set:
  Basis Set: CC-PVTZ
  Basis Set:
  @DF-RHF Final Energy:  -266.95088108042785
    Total Energy =                       -266.9508810804280188
  Basis Set: CC-PVTZ
  Basis Set:
  Basis Set: CC-PVTZ
  Basis Set:
  @DF-RHF Final Energy:  -266.95107109543756
    Total Energy =                       -266.9510710954376691
  Basis Set: CC-PVTZ
  Basis Set:
  Charge       = 0
  Multiplicity = 1
  Basis Set: CC-PVTZ
  Basis Set:

    Orbital Energies (a.u.)
    -----------------------

    Doubly Occupied:

       1A    -20.603364     2A    -20.542508     3A    -11.374349
       4A    -11.242296     5A    -11.218505     6A     -1.476869
       7A     -1.371298     8A     -1.066086     9A     -0.918149
      10A     -0.804701    11A     -0.706314    12A     -0.691785
      13A     -0.664768    14A     -0.604333    15A     -0.589349
      16A     -0.533145    17A     -0.526742    18A     -0.506360
      19A     -0.486312    20A     -0.447997

  @DF-RHF Final Energy:  -266.95110757255964

   => Energetics <=

    Nuclear Repulsion Energy =            180.0757440337313255
    One-Electron Energy =                -721.3032421864852495
    Two-Electron Energy =                 274.2763905801939472
    DFT Exchange-Correlation Energy =       0.0000000000000000
    Empirical Dispersion Energy =           0.0000000000000000
    PCM Polarization Energy =               0.0000000000000000
    EFP Energy =                            0.0000000000000000
    Total Energy =                       -266.9511075725599767
    Molecular point group: c1
  Basis Set: CC-PVTZ
  Basis Set:

  -Total Gradient:
     Atom            X                  Y                   Z
    ------   -----------------  -----------------  -----------------
       1       -0.002280398934    -0.003595939803     0.005672184806
       2        0.002964903178     0.003863272456    -0.011117052152
       3        0.002688859662     0.001129000435     0.013578257994
       4       -0.003956814157    -0.002409799547     0.000085665487
       5       -0.001337261258    -0.001429909147    -0.007423826602
       6        0.000919123527    -0.000130784172     0.000912970160
       7        0.001181099237     0.000896436337    -0.000679451774
       8       -0.000189593211     0.002083000040    -0.001035092868
       9        0.000526680540    -0.000104768709    -0.000476654655
      10       -0.000032375804    -0.000147977050     0.000363555097
      11       -0.000484222777    -0.000152530837     0.000119444507

    Molecular point group: c1

    Geometry (in Angstrom), charge = 0, multiplicity = 1:

    H            2.338459320300    -0.133593390820     0.193387612333
    O            1.592558364277    -0.659823659156    -0.044096159837
    C            0.490797279075     0.086416134055     0.023621981676
    C           -0.755332780510    -0.760285574570     0.040213865584
    O            0.521670023799     1.266921142105    -0.004259605581
    C           -2.038022421579     0.048803912354    -0.018592564826
    H           -0.671251712326    -1.444860304623    -0.797634938719
    H           -0.716677536986    -1.368214600322     0.934324012254
    H           -2.076873728814     0.644913845197    -0.920409109552
    H           -2.895661763803    -0.612397268966    -0.006736400831
    H           -2.116170631253     0.721622265246     0.825805899583

  Mulliken Charges: (a.u.)
   Center  Symbol    Alpha    Beta     Spin     Total
       1     H     0.38179  0.38179  0.00000  0.23642
       2     O     4.16253  4.16253  0.00000 -0.32506
       3     C     2.80398  2.80398  0.00000  0.39203
       4     C     3.10076  3.10076  0.00000 -0.20151
       5     O     4.18683  4.18683  0.00000 -0.37366
       6     C     3.13879  3.13879  0.00000 -0.27759
       7     H     0.43894  0.43894  0.00000  0.12211
       8     H     0.44078  0.44078  0.00000  0.11844
       9     H     0.44802  0.44802  0.00000  0.10396
      10     H     0.44976  0.44976  0.00000  0.10047
      11     H     0.44781  0.44781  0.00000  0.10437

   Total alpha = 20.00000, Total beta = 20.00000, Total charge =  0.00000
