  ==> Input File <==

--------------------------------------------------------------------------
set {
	reference rhf
	basis 6-31G*
}

set_num_threads( 4 )
memory 2 gb

molecule MOL {
0 1

H	 -3.107568	 0.273416	 0.099035
O	 -2.347518	 -0.290803	 0.079804
C	 -1.184022	 0.487508	 -0.006784
C	 0.062599	 -0.378592	 0.031606
H	 -1.176523	 1.099369	 -0.904519
H	 -1.187323	 1.153111	 0.844927
O	 1.171513	 0.459272	 -0.058250
H	 0.050699	 -1.089204	 -0.797170
H	 0.078739	 -0.954914	 0.954740
C	 2.397842	 -0.198080	 -0.002151
H	 2.508049	 -0.905315	 -0.822092
H	 3.173794	 0.550865	 -0.078850
H	 2.517602	 -0.735921	 0.936026

	symmetry c1
}
set optking {
	frozen_dihedral = ("
		1 2 3 5
	")
}

ee = optimize('scf')
oeprop('DIPOLE', 'QUADRUPOLE', 'MULLIKEN_CHARGES')
f=open( 'psi4out.xyz', 'w' )
f.write( "13  " )
f.write( str(ee) + "\n" )
f.write( MOL.save_string_xyz() )
f.close()
--------------------------------------------------------------------------

    Molecular point group: c1
  Charge       = 0
  Multiplicity = 1
  Basis Set: 6-31G*
  Basis Set:
  @DF-RHF Final Energy:  -267.94942516724916
    Total Energy =                       -267.9494251672493306
    Molecular point group: c1
  Basis Set: 6-31G*
  Basis Set:
  Basis Set: 6-31G*
  Basis Set:
  @DF-RHF Final Energy:  -267.95076876637950
    Total Energy =                       -267.9507687663794968
  Basis Set: 6-31G*
  Basis Set:
  Basis Set: 6-31G*
  Basis Set:
  @DF-RHF Final Energy:  -267.95109794140467
    Total Energy =                       -267.9510979414045551
  Basis Set: 6-31G*
  Basis Set:
  Basis Set: 6-31G*
  Basis Set:
  @DF-RHF Final Energy:  -267.95110634212699
    Total Energy =                       -267.9511063421269341
  Basis Set: 6-31G*
  Basis Set:
  Charge       = 0
  Multiplicity = 1
  Basis Set: 6-31G*
  Basis Set:

    Orbital Energies (a.u.)
    -----------------------

    Doubly Occupied:

       1A    -20.558824     2A    -20.558722     3A    -11.268704
       4A    -11.267099     5A    -11.266435     6A     -1.385219
       7A     -1.363931     8A     -1.018106     9A     -0.910940
      10A     -0.830866    11A     -0.708357    12A     -0.684140
      13A     -0.641694    14A     -0.631401    15A     -0.620969
      16A     -0.551654    17A     -0.537789    18A     -0.495801
      19A     -0.469371    20A     -0.441483    21A     -0.418206

  @DF-RHF Final Energy:  -267.95110745503291

   => Energetics <=

    Nuclear Repulsion Energy =            190.4891836054564749
    One-Electron Energy =                -743.6211571719890117
    Two-Electron Energy =                 285.1808661114996539
    DFT Exchange-Correlation Energy =       0.0000000000000000
    Empirical Dispersion Energy =           0.0000000000000000
    PCM Polarization Energy =               0.0000000000000000
    EFP Energy =                            0.0000000000000000
    Total Energy =                       -267.9511074550329113
    Molecular point group: c1
  Basis Set: 6-31G*
  Basis Set:

  -Total Gradient:
     Atom            X                  Y                   Z
    ------   -----------------  -----------------  -----------------
       1       -0.000001124567    -0.000009716652    -0.000031312746
       2        0.000008331600     0.000046086800     0.000030267341
       3       -0.000006509816    -0.000070888153     0.000014745595
       4       -0.000013547661    -0.000006576418    -0.000002477048
       5       -0.000001659688     0.000006065728     0.000017387028
       6        0.000007859515    -0.000010517486    -0.000009451923
       7        0.000028955932     0.000017063050    -0.000012532420
       8       -0.000004433836    -0.000003048126    -0.000007579719
       9       -0.000023906630     0.000018565909    -0.000002479548
      10        0.000008762631     0.000017343562     0.000006873300
      11       -0.000009163608     0.000002415863     0.000001648237
      12        0.000009794674    -0.000003688033    -0.000001959843
      13       -0.000003358540    -0.000003106045    -0.000003128252

  **** Optimization is complete! (in 5 steps) ****
    Final optimized geometry and variables:
    Molecular point group: c1

    Geometry (in Angstrom), charge = 0, multiplicity = 1:

    H           -3.088715100795     0.174162953231     0.036834660007
    O           -2.295248264898    -0.340503553020     0.064570722664
    C           -1.178745159769     0.505346071030    -0.013851193652
    C            0.052297688333    -0.374338728804     0.024846119817
    H           -1.179832721790     1.081571476994    -0.935074447402
    H           -1.148464845351     1.202642899225     0.818943441021
    O            1.170702119581     0.454964822391    -0.052139655460
    H            0.027340025661    -1.074545556517    -0.807799582087
    H            0.058351034635    -0.953606180948     0.946031342726
    C            2.387631237091    -0.221048909458    -0.027142166839
    H            2.478423509477    -0.907257758333    -0.866839178897
    H            3.173841626154     0.518487033720    -0.092055841299
    H            2.509720824912    -0.785928759357     0.894931976825

  Mulliken Charges: (a.u.)
   Center  Symbol    Alpha    Beta     Spin     Total
       1     H     0.27812  0.27812  0.00000  0.44377
       2     O     4.37413  4.37413  0.00000 -0.74825
       3     C     3.00309  3.00309  0.00000 -0.00619
       4     C     2.99195  2.99195  0.00000  0.01611
       5     H     0.42368  0.42368  0.00000  0.15263
       6     H     0.42363  0.42363  0.00000  0.15274
       7     O     4.30959  4.30959  0.00000 -0.61919
       8     H     0.42382  0.42382  0.00000  0.15236
       9     H     0.42379  0.42379  0.00000  0.15242
      10     C     3.07961  3.07961  0.00000 -0.15921
      11     H     0.42844  0.42844  0.00000  0.14311
      12     H     0.41171  0.41171  0.00000  0.17658
      13     H     0.42843  0.42843  0.00000  0.14313

   Total alpha = 21.00000, Total beta = 21.00000, Total charge = -0.00000
