  ==> Input File <==

--------------------------------------------------------------------------
set {
	reference rhf
	basis 6-31G*
}

set_num_threads( 1 )
memory 2 gb

molecule MOL {
0 1

O	 -2.821601	 1.309235	 -0.001213
C	 -2.668563	 0.129746	 -0.000350
C	 -3.801572	 -0.864014	 -0.000442
O	 -1.481751	 -0.454642	 0.000584
H	 -4.417280	 -0.689587	 -0.874708
H	 -3.443784	 -1.883046	 -0.000565
H	 -4.417179	 -0.689832	 0.873954
C	 -0.334255	 0.388708	 0.000906
C	 0.891947	 -0.504646	 0.000751
H	 -0.365390	 1.025305	 -0.873475
H	 -0.365484	 1.024911	 0.875569
C	 2.191998	 0.301789	 0.000897
H	 0.855148	 -1.151283	 -0.871571
H	 0.855132	 -1.151660	 0.872805
C	 3.441114	 -0.581407	 0.000108
H	 2.215074	 0.954890	 -0.869742
H	 2.215465	 0.953923	 0.872248
C	 4.403561	 -0.252140	 1.140348
H	 3.957168	 -0.472924	 -0.951204
H	 3.143076	 -1.625217	 0.068694
H	 4.746281	 0.776871	 1.079575
H	 5.278432	 -0.894084	 1.113088
H	 3.926200	 -0.384403	 2.107117

	symmetry c1
}
set optking {
	frozen_dihedral = ("
		13 9 8 10,
		2 4 8 10,
		16 12 9 13,
		1 2 4 8
	")
}

ee = energy('scf')
oeprop('DIPOLE', 'QUADRUPOLE', 'MULLIKEN_CHARGES')
f=open( 'psi4out.xyz', 'w' )
f.write( "23  " )
f.write( str(ee) + "\n" )
f.write( MOL.save_string_xyz() )
f.close()
--------------------------------------------------------------------------

    Molecular point group: c1

    Geometry (in Angstrom), charge = 0, multiplicity = 1:

       Center              X                  Y                   Z               Mass
    ------------   -----------------  -----------------  -----------------  -----------------
           O         -2.782806445380     1.364219697827    -0.132997761904    15.994914619560
           C         -2.629768445380     0.184730697827    -0.132134761904    12.000000000000
           C         -3.762777445380    -0.809029302173    -0.132226761904    12.000000000000
           O         -1.442956445380    -0.399657302173    -0.131200761904    15.994914619560
           H         -4.378485445380    -0.634602302173    -1.006492761904     1.007825032070
           H         -3.404989445380    -1.828061302173    -0.132349761904     1.007825032070
           H         -4.378384445380    -0.634847302173     0.742169238096     1.007825032070
           C         -0.295460445380     0.443692697827    -0.130878761904    12.000000000000
           C          0.930741554620    -0.449661302173    -0.131033761904    12.000000000000
           H         -0.326595445380     1.080289697827    -1.005259761904     1.007825032070
           H         -0.326689445380     1.079895697827     0.743784238096     1.007825032070
           C          2.230792554620     0.356773697827    -0.130887761904    12.000000000000
           H          0.893942554620    -1.096298302173    -1.003355761904     1.007825032070
           H          0.893926554620    -1.096675302173     0.741020238096     1.007825032070
           C          3.479908554620    -0.526422302173    -0.131676761904    12.000000000000
           H          2.253868554620     1.009874697827    -1.001526761904     1.007825032070
           H          2.254259554620     1.008907697827     0.740463238096     1.007825032070
           C          4.442355554620    -0.197155302173     1.008563238096    12.000000000000
           H          3.995962554620    -0.417939302173    -1.082988761904     1.007825032070
           H          3.181870554620    -1.570232302173    -0.063090761904     1.007825032070
           H          4.785075554620     0.831855697827     0.947790238096     1.007825032070
           H          5.317226554620    -0.839099302173     0.981303238096     1.007825032070
           H          3.964994554620    -0.329418302173     1.975332238096     1.007825032070

  Charge       = 0
  Multiplicity = 1
  Basis Set: 6-31G*
  Basis Set:

    Orbital Energies (a.u.)
    -----------------------

    Doubly Occupied:

       1A    -20.602881     2A    -20.540448     3A    -11.374006
       4A    -11.281013     5A    -11.232364     6A    -11.224649
       7A    -11.222349     8A    -11.220040     9A    -11.213229
      10A     -1.467864    11A     -1.360645    12A     -1.094395
      13A     -1.041951    14A     -1.002987    15A     -0.930619
      16A     -0.844093    17A     -0.801493    18A     -0.773938
      19A     -0.691402    20A     -0.685255    21A     -0.668826
      22A     -0.639257    23A     -0.610873    24A     -0.593534
      25A     -0.581395    26A     -0.570864    27A     -0.551208
      28A     -0.534029    29A     -0.526942    30A     -0.503918
      31A     -0.498922    32A     -0.475718    33A     -0.464301
      34A     -0.463612    35A     -0.451256    36A     -0.435121

  @DF-RHF Final Energy:  -422.97374625401972

   => Energetics <=

    Nuclear Repulsion Energy =            450.9662865918635362
    One-Electron Energy =               -1469.5292860988899974
    Two-Electron Energy =                 595.5892532530057224
    DFT Exchange-Correlation Energy =       0.0000000000000000
    Empirical Dispersion Energy =           0.0000000000000000
    PCM Polarization Energy =               0.0000000000000000
    EFP Energy =                            0.0000000000000000
    Total Energy =                       -422.9737462540207389

  Mulliken Charges: (a.u.)
   Center  Symbol    Alpha    Beta     Spin     Total
       1     O     4.28392  4.28392  0.00000 -0.56783
       2     C     2.61534  2.61534  0.00000  0.76933
       3     C     3.28774  3.28774  0.00000 -0.57548
       4     O     4.31267  4.31267  0.00000 -0.62534
       5     H     0.39750  0.39750  0.00000  0.20499
       6     H     0.39990  0.39990  0.00000  0.20020
       7     H     0.39752  0.39752  0.00000  0.20497
       8     C     2.99625  2.99625  0.00000  0.00750
       9     C     3.16747  3.16747  0.00000 -0.33494
      10     H     0.41066  0.41066  0.00000  0.17867
      11     H     0.41065  0.41065  0.00000  0.17871
      12     C     3.16334  3.16334  0.00000 -0.32668
      13     H     0.41363  0.41363  0.00000  0.17275
      14     H     0.41405  0.41405  0.00000  0.17190
      15     C     3.15410  3.15410  0.00000 -0.30820
      16     H     0.41817  0.41817  0.00000  0.16365
      17     H     0.41794  0.41794  0.00000  0.16411
      18     C     3.24113  3.24113  0.00000 -0.48226
      19     H     0.41868  0.41868  0.00000  0.16264
      20     H     0.41859  0.41859  0.00000  0.16282
      21     H     0.42032  0.42032  0.00000  0.15936
      22     H     0.41919  0.41919  0.00000  0.16161
      23     H     0.42124  0.42124  0.00000  0.15752

   Total alpha = 36.00000, Total beta = 36.00000, Total charge = -0.00000
