  ==> Input File <==

--------------------------------------------------------------------------
set {
	reference rhf
	basis cc-pvtz
}

set_num_threads( 4 )
memory 2 gb

molecule MOL {
0 1

H	 2.540960	 -0.966826	 -0.179613
O	 1.854088	 -0.402514	 -0.482619
C	 1.135873	 0.113391	 0.608264
C	 0.027642	 1.012027	 0.090274
H	 1.791567	 0.694084	 1.252181
H	 0.724775	 -0.694202	 1.207640
C	 -1.138737	 0.285728	 -0.581921
H	 0.464661	 1.708096	 -0.618252
H	 -0.340737	 1.603071	 0.925246
C	 -1.933983	 -0.631436	 0.343653
H	 -0.763151	 -0.285569	 -1.422081
H	 -1.808359	 1.035291	 -0.992333
H	 -2.789188	 -1.049673	 -0.174718
H	 -1.335629	 -1.461368	 0.700418
H	 -2.305435	 -0.092167	 1.209725

	symmetry c1
}
set optking {
	frozen_dihedral = ("
		2 3 4 8
	")
}

ee = optimize('scf')
oeprop('DIPOLE', 'QUADRUPOLE', 'MULLIKEN_CHARGES')
f=open( 'psi4out.xyz', 'w' )
f.write( "15  " )
f.write( str(ee) + "\n" )
f.write( MOL.save_string_xyz() )
f.close()
--------------------------------------------------------------------------

    Molecular point group: c1
  Charge       = 0
  Multiplicity = 1
  Basis Set: CC-PVTZ
  Basis Set:
  @DF-RHF Final Energy:  -232.23695836206258
    Total Energy =                       -232.2369583620624667
    Molecular point group: c1
  Basis Set: CC-PVTZ
  Basis Set:
  Basis Set: CC-PVTZ
  Basis Set:
  @DF-RHF Final Energy:  -232.23700107861592
    Total Energy =                       -232.2370010786162311
  Basis Set: CC-PVTZ
  Basis Set:
  Basis Set: CC-PVTZ
  Basis Set:
  @DF-RHF Final Energy:  -232.23715107437690
    Total Energy =                       -232.2371510743767544
  Basis Set: CC-PVTZ
  Basis Set:
  Basis Set: CC-PVTZ
  Basis Set:
  @DF-RHF Final Energy:  -232.23716760120402
    Total Energy =                       -232.2371676012039643
  Basis Set: CC-PVTZ
  Basis Set:
  Basis Set: CC-PVTZ
  Basis Set:
  @DF-RHF Final Energy:  -232.23717058022785
    Total Energy =                       -232.2371705802278825
  Basis Set: CC-PVTZ
  Basis Set:
  Charge       = 0
  Multiplicity = 1
  Basis Set: CC-PVTZ
  Basis Set:

    Orbital Energies (a.u.)
    -----------------------

    Doubly Occupied:

       1A    -20.546238     2A    -11.265284     3A    -11.210675
       4A    -11.208464     5A    -11.204539     6A     -1.363872
       7A     -1.065996     8A     -0.971977     9A     -0.869219
      10A     -0.777255    11A     -0.707660    12A     -0.649208
      13A     -0.608050    14A     -0.577730    15A     -0.564825
      16A     -0.535357    17A     -0.510672    18A     -0.475763
      19A     -0.470789    20A     -0.453370    21A     -0.432533

  @DF-RHF Final Energy:  -232.23717080143533

   => Energetics <=

    Nuclear Repulsion Energy =            190.9417442619466954
    One-Electron Energy =                -693.4188782679193537
    Two-Electron Energy =                 270.2399632045373323
    DFT Exchange-Correlation Energy =       0.0000000000000000
    Empirical Dispersion Energy =           0.0000000000000000
    PCM Polarization Energy =               0.0000000000000000
    EFP Energy =                            0.0000000000000000
    Total Energy =                       -232.2371708014352976
    Molecular point group: c1
  Basis Set: CC-PVTZ
  Basis Set:

  -Total Gradient:
     Atom            X                  Y                   Z
    ------   -----------------  -----------------  -----------------
       1        0.000008767641     0.000001390631    -0.000004071936
       2        0.001030014518     0.001355341831     0.000085408499
       3       -0.001419042755    -0.002058043264    -0.000476296196
       4        0.000774774419     0.002099145528     0.002059232462
       5       -0.000000793396     0.000000767295     0.000005420014
       6       -0.000007300869    -0.000003442771     0.000001636906
       7       -0.000015709528    -0.000006377300    -0.000002756797
       8       -0.000389275103    -0.001395623932    -0.001667284060
       9       -0.000006120060    -0.000002938673    -0.000004878496
      10        0.000016553309    -0.000001508543    -0.000001340767
      11        0.000001214593    -0.000000035608     0.000007846809
      12       -0.000000977902     0.000009690266    -0.000003698631
      13        0.000002722301     0.000004671556    -0.000004142814
      14        0.000001064175    -0.000005324333     0.000007281974
      15        0.000004108664     0.000002287315    -0.000002356965

  **** Optimization is complete! (in 6 steps) ****
    Final optimized geometry and variables:
    Molecular point group: c1

    Geometry (in Angstrom), charge = 0, multiplicity = 1:

    H            2.497544287853    -1.002030744907    -0.253160851729
    O            1.822041869788    -0.405475898678    -0.517351195282
    C            1.118864173753     0.058638217526     0.606901055715
    C           -0.018367059005     0.946594696765     0.133528715948
    H            1.780723403690     0.636416442561     1.247262941282
    H            0.744042242189    -0.774176548381     1.194676052863
    C           -1.161183572673     0.207889851648    -0.567676717524
    H            0.403352259302     1.665463739453    -0.560588677880
    H           -0.405515792279     1.501339388676     0.983641202850
    C           -2.011566518375    -0.665014059384     0.351937225221
    H           -0.751436890124    -0.395593038699    -1.369617936651
    H           -1.804250706906     0.945716057763    -1.037182833681
    H           -2.828476298143    -1.118761992176    -0.197450703348
    H           -1.437054940661    -1.469053855481     0.796844155370
    H           -2.442093083580    -0.080359159181     1.158918284224

  Mulliken Charges: (a.u.)
   Center  Symbol    Alpha    Beta     Spin     Total
       1     H     0.39549  0.39549  0.00000  0.20901
       2     O     4.19932  4.19932  0.00000 -0.39864
       3     C     2.97190  2.97190  0.00000  0.05619
       4     C     3.09423  3.09423  0.00000 -0.18845
       5     H     0.46555  0.46555  0.00000  0.06891
       6     H     0.47348  0.47348  0.00000  0.05305
       7     C     3.08968  3.08968  0.00000 -0.17936
       8     H     0.44719  0.44719  0.00000  0.10563
       9     H     0.45378  0.45378  0.00000  0.09243
      10     C     3.15258  3.15258  0.00000 -0.30516
      11     H     0.44694  0.44694  0.00000  0.10612
      12     H     0.45055  0.45055  0.00000  0.09890
      13     H     0.44702  0.44702  0.00000  0.10596
      14     H     0.45564  0.45564  0.00000  0.08871
      15     H     0.45665  0.45665  0.00000  0.08670

   Total alpha = 21.00000, Total beta = 21.00000, Total charge = -0.00000
