                              Psi4 1.0.54 Driver

  ==> Input File <==

--------------------------------------------------------------------------
set {
	reference rhf
	basis cc-pvtz
}

set_num_threads( 4 )
memory 2 gb

molecule MOL {
0 1

H	 1.166964	 -1.062386	 0.758429
O	 1.324748	 -0.612467	 -0.052206
C	 0.706474	 0.636793	 -0.025501
C	 1.384168	 1.688362	 -0.857704
H	 0.698279	 0.952841	 1.011007
H	 -0.334448	 0.561019	 -0.334434
C	 2.526410	 1.548294	 -1.493292
H	 0.856865	 2.626575	 -0.912092
H	 3.089263	 0.635478	 -1.449287
H	 2.942105	 2.352508	 -2.069917

	symmetry c1
}
set optking {
	frozen_dihedral = ("
		5 3 2 1
	")
}

ee,wfn = optimize('scf', return_wfn=True)
oeprop( wfn, 'DIPOLE', 'QUADRUPOLE', 'MULLIKEN_CHARGES')
f=open( 'psi4out.xyz', 'w' )
f.write( "10  " )
f.write( str(ee) + "\n" )
f.write( MOL.save_string_xyz() )
f.close()
--------------------------------------------------------------------------

    Molecular point group: c1
  Charge       = 0
  Multiplicity = 1
  Basis Set: CC-PVTZ
  Basis Set:
  @DF-RHF Final Energy:  -191.99579095186266
    Total Energy =                       -191.9957909518626025
    Molecular point group: c1
  Basis Set: CC-PVTZ
  Basis Set:
  Basis Set: CC-PVTZ
  Basis Set:
  @DF-RHF Final Energy:  -191.88664191717652
    Total Energy =                       -191.8866419171766324
  Basis Set: CC-PVTZ
  Basis Set:
  Basis Set: CC-PVTZ
  Basis Set:
  @DF-RHF Final Energy:  -191.97998227999699
    Total Energy =                       -191.9799822799970457
  Basis Set: CC-PVTZ
  Basis Set:
  Basis Set: CC-PVTZ
  Basis Set:
  @DF-RHF Final Energy:  -191.99692058566097
    Total Energy =                       -191.9969205856610301
  Basis Set: CC-PVTZ
  Basis Set:
  Basis Set: CC-PVTZ
  Basis Set:
  @DF-RHF Final Energy:  -191.99718339428711
    Total Energy =                       -191.9971833942871342
  Basis Set: CC-PVTZ
  Basis Set:
  Basis Set: CC-PVTZ
  Basis Set:
  @DF-RHF Final Energy:  -191.99728416409332
    Total Energy =                       -191.9972841640934007
  Basis Set: CC-PVTZ
  Basis Set:
  Basis Set: CC-PVTZ
  Basis Set:
  @DF-RHF Final Energy:  -191.99728517034066
    Total Energy =                       -191.9972851703407173
  Basis Set: CC-PVTZ
  Basis Set:
  Charge       = 0
  Multiplicity = 1
  Basis Set: CC-PVTZ
  Basis Set:

    Orbital Energies (a.u.)
    -----------------------

    Doubly Occupied:

       1A    -20.553541     2A    -11.278236     3A    -11.223683
       4A    -11.207906     5A     -1.373640     6A     -1.058484
       7A     -0.926361     8A     -0.757219     9A     -0.713205
      10A     -0.644596    11A     -0.616791    12A     -0.590410
      13A     -0.517022    14A     -0.493218    15A     -0.456046
      16A     -0.360535

  @DF-RHF Final Energy:  -191.99728533699766

   => Energetics <=

    Nuclear Repulsion Energy =            119.5858383261246871
    One-Electron Energy =                -497.6244599931683865
    Two-Electron Energy =                 186.0413363300459366
    DFT Exchange-Correlation Energy =       0.0000000000000000
    Empirical Dispersion Energy =           0.0000000000000000
    PCM Polarization Energy =               0.0000000000000000
    EFP Energy =                            0.0000000000000000
    Total Energy =                       -191.9972853369977486
    Molecular point group: c1
  Basis Set: CC-PVTZ
  Basis Set:

  -Total Gradient:
     Atom            X                  Y                   Z
    ------   -----------------  -----------------  -----------------
       1        0.000507597896     0.000331054487     0.000764384375
       2       -0.000768278337    -0.000576447430    -0.001035189170
       3        0.000871338480     0.000726525399     0.000607306145
       4       -0.000043572498    -0.000004389975    -0.000022085928
       5       -0.000610919032    -0.000498556936    -0.000313105094
       6        0.000007029615     0.000012306084    -0.000003147386
       7        0.000028315338     0.000002626441    -0.000037027409
       8        0.000007718197     0.000002748445     0.000008778645
       9       -0.000002090361     0.000005207828     0.000014315536
      10        0.000002860701    -0.000001074342     0.000015770287

  **** Optimization is complete! (in 8 steps) ****
    Final optimized geometry and variables:
    Molecular point group: c1

    Geometry (in Angstrom), charge = 0, multiplicity = 1:

    H           -0.192419341727    -2.159903709093     0.503104376622
    O            0.070148550112    -1.410280181618     0.003837902548
    C           -0.860568405056    -0.378920313485     0.157558615057
    C           -0.219010582107     0.965198845127    -0.003994730149
    H           -1.336844969211    -0.427657023164     1.134623756251
    H           -1.655488712717    -0.476705387528    -0.579746562188
    C            1.060646495745     1.184911571763    -0.203156028846
    H           -0.904419494831     1.794566573019     0.049361192597
    H            1.764059616147     0.378300519292    -0.265216427645
    H            1.437230438380     2.184311797350    -0.312551472244

  Mulliken Charges: (a.u.)
   Center  Symbol    Alpha    Beta     Spin     Total
       1     H     0.39232  0.39232  0.00000  0.21536
       2     O     4.19433  4.19433  0.00000 -0.38866
       3     C     2.94008  2.94008  0.00000  0.11984
       4     C     3.08079  3.08079  0.00000 -0.16158
       5     H     0.47490  0.47490  0.00000  0.05020
       6     H     0.47218  0.47218  0.00000  0.05564
       7     C     3.17105  3.17105  0.00000 -0.34211
       8     H     0.42404  0.42404  0.00000  0.15191
       9     H     0.42011  0.42011  0.00000  0.15978
      10     H     0.43019  0.43019  0.00000  0.13962

   Total alpha = 16.00000, Total beta = 16.00000, Total charge =  0.00000

*** Psi4 exiting successfully. Buy a developer a beer!
