  ==> Input File <==

--------------------------------------------------------------------------
set {
	reference rhf
	basis cc-pvtz
}

set_num_threads( 4 )
memory 2 gb

molecule MOL {
0 1

H	 1.121206	 -0.348712	 1.157175
C	 1.071605	 -0.169040	 0.074541
C	 0.062554	 0.862911	 -0.350953
O	 1.785111	 -0.762994	 -0.657088
C	 -1.339253	 0.577611	 0.196911
H	 0.062679	 0.919937	 -1.431805
H	 0.410260	 1.818169	 0.035903
C	 -1.813142	 -0.849710	 -0.061612
H	 -2.032833	 1.276441	 -0.256032
H	 -1.357249	 0.782269	 1.263793
H	 -1.839268	 -1.063526	 -1.124230
H	 -2.810118	 -1.001930	 0.334000
H	 -1.159274	 -1.579980	 0.402282

	symmetry c1
}
set optking {
	frozen_dihedral = ("
		6 3 5 9
	")
}

ee = optimize('scf')
oeprop('DIPOLE', 'QUADRUPOLE', 'MULLIKEN_CHARGES')
f=open( 'psi4out.xyz', 'w' )
f.write( "13  " )
f.write( str(ee) + "\n" )
f.write( MOL.save_string_xyz() )
f.close()
--------------------------------------------------------------------------

    Molecular point group: c1
  Charge       = 0
  Multiplicity = 1
  Basis Set: CC-PVTZ
  Basis Set:
  @DF-RHF Final Energy:  -231.06950692818018
    Total Energy =                       -231.0695069281801750
    Molecular point group: c1
  Basis Set: CC-PVTZ
  Basis Set:
  Basis Set: CC-PVTZ
  Basis Set:
  @DF-RHF Final Energy:  -231.06964875254462
    Total Energy =                       -231.0696487525444240
  Basis Set: CC-PVTZ
  Basis Set:
  Basis Set: CC-PVTZ
  Basis Set:
  @DF-RHF Final Energy:  -231.06957776579276
    Total Energy =                       -231.0695777657928716
  Basis Set: CC-PVTZ
  Basis Set:
  Basis Set: CC-PVTZ
  Basis Set:
  @DF-RHF Final Energy:  -231.06978223432503
    Total Energy =                       -231.0697822343250039
  Basis Set: CC-PVTZ
  Basis Set:
  Basis Set: CC-PVTZ
  Basis Set:
  @DF-RHF Final Energy:  -231.06978983261300
    Total Energy =                       -231.0697898326128836
  Basis Set: CC-PVTZ
  Basis Set:
  Charge       = 0
  Multiplicity = 1
  Basis Set: CC-PVTZ
  Basis Set:

    Orbital Energies (a.u.)
    -----------------------

    Doubly Occupied:

       1A    -20.552121     2A    -11.322008     3A    -11.237055
       4A    -11.234775     5A    -11.219951     6A     -1.407120
       7A     -1.087682     8A     -0.973928     9A     -0.851152
      10A     -0.787073    11A     -0.668891    12A     -0.650146
      13A     -0.630511    14A     -0.599647    15A     -0.559431
      16A     -0.534224    17A     -0.510452    18A     -0.492171
      19A     -0.483620    20A     -0.412804

  @DF-RHF Final Energy:  -231.06979040383342

   => Energetics <=

    Nuclear Repulsion Energy =            174.3809433886500244
    One-Electron Energy =                -658.4719479636066808
    Two-Electron Energy =                 253.0212141711232903
    DFT Exchange-Correlation Energy =       0.0000000000000000
    Empirical Dispersion Energy =           0.0000000000000000
    PCM Polarization Energy =               0.0000000000000000
    EFP Energy =                            0.0000000000000000
    Total Energy =                       -231.0697904038333377
    Molecular point group: c1
  Basis Set: CC-PVTZ
  Basis Set:

  -Total Gradient:
     Atom            X                  Y                   Z
    ------   -----------------  -----------------  -----------------
       1       -0.000003824258     0.000006254261    -0.000005762474
       2       -0.000026739421     0.000029900294    -0.000033693103
       3        0.000711893370    -0.004756173306    -0.000774190788
       4       -0.000015866471    -0.000024216511     0.000009112371
       5        0.000534596496     0.003526610626     0.003138413185
       6       -0.000606477366     0.003401009616     0.000174623045
       7       -0.000022021664     0.000008431057     0.000029340521
       8        0.000003810244     0.000005337213    -0.000005449290
       9       -0.000580381943    -0.002203503672    -0.002525270525
      10        0.000002091361     0.000002723196    -0.000007950989
      11        0.000000327349    -0.000006873447    -0.000005068046
      12       -0.000008140122     0.000004270767     0.000009034442
      13        0.000010732427     0.000006229905    -0.000003138348

  **** Optimization is complete! (in 6 steps) ****
    Final optimized geometry and variables:
    Molecular point group: c1

    Geometry (in Angstrom), charge = 0, multiplicity = 1:

    H            1.197894835941    -0.224013647121     1.326302125095
    C            1.136097915034    -0.067482144958     0.240868630496
    C            0.098630570035     0.927419540112    -0.197861959422
    O            1.864381250414    -0.652487833610    -0.483488304963
    C           -1.296682220013     0.649836618781     0.374837839069
    H            0.080287860360     0.979832083620    -1.278595526120
    H            0.434701922628     1.899278764591     0.159391770434
    C           -1.803023000978    -0.763404766357     0.090246126058
    H           -1.986429523955     1.354047409632    -0.075358956391
    H           -1.301918846753     0.834512988978     1.444015752016
    H           -1.813795834427    -0.964931846540    -0.975166057363
    H           -2.811716949036    -0.891241651678     0.464149973070
    H           -1.182148363264    -1.518919449026     0.558823016795

  Mulliken Charges: (a.u.)
   Center  Symbol    Alpha    Beta     Spin     Total
       1     H     0.46330  0.46330  0.00000  0.07341
       2     C     2.90512  2.90512  0.00000  0.18976
       3     C     3.08964  3.08964  0.00000 -0.17929
       4     O     4.16534  4.16534  0.00000 -0.33067
       5     C     3.10303  3.10303  0.00000 -0.20606
       6     H     0.44129  0.44129  0.00000  0.11743
       7     H     0.44426  0.44426  0.00000  0.11148
       8     C     3.14548  3.14548  0.00000 -0.29095
       9     H     0.44427  0.44427  0.00000  0.11146
      10     H     0.44890  0.44890  0.00000  0.10220
      11     H     0.44904  0.44904  0.00000  0.10193
      12     H     0.44703  0.44703  0.00000  0.10594
      13     H     0.45331  0.45331  0.00000  0.09338

   Total alpha = 20.00000, Total beta = 20.00000, Total charge =  0.00000
