                              Psi4 1.0.54 Driver

  ==> Input File <==

--------------------------------------------------------------------------
set {
	reference rhf
	basis cc-pvtz
}

set_num_threads( 4 )
memory 2 gb

molecule MOL {
0 1

H	 2.190573	 -0.629143	 -0.208718
O	 1.355408	 -0.529451	 0.208662
C	 0.700177	 0.619554	 -0.266242
C	 -0.713111	 0.588314	 0.266177
H	 0.678680	 0.627133	 -1.351786
H	 1.199747	 1.521489	 0.077736
O	 -1.421673	 -0.521378	 -0.196983
H	 -1.244794	 1.469161	 -0.069059
H	 -0.685100	 0.604721	 1.352683
H	 -1.324065	 -0.569871	 -1.131940

	symmetry c1
}
set optking {
	frozen_dihedral = ("
		10 7 4 3
	")
}

ee,wfn = optimize('scf', return_wfn=True)
oeprop( wfn, 'DIPOLE', 'QUADRUPOLE', 'MULLIKEN_CHARGES')
f=open( 'psi4out.xyz', 'w' )
f.write( "10  " )
f.write( str(ee) + "\n" )
f.write( MOL.save_string_xyz() )
f.close()
--------------------------------------------------------------------------

    Molecular point group: c1
  Charge       = 0
  Multiplicity = 1
  Basis Set: CC-PVTZ
  Basis Set:
  @DF-RHF Final Energy:  -229.02134182014890
    Total Energy =                       -229.0213418201488480
    Molecular point group: c1
  Basis Set: CC-PVTZ
  Basis Set:
  Basis Set: CC-PVTZ
  Basis Set:
  @DF-RHF Final Energy:  -229.02310384298630
    Total Energy =                       -229.0231038429864157
  Basis Set: CC-PVTZ
  Basis Set:
  Basis Set: CC-PVTZ
  Basis Set:
  @DF-RHF Final Energy:  -229.02337217394387
    Total Energy =                       -229.0233721739438124
  Basis Set: CC-PVTZ
  Basis Set:
  Basis Set: CC-PVTZ
  Basis Set:
  @DF-RHF Final Energy:  -229.02338532346417
    Total Energy =                       -229.0233853234640833
  Basis Set: CC-PVTZ
  Basis Set:
  Basis Set: CC-PVTZ
  Basis Set:
  @DF-RHF Final Energy:  -229.02338712448787
    Total Energy =                       -229.0233871244878685
  Basis Set: CC-PVTZ
  Basis Set:
  Charge       = 0
  Multiplicity = 1
  Basis Set: CC-PVTZ
  Basis Set:

    Orbital Energies (a.u.)
    -----------------------

    Doubly Occupied:

       1A    -20.553090     2A    -20.545667     3A    -11.276139
       4A    -11.268479     5A     -1.380067     6A     -1.358170
       7A     -1.004541     8A     -0.848357     9A     -0.722880
      10A     -0.677452    11A     -0.660104    12A     -0.601306
      13A     -0.573895    14A     -0.548388    15A     -0.477301
      16A     -0.450547    17A     -0.441524

  @DF-RHF Final Energy:  -229.02338731094227

   => Energetics <=

    Nuclear Repulsion Energy =            133.5362742737808617
    One-Electron Energy =                -578.3435092648990121
    Two-Electron Energy =                 215.7838476801759384
    DFT Exchange-Correlation Energy =       0.0000000000000000
    Empirical Dispersion Energy =           0.0000000000000000
    PCM Polarization Energy =               0.0000000000000000
    EFP Energy =                            0.0000000000000000
    Total Energy =                       -229.0233873109422120
    Molecular point group: c1
  Basis Set: CC-PVTZ
  Basis Set:

  -Total Gradient:
     Atom            X                  Y                   Z
    ------   -----------------  -----------------  -----------------
       1       -0.000003986526    -0.000005829967     0.000001507472
       2       -0.000013005970     0.000025355933    -0.000019710259
       3       -0.000025317036     0.000102515300    -0.000176084573
       4        0.000148270239    -0.000288139780     0.000317980824
       5        0.000004409037     0.000008580946    -0.000016392885
       6       -0.000002298147     0.000015229772    -0.000011938719
       7       -0.000418899896     0.000404970559    -0.000166846602
       8       -0.000007200101    -0.000004015503     0.000003425902
       9       -0.000005840729     0.000005130458     0.000008046797
      10        0.000323869126    -0.000263797720     0.000060012044

  **** Optimization is complete! (in 6 steps) ****
    Final optimized geometry and variables:
    Molecular point group: c1

    Geometry (in Angstrom), charge = 0, multiplicity = 1:

    H            2.269380481387    -0.599644422878     0.041085002474
    O            1.372603312029    -0.570448284811     0.318740882131
    C            0.742312207373     0.563092371017    -0.200250869703
    C           -0.706922866647     0.582519179206     0.231235369838
    H            0.797783297995     0.573469117079    -1.289221291950
    H            1.216309610922     1.474384845175     0.158643849102
    O           -1.465212339408    -0.474705040163    -0.276122889554
    H           -1.134448347596     1.540463620239    -0.059445517744
    H           -0.758997996465     0.507444358841     1.308566483585
    H           -1.341629394277    -0.549376268609    -1.204934129736

  Mulliken Charges: (a.u.)
   Center  Symbol    Alpha    Beta     Spin     Total
       1     H     0.39575  0.39575  0.00000  0.20849
       2     O     4.19080  4.19080  0.00000 -0.38159
       3     C     2.96874  2.96874  0.00000  0.06251
       4     C     2.96117  2.96117  0.00000  0.07766
       5     H     0.48251  0.48251  0.00000  0.03499
       6     H     0.47416  0.47416  0.00000  0.05169
       7     O     4.19735  4.19735  0.00000 -0.39470
       8     H     0.47589  0.47589  0.00000  0.04822
       9     H     0.45741  0.45741  0.00000  0.08518
      10     H     0.39622  0.39622  0.00000  0.20756

   Total alpha = 17.00000, Total beta = 17.00000, Total charge =  0.00000

*** Psi4 exiting successfully. Buy a developer a beer!
