  ==> Input File <==

--------------------------------------------------------------------------
set {
	reference rhf
	basis 6-31G*
}

set_num_threads( 1 )
memory 2 gb

molecule MOL {
0 1

H	 -1.585109	 2.814345	 -2.485676
C	 -0.614923	 3.317134	 -2.583476
C	 0.031798	 3.713183	 -1.280591
O	 -0.149687	 3.513346	 -3.659025
C	 0.129677	 2.542706	 -0.292332
H	 1.006554	 4.134866	 -1.496796
H	 -0.582945	 4.499645	 -0.844445
C	 1.084436	 1.436658	 -0.748832
H	 0.458537	 2.929676	 0.667559
H	 -0.862572	 2.125895	 -0.126598
C	 1.180775	 0.282413	 0.250794
H	 2.072807	 1.862908	 -0.907830
H	 0.765316	 1.048922	 -1.714422
C	 2.148627	 -0.814315	 -0.201312
H	 1.489694	 0.676987	 1.215476
H	 0.192013	 -0.149836	 0.398762
C	 3.580890	 -0.659131	 0.322722
H	 2.166869	 -0.852443	 -1.289387
H	 1.762857	 -1.776509	 0.128956
C	 4.324889	 0.564933	 -0.213704
H	 4.142010	 -1.551473	 0.056605
H	 3.564836	 -0.624694	 1.410140
H	 4.342616	 0.565491	 -1.300421
H	 3.866655	 1.493402	 0.110242
H	 5.353900	 0.572371	 0.132816

	symmetry c1
}
set optking {
	frozen_dihedral = ("
		6 3 5 8,
		6 3 2 4,
		3 5 8 12,
		12 8 11 14,
		20 17 14 18
	")
}

ee = energy('scf')
oeprop('DIPOLE', 'QUADRUPOLE', 'MULLIKEN_CHARGES')
f=open( 'psi4out.xyz', 'w' )
f.write( "25  " )
f.write( str(ee) + "\n" )
f.write( MOL.save_string_xyz() )
f.close()
--------------------------------------------------------------------------

    Molecular point group: c1

    Geometry (in Angstrom), charge = 0, multiplicity = 1:

       Center              X                  Y                   Z               Mass
    ------------   -----------------  -----------------  -----------------  -----------------
           H         -2.899298745234     1.263400080732    -1.536731442719     1.007825032070
           C         -1.929112745234     1.766189080732    -1.634531442719    12.000000000000
           C         -1.282391745234     2.162238080732    -0.331646442719    12.000000000000
           O         -1.463876745234     1.962401080732    -2.710080442719    15.994914619560
           C         -1.184512745234     0.991761080732     0.656612557281    12.000000000000
           H         -0.307635745234     2.583921080732    -0.547851442719     1.007825032070
           H         -1.897134745234     2.948700080732     0.104499557281     1.007825032070
           C         -0.229753745234    -0.114286919268     0.200112557281    12.000000000000
           H         -0.855652745234     1.378731080732     1.616503557281     1.007825032070
           H         -2.176761745234     0.574950080732     0.822346557281     1.007825032070
           C         -0.133414745234    -1.268531919268     1.199738557281    12.000000000000
           H          0.758617254766     0.311963080732     0.041114557281     1.007825032070
           H         -0.548873745234    -0.502022919268    -0.765477442719     1.007825032070
           C          0.834437254766    -2.365259919268     0.747632557281    12.000000000000
           H          0.175504254766    -0.873957919268     2.164420557281     1.007825032070
           H         -1.122176745234    -1.700780919268     1.347706557281     1.007825032070
           C          2.266700254766    -2.210075919268     1.271666557281    12.000000000000
           H          0.852679254766    -2.403387919268    -0.340442442719     1.007825032070
           H          0.448667254766    -3.327453919268     1.077900557281     1.007825032070
           C          3.010699254766    -0.986011919268     0.735240557281    12.000000000000
           H          2.827820254766    -3.102417919268     1.005549557281     1.007825032070
           H          2.250646254766    -2.175638919268     2.359084557281     1.007825032070
           H          3.028426254766    -0.985453919268    -0.351476442719     1.007825032070
           H          2.552465254766    -0.057542919268     1.059186557281     1.007825032070
           H          4.039710254766    -0.978573919268     1.081760557281     1.007825032070

  Charge       = 0
  Multiplicity = 1
  Basis Set: 6-31G*
  Basis Set:

    Orbital Energies (a.u.)
    -----------------------

    Doubly Occupied:

       1A    -20.561722     2A    -11.325865     3A    -11.234624
       4A    -11.234024     5A    -11.222041     6A    -11.219243
       7A    -11.217955     8A    -11.216074     9A    -11.210704
      10A     -1.401722    11A     -1.104583    12A     -1.069240
      13A     -1.010737    14A     -0.945578    15A     -0.875412
      16A     -0.819711    17A     -0.787663    18A     -0.781113
      19A     -0.664584    20A     -0.661728    21A     -0.631938
      22A     -0.623774    23A     -0.607425    24A     -0.592987
      25A     -0.566197    26A     -0.557179    27A     -0.533868
      28A     -0.523348    29A     -0.516672    30A     -0.496921
      31A     -0.485921    32A     -0.484126    33A     -0.465656
      34A     -0.449430    35A     -0.440066    36A     -0.409244

  @DF-RHF Final Energy:  -387.11655241727448

   => Energetics <=

    Nuclear Repulsion Energy =            449.8341822124917257
    One-Electron Energy =               -1416.0033893989248099
    Two-Electron Energy =                 579.0526547691588348
    DFT Exchange-Correlation Energy =       0.0000000000000000
    Empirical Dispersion Energy =           0.0000000000000000
    PCM Polarization Energy =               0.0000000000000000
    EFP Energy =                            0.0000000000000000
    Total Energy =                       -387.1165524172743062

  Mulliken Charges: (a.u.)
   Center  Symbol    Alpha    Beta     Spin     Total
       1     H     0.43262  0.43262  0.00000  0.13476
       2     C     2.83075  2.83075  0.00000  0.33850
       3     C     3.20801  3.20801  0.00000 -0.41603
       4     O     4.23794  4.23794  0.00000 -0.47587
       5     C     3.16661  3.16661  0.00000 -0.33321
       6     H     0.39989  0.39989  0.00000  0.20022
       7     H     0.40687  0.40687  0.00000  0.18626
       8     C     3.15883  3.15883  0.00000 -0.31766
       9     H     0.41341  0.41341  0.00000  0.17318
      10     H     0.41982  0.41982  0.00000  0.16036
      11     C     3.15604  3.15604  0.00000 -0.31208
      12     H     0.41391  0.41391  0.00000  0.17218
      13     H     0.41834  0.41834  0.00000  0.16333
      14     C     3.15695  3.15695  0.00000 -0.31390
      15     H     0.42166  0.42166  0.00000  0.15668
      16     H     0.42048  0.42048  0.00000  0.15904
      17     C     3.15157  3.15157  0.00000 -0.30314
      18     H     0.42077  0.42077  0.00000  0.15845
      19     H     0.41920  0.41920  0.00000  0.16160
      20     C     3.24290  3.24290  0.00000 -0.48580
      21     H     0.42050  0.42050  0.00000  0.15901
      22     H     0.42308  0.42308  0.00000  0.15384
      23     H     0.42002  0.42002  0.00000  0.15996
      24     H     0.42165  0.42165  0.00000  0.15669
      25     H     0.41819  0.41819  0.00000  0.16363

   Total alpha = 36.00000, Total beta = 36.00000, Total charge =  0.00000
