  ==> Input File <==

--------------------------------------------------------------------------
set {
	reference rhf
	basis 6-31G*
}

set_num_threads( 4 )
memory 2 gb

molecule MOL {
0 1

O	 1.214711	 1.306902	 -0.000018
C	 1.122059	 0.121804	 -0.000188
C	 -0.170150	 -0.657997	 -0.000612
O	 2.172624	 -0.688929	 0.000216
C	 -1.412532	 0.227344	 -0.000452
H	 -0.153702	 -1.313099	 -0.867402
H	 -0.153924	 -1.313811	 0.865644
C	 -1.227688	 1.488388	 0.845105
H	 -2.258975	 -0.342980	 0.369371
H	 -1.657150	 0.501746	 -1.021906
C	 -2.467331	 2.381847	 0.849767
H	 -0.981988	 1.207773	 1.867339
H	 -0.376786	 2.054736	 0.471894
H	 -3.328392	 1.854574	 1.250031
H	 -2.310063	 3.268207	 1.456321
H	 -2.718491	 2.708084	 -0.155285
C	 3.452279	 -0.082609	 0.000533
H	 3.583069	 0.529321	 -0.880332
H	 4.163299	 -0.894027	 0.001117
H	 3.582335	 0.529955	 0.881077

	symmetry c1
}
set optking {
	frozen_dihedral = ("
		9 5 3 6
	")
}

ee = optimize('scf')
oeprop('DIPOLE', 'QUADRUPOLE', 'MULLIKEN_CHARGES')
f=open( 'psi4out.xyz', 'w' )
f.write( "20  " )
f.write( str(ee) + "\n" )
f.write( MOL.save_string_xyz() )
f.close()
--------------------------------------------------------------------------

    Molecular point group: c1
  Charge       = 0
  Multiplicity = 1
  Basis Set: 6-31G*
  Basis Set:
  @DF-RHF Final Energy:  -383.92180659244150
    Total Energy =                       -383.9218065924414987
    Molecular point group: c1
  Basis Set: 6-31G*
  Basis Set:
  Basis Set: 6-31G*
  Basis Set:
  @DF-RHF Final Energy:  -383.93297967513547
    Total Energy =                       -383.9329796751352433
  Basis Set: 6-31G*
  Basis Set:
  Basis Set: 6-31G*
  Basis Set:
  @DF-RHF Final Energy:  -383.93474931234653
    Total Energy =                       -383.9347493123467530
  Basis Set: 6-31G*
  Basis Set:
  Basis Set: 6-31G*
  Basis Set:
  @DF-RHF Final Energy:  -383.93287772259970
    Total Energy =                       -383.9328777225994145
  Basis Set: 6-31G*
  Basis Set:
  @DF-RHF Final Energy:  -383.93607164068618
    Total Energy =                       -383.9360716406861229
  @DF-RHF Final Energy:  -383.93682175435845
    Total Energy =                       -383.9368217543584478
  @DF-RHF Final Energy:  -383.93721335029466
    Total Energy =                       -383.9372133502946554
  @DF-RHF Final Energy:  -383.93731317465438
    Total Energy =                       -383.9373131746546051
  @DF-RHF Final Energy:  -383.93735950456391
    Total Energy =                       -383.9373595045635739
  Basis Set: 6-31G*
  Basis Set:
  @DF-RHF Final Energy:  -383.93738834460669
    Total Energy =                       -383.9373883446066884
  Basis Set: 6-31G*
  Basis Set:
  Basis Set: 6-31G*
  Basis Set:
  @DF-RHF Final Energy:  -383.93739514897027
    Total Energy =                       -383.9373951489702677
  Basis Set: 6-31G*
  Basis Set:
  Basis Set: 6-31G*
  Basis Set:
  @DF-RHF Final Energy:  -383.93739761128370
    Total Energy =                       -383.9373976112838136
  Basis Set: 6-31G*
  Basis Set:
  Charge       = 0
  Multiplicity = 1
  Basis Set: 6-31G*
  Basis Set:

    Orbital Energies (a.u.)
    -----------------------

    Doubly Occupied:

       1A    -20.606039     2A    -20.542487     3A    -11.372158
       4A    -11.281183     5A    -11.235567     6A    -11.224731
       7A    -11.215063     8A    -11.208949     9A     -1.470029
      10A     -1.361800    11A     -1.086803    12A     -1.021602
      13A     -0.969266    14A     -0.886118    15A     -0.808282
      16A     -0.766290    17A     -0.695098    18A     -0.679992
      19A     -0.671282    20A     -0.639960    21A     -0.600998
      22A     -0.589179    23A     -0.582791    24A     -0.541638
      25A     -0.533603    26A     -0.517569    27A     -0.513146
      28A     -0.479092    29A     -0.472611    30A     -0.464033
      31A     -0.453796    32A     -0.431610

  @DF-RHF Final Energy:  -383.93739827800766

   => Energetics <=

    Nuclear Repulsion Energy =            391.3055058374721966
    One-Electron Energy =               -1298.6402763752630563
    Two-Electron Energy =                 523.3973722597830829
    DFT Exchange-Correlation Energy =       0.0000000000000000
    Empirical Dispersion Energy =           0.0000000000000000
    PCM Polarization Energy =               0.0000000000000000
    EFP Energy =                            0.0000000000000000
    Total Energy =                       -383.9373982780077768
    Molecular point group: c1
  Basis Set: 6-31G*
  Basis Set:

  -Total Gradient:
     Atom            X                  Y                   Z
    ------   -----------------  -----------------  -----------------
       1        0.000001804718     0.000008248240     0.000014405230
       2        0.000007280516     0.000004588749    -0.000012781839
       3       -0.003778418297    -0.005169584430     0.005028996372
       4       -0.000027335362     0.000008305439    -0.000011518468
       5       -0.001176902779    -0.000607636278    -0.007816871728
       6        0.003306275228     0.004406938672    -0.003069360998
       7       -0.000002387064    -0.000009492539     0.000009428847
       8       -0.000001574799     0.000011912998     0.000009898027
       9        0.001626800839     0.001325812791     0.005855775232
      10       -0.000006895453     0.000009972348    -0.000007025476
      11        0.000013444114    -0.000008940778     0.000000691988
      12       -0.000003402512    -0.000000530404    -0.000001462809
      13        0.000024543382     0.000008565023    -0.000004936163
      14       -0.000003708504     0.000001582004     0.000001275847
      15        0.000000646371    -0.000000068697     0.000000710194
      16       -0.000003135174     0.000002409553    -0.000003042486
      17        0.000024770832     0.000009853569     0.000014524929
      18       -0.000008586557    -0.000002545593    -0.000001048917
      19        0.000008468073     0.000002737265    -0.000004242696
      20       -0.000001687577    -0.000002127930    -0.000003415085

  **** Optimization is complete! (in 13 steps) ****
    Final optimized geometry and variables:
    Molecular point group: c1

    Geometry (in Angstrom), charge = 0, multiplicity = 1:

    O            0.964996379633     0.481849445334    -1.160718994212
    C            0.760628002796    -0.456928670555    -0.458176924623
    C           -0.578780004621    -1.144251225639    -0.312712840745
    O            1.709319955294    -1.049318011695     0.252163388334
    C           -1.767596302195    -0.175486045248    -0.207824200140
    H           -0.666482862103    -1.720375740393    -1.231008641644
    H           -0.542523369858    -1.829712863163     0.522818395475
    C           -1.561415935201     0.981955976799     0.777232465051
    H           -2.615807488338    -0.749698167407     0.155942397273
    H           -2.016737672348     0.216444266021    -1.187096980447
    C           -2.827043377028     1.820115134148     0.955028847287
    H           -1.257374313300     0.581073332862     1.743113289452
    H           -0.755320281909     1.619446945287     0.433465569959
    H           -3.647986648182     1.221295253211     1.339693115093
    H           -2.660151135753     2.637411066773     1.649554861465
    H           -3.145825841863     2.250311004713     0.009891098077
    C            3.019464776641    -0.522713568924     0.138726692253
    H            3.364350621585    -0.580157744980    -0.883568055137
    H            3.638672564945    -1.132450854839     0.777969014388
    H            3.043462283872     0.507088682995     0.464508601631

  Mulliken Charges: (a.u.)
   Center  Symbol    Alpha    Beta     Spin     Total
       1     O     4.28886  4.28886  0.00000 -0.57772
       2     C     2.60770  2.60770  0.00000  0.78459
       3     C     3.20867  3.20867  0.00000 -0.41735
       4     O     4.30410  4.30410  0.00000 -0.60819
       5     C     3.14965  3.14965  0.00000 -0.29931
       6     H     0.39863  0.39863  0.00000  0.20274
       7     H     0.39970  0.39970  0.00000  0.20060
       8     C     3.16517  3.16517  0.00000 -0.33034
       9     H     0.41858  0.41858  0.00000  0.16284
      10     H     0.41005  0.41005  0.00000  0.17989
      11     C     3.24011  3.24011  0.00000 -0.48023
      12     H     0.42444  0.42444  0.00000  0.15113
      13     H     0.40494  0.40494  0.00000  0.19013
      14     H     0.42303  0.42303  0.00000  0.15393
      15     H     0.41806  0.41806  0.00000  0.16389
      16     H     0.41950  0.41950  0.00000  0.16100
      17     C     3.09321  3.09321  0.00000 -0.18642
      18     H     0.40874  0.40874  0.00000  0.18252
      19     H     0.40833  0.40833  0.00000  0.18335
      20     H     0.40853  0.40853  0.00000  0.18294

   Total alpha = 32.00000, Total beta = 32.00000, Total charge = -0.00000
