                              Psi4 1.0.54 Driver

  ==> Input File <==

--------------------------------------------------------------------------
set {
	reference rhf
	basis cc-pvtz
}

set_num_threads( 4 )
memory 2 gb

molecule MOL {
0 1

H	 -2.644180	 -0.653737	 1.272255
C	 -2.092774	 -0.380414	 0.391915
O	 -0.808934	 -0.154049	 0.752536
F	 -2.163230	 -1.351640	 -0.507133
F	 -2.627232	 0.691260	 -0.169301
C	 0.085006	 0.250800	 -0.215074
C	 -0.721129	 0.608296	 -1.461516
Cl	 1.249199	 -1.033427	 -0.590513
H	 0.648261	 1.118891	 0.079558
F	 0.072432	 1.016737	 -2.418835
F	 -1.542975	 1.589077	 -1.171768
F	 -1.424559	 -0.398566	 -1.901591

	symmetry c1
}
set optking {
	frozen_dihedral = ("
		9 6 3 2
	")
}

ee,wfn = optimize('scf', return_wfn=True)
oeprop( wfn, 'DIPOLE', 'QUADRUPOLE', 'MULLIKEN_CHARGES')
f=open( 'psi4out.xyz', 'w' )
f.write( "12  " )
f.write( str(ee) + "\n" )
f.write( MOL.save_string_xyz() )
f.close()
--------------------------------------------------------------------------

    Molecular point group: c1
  Charge       = 0
  Multiplicity = 1
  Basis Set: CC-PVTZ
  Basis Set:
  @DF-RHF Final Energy: -1146.45979369655720
    Total Energy =                      -1146.4597936965574263
    Molecular point group: c1
  Basis Set: CC-PVTZ
  Basis Set:
  Basis Set: CC-PVTZ
  Basis Set:
  @DF-RHF Final Energy: -1146.52576274643570
    Total Energy =                      -1146.5257627464352481
  Basis Set: CC-PVTZ
  Basis Set:
  Basis Set: CC-PVTZ
  Basis Set:
  @DF-RHF Final Energy: -1146.56164738952839
    Total Energy =                      -1146.5616473895283889
  Basis Set: CC-PVTZ
  Basis Set:
  Basis Set: CC-PVTZ
  Basis Set:
  @DF-RHF Final Energy: -1146.58295759997145
    Total Energy =                      -1146.5829575999716781
  Basis Set: CC-PVTZ
  Basis Set:
  @DF-RHF Final Energy: -1146.59448688248722
    Total Energy =                      -1146.5944868824869900
  @DF-RHF Final Energy: -1146.60031539064994
    Total Energy =                      -1146.6003153906494845
  @DF-RHF Final Energy: -1146.60208508248388
    Total Energy =                      -1146.6020850824836543
  @DF-RHF Final Energy: -1146.60347888619981
    Total Energy =                      -1146.6034788862002642
  @DF-RHF Final Energy: -1146.60380874701877
    Total Energy =                      -1146.6038087470190021
  @DF-RHF Final Energy: -1146.60386566056741
    Total Energy =                      -1146.6038656605683173
  @DF-RHF Final Energy: -1146.60387467956753
    Total Energy =                      -1146.6038746795670704
  @DF-RHF Final Energy: -1146.60388224410190
    Total Energy =                      -1146.6038822441018965
  @DF-RHF Final Energy: -1146.60315920051062
    Total Energy =                      -1146.6031592005106177
  @DF-RHF Final Energy: -1146.60192446039810
    Total Energy =                      -1146.6019244603980951
  @DF-RHF Final Energy: -1146.60251433898202
    Total Energy =                      -1146.6025143389817913
  @DF-RHF Final Energy: -1146.60377181009608
    Total Energy =                      -1146.6037718100951679
  @DF-RHF Final Energy: -1146.60388798013309
    Total Energy =                      -1146.6038879801317307
  @DF-RHF Final Energy: -1146.60390131190661
    Total Energy =                      -1146.6039013119059291
  @DF-RHF Final Energy: -1146.60389967697097
    Total Energy =                      -1146.6038996769705136
  @DF-RHF Final Energy: -1146.60390160028692
    Total Energy =                      -1146.6039016002871449
  @DF-RHF Final Energy: -1146.60390506825615
    Total Energy =                      -1146.6039050682556990
  @DF-RHF Final Energy: -1146.60390710444426
    Total Energy =                      -1146.6039071044438060
  @DF-RHF Final Energy: -1146.60390726772903
    Total Energy =                      -1146.6039072677299373
  Basis Set: CC-PVTZ
  Basis Set:
  @DF-RHF Final Energy: -1146.60390854437105
    Total Energy =                      -1146.6039085443712793
  Basis Set: CC-PVTZ
  Basis Set:
  Basis Set: CC-PVTZ
  Basis Set:
  @DF-RHF Final Energy: -1146.60390718018107
    Total Energy =                      -1146.6039071801819773
  Basis Set: CC-PVTZ
  Basis Set:
  Basis Set: CC-PVTZ
  Basis Set:
  @DF-RHF Final Energy: -1146.60391054041997
    Total Energy =                      -1146.6039105404211114
  Basis Set: CC-PVTZ
  Basis Set:
  Charge       = 0
  Multiplicity = 1
  Basis Set: CC-PVTZ
  Basis Set:

    Orbital Energies (a.u.)
    -----------------------

    Doubly Occupied:

       1A   -104.855750     2A    -26.356055     3A    -26.354606
       4A    -26.354127     5A    -26.338246     6A    -26.333325
       7A    -20.634910     8A    -11.524501     9A    -11.481506
      10A    -11.405776    11A    -10.581309    12A     -8.048103
      13A     -8.046105    14A     -8.046037    15A     -1.770449
      16A     -1.718130    17A     -1.665651    18A     -1.661777
      19A     -1.639177    20A     -1.476254    21A     -1.178103
      22A     -1.046618    23A     -1.001378    24A     -0.922159
      25A     -0.865842    26A     -0.860020    27A     -0.854485
      28A     -0.833103    29A     -0.815194    30A     -0.757830
      31A     -0.736721    32A     -0.734467    33A     -0.710986
      34A     -0.700457    35A     -0.684422    36A     -0.681164
      37A     -0.667156    38A     -0.663740    39A     -0.657829
      40A     -0.643733    41A     -0.589006    42A     -0.555644
      43A     -0.525295    44A     -0.476729    45A     -0.467763

  @DF-RHF Final Energy: -1146.60391119692508

   => Energetics <=

    Nuclear Repulsion Energy =            755.6500479698354411
    One-Electron Energy =               -3094.6646340561974284
    Two-Electron Energy =                1192.4106748894366774
    DFT Exchange-Correlation Energy =       0.0000000000000000
    Empirical Dispersion Energy =           0.0000000000000000
    PCM Polarization Energy =               0.0000000000000000
    EFP Energy =                            0.0000000000000000
    Total Energy =                      -1146.6039111969255373
    Molecular point group: c1
  Basis Set: CC-PVTZ
  Basis Set:

  -Total Gradient:
     Atom            X                  Y                   Z
    ------   -----------------  -----------------  -----------------
       1       -0.000009553426     0.000013620259     0.000012243226
       2       -0.000709647744     0.005174465118     0.003234049672
       3        0.000163059222    -0.007740975093    -0.005062819504
       4       -0.000007699305    -0.000046221552     0.000069045905
       5       -0.000017239700     0.000012014578    -0.000066853343
       6        0.005015035411    -0.000705679158     0.001228802871
       7       -0.000084364426    -0.000147268311    -0.000047816543
       8        0.000178586980     0.000076624386     0.000059645342
       9       -0.004527635558     0.003355973381     0.000613259469
      10       -0.000005329001    -0.000019905796     0.000002851749
      11        0.000048876785     0.000018945444    -0.000020839729
      12       -0.000044089276     0.000008406704    -0.000021569170

  **** Optimization is complete! (in 27 steps) ****
    Final optimized geometry and variables:
    Molecular point group: c1

    Geometry (in Angstrom), charge = 0, multiplicity = 1:

    H           -0.707361544928    -1.418283019256     2.557127370532
    C           -0.778295720340    -0.918773904454     1.608007699113
    O            0.480483929929    -0.542356664235     1.278722830891
    F           -1.291194060704    -1.742486297554     0.711807900312
    F           -1.598467630509     0.109665842627     1.709130021805
    C            0.928508105315     0.188137995847     0.192260298945
    C           -0.092520843200     0.936998260756    -0.683577068753
    CL           1.920290875660    -0.868491924616    -0.831705634503
    H            1.558645164000     0.968687179460     0.581211586979
    F            0.553143689809     1.526956841530    -1.659285440050
    F           -0.670736451681     1.879722343090     0.021089366359
    F           -1.013394583267     0.174825061496    -1.200274749118

  Mulliken Charges: (a.u.)
   Center  Symbol    Alpha    Beta     Spin     Total
       1     H     0.44757  0.44757  0.00000  0.10485
       2     C     2.74474  2.74474  0.00000  0.51053
       3     O     4.16283  4.16283  0.00000 -0.32566
       4     F     4.61387  4.61387  0.00000 -0.22773
       5     F     4.61492  4.61492  0.00000 -0.22983
       6     C     2.93424  2.93424  0.00000  0.13152
       7     C     2.68499  2.68499  0.00000  0.63002
       8    CL     8.57196  8.57196  0.00000 -0.14393
       9     H     0.42246  0.42246  0.00000  0.15508
      10     F     4.60028  4.60028  0.00000 -0.20055
      11     F     4.60406  4.60406  0.00000 -0.20812
      12     F     4.59808  4.59808  0.00000 -0.19616

   Total alpha = 45.00000, Total beta = 45.00000, Total charge = -0.00000

*** Psi4 exiting successfully. Buy a developer a beer!
