  ==> Input File <==

--------------------------------------------------------------------------
set {
	reference rhf
	basis cc-pvtz
}

set_num_threads( 4 )
memory 2 gb

molecule MOL {
0 1

H	 3.721907	 -0.933076	 -0.066039
O	 2.824271	 -1.154299	 0.131461
C	 2.076458	 -0.067370	 -0.038225
C	 0.626018	 -0.337582	 0.258241
O	 2.538288	 0.965419	 -0.381593
C	 -0.267326	 0.883135	 0.076490
H	 0.325620	 -1.161483	 -0.378003
H	 0.574537	 -0.713685	 1.275261
C	 -1.726822	 0.642622	 0.463839
H	 -0.210803	 1.217591	 -0.953497
H	 0.129920	 1.693110	 0.675679
C	 -2.480891	 -0.340606	 -0.429852
H	 -2.243098	 1.597649	 0.438609
H	 -1.776542	 0.301208	 1.495542
C	 -1.975427	 -1.772644	 -0.287548
H	 -3.538932	 -0.306233	 -0.184084
H	 -2.398609	 -0.040898	 -1.469736
H	 -2.527458	 -2.449380	 -0.929399
H	 -2.080223	 -2.124713	 0.733120
H	 -0.926428	 -1.845381	 -0.554877

	symmetry c1
}
set optking {
	frozen_dihedral = ("
		16 12 9 6
	")
}

ee = optimize('scf')
oeprop('DIPOLE', 'QUADRUPOLE', 'MULLIKEN_CHARGES')
f=open( 'psi4out.xyz', 'w' )
f.write( "20  " )
f.write( str(ee) + "\n" )
f.write( MOL.save_string_xyz() )
f.close()
--------------------------------------------------------------------------

    Molecular point group: c1
  Charge       = 0
  Multiplicity = 1
  Basis Set: CC-PVTZ
  Basis Set:
  @DF-RHF Final Energy:  -384.07681688821270
    Total Energy =                       -384.0768168882123064
    Molecular point group: c1
  Basis Set: CC-PVTZ
  Basis Set:
  Basis Set: CC-PVTZ
  Basis Set:
  @DF-RHF Final Energy:  -384.08733458482993
    Total Energy =                       -384.0873345848302733
  Basis Set: CC-PVTZ
  Basis Set:
  Basis Set: CC-PVTZ
  Basis Set:
  @DF-RHF Final Energy:  -384.08934607781106
    Total Energy =                       -384.0893460778113422
  Basis Set: CC-PVTZ
  Basis Set:
  Basis Set: CC-PVTZ
  Basis Set:
  @DF-RHF Final Energy:  -384.08854589206760
    Total Energy =                       -384.0885458920673727
  Basis Set: CC-PVTZ
  Basis Set:
  @DF-RHF Final Energy:  -384.09006457318753
    Total Energy =                       -384.0900645731875329
  @DF-RHF Final Energy:  -384.09019810275203
    Total Energy =                       -384.0901981027520833
  @DF-RHF Final Energy:  -384.09036573945980
    Total Energy =                       -384.0903657394600259
  @DF-RHF Final Energy:  -384.09043005280523
    Total Energy =                       -384.0904300528051181
  Basis Set: CC-PVTZ
  Basis Set:
  @DF-RHF Final Energy:  -384.09044935262045
    Total Energy =                       -384.0904493526209080
  Basis Set: CC-PVTZ
  Basis Set:
  Basis Set: CC-PVTZ
  Basis Set:
  @DF-RHF Final Energy:  -384.09045465895804
    Total Energy =                       -384.0904546589580377
  Basis Set: CC-PVTZ
  Basis Set:
  Basis Set: CC-PVTZ
  Basis Set:
  @DF-RHF Final Energy:  -384.09045658221419
    Total Energy =                       -384.0904565822143013
  Basis Set: CC-PVTZ
  Basis Set:
  Charge       = 0
  Multiplicity = 1
  Basis Set: CC-PVTZ
  Basis Set:

    Orbital Energies (a.u.)
    -----------------------

    Doubly Occupied:

       1A    -20.603592     2A    -20.540250     3A    -11.372952
       4A    -11.237940     5A    -11.220967     6A    -11.218913
       7A    -11.218243     8A    -11.212002     9A     -1.477134
      10A     -1.368638    11A     -1.095352    12A     -1.040542
      13A     -0.962716    14A     -0.879487    15A     -0.809094
      16A     -0.779095    17A     -0.703368    18A     -0.689896
      19A     -0.668813    20A     -0.627873    21A     -0.616995
      22A     -0.595025    23A     -0.575988    24A     -0.560067
      25A     -0.532428    26A     -0.519204    27A     -0.501995
      28A     -0.484092    29A     -0.470549    30A     -0.466289
      31A     -0.455039    32A     -0.443542

  @DF-RHF Final Energy:  -384.09045683211428

   => Energetics <=

    Nuclear Repulsion Energy =            382.3807313143782380
    One-Electron Energy =               -1281.0462160326906087
    Two-Electron Energy =                 514.5750278861979723
    DFT Exchange-Correlation Energy =       0.0000000000000000
    Empirical Dispersion Energy =           0.0000000000000000
    PCM Polarization Energy =               0.0000000000000000
    EFP Energy =                            0.0000000000000000
    Total Energy =                       -384.0904568321144552
    Molecular point group: c1
  Basis Set: CC-PVTZ
  Basis Set:

  -Total Gradient:
     Atom            X                  Y                   Z
    ------   -----------------  -----------------  -----------------
       1       -0.000009747923     0.000002406807    -0.000001076901
       2       -0.000000786194    -0.000013362429     0.000007721557
       3        0.000003548569     0.000002451084     0.000014722048
       4       -0.000019031311    -0.000002168779    -0.000011265756
       5       -0.000006191193     0.000016183789    -0.000011155898
       6       -0.000187652578     0.000577408671    -0.000363348487
       7       -0.000006127384     0.000002379819    -0.000001334245
       8        0.000007461506    -0.000002177016     0.000010297503
       9        0.000274197148    -0.000691009676     0.000396518259
      10       -0.000000889378     0.000001581376    -0.000007269367
      11       -0.000016411554    -0.000010781417     0.000008484039
      12        0.000107716839    -0.000657438506     0.000492491609
      13        0.000000077500    -0.000000891865    -0.000005837192
      14        0.000008854970     0.000001389503     0.000003297915
      15        0.000006971811     0.000015784388     0.000016094984
      16       -0.000152172486     0.000748544694    -0.000534907568
      17       -0.000004598489    -0.000007216166    -0.000014179903
      18       -0.000003209750     0.000003283887    -0.000000687851
      19       -0.000008035041     0.000000372580    -0.000000411213
      20        0.000006024950     0.000013259258     0.000001846465

  **** Optimization is complete! (in 12 steps) ****
    Final optimized geometry and variables:
    Molecular point group: c1

    Geometry (in Angstrom), charge = 0, multiplicity = 1:

    H            3.611204536550    -0.560513989095     0.104378331136
    O            2.754973755958    -0.765500121667     0.448707787703
    C            1.894534019379     0.147712206104     0.006751035252
    C            0.500914421594    -0.108772067771     0.513645664845
    O            2.228615240365     1.036773581886    -0.697702587901
    C           -0.516673888273     0.922122832798     0.037270973879
    H            0.238336257054    -1.116829600031     0.219843984054
    H            0.557089987171    -0.124222659442     1.597303405803
    C           -1.943943371527     0.687058027975     0.557657256377
    H           -0.517123912464     0.957211212838    -1.046069244219
    H           -0.175699028944     1.896941587627     0.362331272653
    C           -2.861010927453    -0.149798156053    -0.339666053136
    H           -2.416757417894     1.655478214975     0.680106053180
    H           -1.907963556049     0.247390831489     1.551653096558
    C           -2.491195115019    -1.622453469652    -0.493803702576
    H           -3.868654004977    -0.082628631123     0.058973984336
    H           -2.900695383722     0.310821671230    -1.323046016556
    H           -3.256204155070    -2.149445658844    -1.052200139286
    H           -2.394568761412    -2.108862986392     0.471543665882
    H           -1.558384044471    -1.752644559892    -1.029091501378

  Mulliken Charges: (a.u.)
   Center  Symbol    Alpha    Beta     Spin     Total
       1     H     0.38250  0.38250  0.00000  0.23500
       2     O     4.16061  4.16061  0.00000 -0.32122
       3     C     2.80385  2.80385  0.00000  0.39230
       4     C     3.11219  3.11219  0.00000 -0.22438
       5     O     4.19140  4.19140  0.00000 -0.38280
       6     C     3.09612  3.09612  0.00000 -0.19225
       7     H     0.43600  0.43600  0.00000  0.12800
       8     H     0.43695  0.43695  0.00000  0.12610
       9     C     3.10486  3.10486  0.00000 -0.20972
      10     H     0.44414  0.44414  0.00000  0.11173
      11     H     0.43868  0.43868  0.00000  0.12264
      12     C     3.08431  3.08431  0.00000 -0.16862
      13     H     0.44171  0.44171  0.00000  0.11658
      14     H     0.45533  0.45533  0.00000  0.08933
      15     C     3.16079  3.16079  0.00000 -0.32159
      16     H     0.44835  0.44835  0.00000  0.10329
      17     H     0.45308  0.45308  0.00000  0.09384
      18     H     0.44244  0.44244  0.00000  0.11512
      19     H     0.45251  0.45251  0.00000  0.09498
      20     H     0.45416  0.45416  0.00000  0.09167

   Total alpha = 32.00000, Total beta = 32.00000, Total charge = -0.00000
