  ==> Input File <==

--------------------------------------------------------------------------
set {
	reference rhf
	basis 6-31G*
}

set_num_threads( 1 )
memory 2 gb

molecule MOL {
0 1

O	 2.859800	 1.361155	 0.132994
C	 2.839513	 0.170671	 0.204368
C	 1.542570	 -0.618550	 0.201692
C	 4.118224	 -0.635742	 0.303120
C	 0.289025	 0.245671	 0.101786
H	 1.586804	 -1.329352	 -0.622440
H	 1.520306	 -1.226112	 1.105448
C	 -0.996318	 -0.583578	 0.101663
H	 0.341536	 0.845507	 -0.801303
H	 0.274785	 0.948724	 0.928625
C	 -2.259874	 0.272531	 0.000494
H	 -0.973847	 -1.288817	 -0.727903
H	 -1.041781	 -1.183864	 1.009219
C	 -3.549786	 -0.549746	 -0.000374
H	 -2.215837	 0.872517	 -0.906753
H	 -2.283839	 0.977325	 0.829763
C	 -4.809590	 0.315458	 -0.000369
H	 -3.560515	 -1.202009	 -0.871156
H	 -3.561123	 -1.202955	 0.869711
H	 -4.844746	 0.956611	 -0.876632
H	 -5.706986	 -0.295590	 -0.001609
H	 -4.845960	 0.954827	 0.877144
H	 4.192547	 -1.331619	 -0.527451
H	 4.970548	 0.029314	 0.294199
H	 4.126083	 -1.222754	 1.216898

	symmetry c1
}
set optking {
	frozen_dihedral = ("
		9 5 8 12,
		15 11 8 12,
		1 2 3 6,
		9 5 3 6
	")
}

ee = energy('scf')
oeprop('DIPOLE', 'QUADRUPOLE', 'MULLIKEN_CHARGES')
f=open( 'psi4out.xyz', 'w' )
f.write( "25  " )
f.write( str(ee) + "\n" )
f.write( MOL.save_string_xyz() )
f.close()
--------------------------------------------------------------------------

    Molecular point group: c1

    Geometry (in Angstrom), charge = 0, multiplicity = 1:

       Center              X                  Y                   Z               Mass
    ------------   -----------------  -----------------  -----------------  -----------------
           O          2.862053142700     1.357743146404     0.016809281159    15.994914619560
           C          2.841766142700     0.167259146404     0.088183281159    12.000000000000
           C          1.544823142700    -0.621961853596     0.085507281159    12.000000000000
           C          4.120477142700    -0.639153853596     0.186935281159    12.000000000000
           C          0.291278142700     0.242259146404    -0.014398718841    12.000000000000
           H          1.589057142700    -1.332763853596    -0.738624718841     1.007825032070
           H          1.522559142700    -1.229523853596     0.989263281159     1.007825032070
           C         -0.994064857300    -0.586989853596    -0.014521718841    12.000000000000
           H          0.343789142700     0.842095146404    -0.917487718841     1.007825032070
           H          0.277038142700     0.945312146404     0.812440281159     1.007825032070
           C         -2.257620857300     0.269119146404    -0.115690718841    12.000000000000
           H         -0.971593857300    -1.292228853596    -0.844087718841     1.007825032070
           H         -1.039527857300    -1.187275853596     0.893034281159     1.007825032070
           C         -3.547532857300    -0.553157853596    -0.116558718841    12.000000000000
           H         -2.213583857300     0.869105146404    -1.022937718841     1.007825032070
           H         -2.281585857300     0.973913146404     0.713578281159     1.007825032070
           C         -4.807336857300     0.312046146404    -0.116553718841    12.000000000000
           H         -3.558261857300    -1.205420853596    -0.987340718841     1.007825032070
           H         -3.558869857300    -1.206366853596     0.753526281159     1.007825032070
           H         -4.842492857300     0.953199146404    -0.992816718841     1.007825032070
           H         -5.704732857300    -0.299001853596    -0.117793718841     1.007825032070
           H         -4.843706857300     0.951415146404     0.760959281159     1.007825032070
           H          4.194800142700    -1.335030853596    -0.643635718841     1.007825032070
           H          4.972801142700     0.025902146404     0.178014281159     1.007825032070
           H          4.128336142700    -1.226165853596     1.100713281159     1.007825032070

  Charge       = 0
  Multiplicity = 1
  Basis Set: 6-31G*
  Basis Set:

    Orbital Energies (a.u.)
    -----------------------

    Doubly Occupied:

       1A    -20.550460     2A    -11.326326     3A    -11.231884
       4A    -11.228350     5A    -11.217101     6A    -11.216505
       7A    -11.215343     8A    -11.213499     9A    -11.208316
      10A     -1.395773    11A     -1.093625    12A     -1.056328
      13A     -1.014519    14A     -0.969254    15A     -0.890717
      16A     -0.814098    17A     -0.790814    18A     -0.729921
      19A     -0.661556    20A     -0.651946    21A     -0.631854
      22A     -0.624117    23A     -0.595972    24A     -0.584308
      25A     -0.566383    26A     -0.559920    27A     -0.540176
      28A     -0.526200    29A     -0.512738    30A     -0.489796
      31A     -0.487843    32A     -0.473243    33A     -0.463753
      34A     -0.462262    35A     -0.450766    36A     -0.399421

  @DF-RHF Final Energy:  -387.13647435945478

   => Energetics <=

    Nuclear Repulsion Energy =            438.3405195882315297
    One-Electron Energy =               -1393.2638025993683186
    Two-Electron Energy =                 567.7868086516793937
    DFT Exchange-Correlation Energy =       0.0000000000000000
    Empirical Dispersion Energy =           0.0000000000000000
    PCM Polarization Energy =               0.0000000000000000
    EFP Energy =                            0.0000000000000000
    Total Energy =                       -387.1364743594574520

  Mulliken Charges: (a.u.)
   Center  Symbol    Alpha    Beta     Spin     Total
       1     O     4.26117  4.26117  0.00000 -0.52233
       2     C     2.73569  2.73569  0.00000  0.52861
       3     C     3.21088  3.21088  0.00000 -0.42177
       4     C     3.28664  3.28664  0.00000 -0.57327
       5     C     3.14803  3.14803  0.00000 -0.29606
       6     H     0.40997  0.40997  0.00000  0.18005
       7     H     0.41001  0.41001  0.00000  0.17998
       8     C     3.15394  3.15394  0.00000 -0.30788
       9     H     0.41214  0.41214  0.00000  0.17571
      10     H     0.41216  0.41216  0.00000  0.17569
      11     C     3.15076  3.15076  0.00000 -0.30153
      12     H     0.42489  0.42489  0.00000  0.15021
      13     H     0.42484  0.42484  0.00000  0.15032
      14     C     3.15152  3.15152  0.00000 -0.30305
      15     H     0.42226  0.42226  0.00000  0.15549
      16     H     0.42255  0.42255  0.00000  0.15490
      17     C     3.23935  3.23935  0.00000 -0.47870
      18     H     0.42333  0.42333  0.00000  0.15333
      19     H     0.42369  0.42369  0.00000  0.15263
      20     H     0.42136  0.42136  0.00000  0.15729
      21     H     0.41955  0.41955  0.00000  0.16091
      22     H     0.42138  0.42138  0.00000  0.15724
      23     H     0.40874  0.40874  0.00000  0.18253
      24     H     0.39646  0.39646  0.00000  0.20709
      25     H     0.40870  0.40870  0.00000  0.18261

   Total alpha = 36.00000, Total beta = 36.00000, Total charge = -0.00000
