  ==> Input File <==

--------------------------------------------------------------------------
set {
	reference rhf
	basis cc-pvtz
}

set_num_threads( 4 )
memory 2 gb

molecule MOL {
0 1

H	 1.036457	 0.618507	 -0.175438
C	 0.788096	 -0.429819	 0.000000
N	 -0.537714	 -0.645117	 0.000000
O	 1.630334	 -1.254062	 0.167262
C	 -1.522613	 0.412524	 0.000000
H	 -0.845894	 -1.585866	 0.000000
H	 -2.150256	 0.356137	 -0.880771
H	 -1.005621	 1.357208	 0.000000
H	 -2.150256	 0.356137	 0.880771

	symmetry c1
}
set optking {
	frozen_dihedral = ("
		1 2 3 6
	")
}

ee = optimize('scf')
oeprop('DIPOLE', 'QUADRUPOLE', 'MULLIKEN_CHARGES')
f=open( 'psi4out.xyz', 'w' )
f.write( "9  " )
f.write( str(ee) + "\n" )
f.write( MOL.save_string_xyz() )
f.close()
--------------------------------------------------------------------------

    Molecular point group: c1
  Charge       = 0
  Multiplicity = 1
  Basis Set: CC-PVTZ
  Basis Set:
  @DF-RHF Final Energy:  -208.04079959885178
    Total Energy =                       -208.0407995988516916
    Molecular point group: c1
  Basis Set: CC-PVTZ
  Basis Set:
  Basis Set: CC-PVTZ
  Basis Set:
  @DF-RHF Final Energy:  -208.04051272086295
    Total Energy =                       -208.0405127208628642
  Basis Set: CC-PVTZ
  Basis Set:
  Basis Set: CC-PVTZ
  Basis Set:
  @DF-RHF Final Energy:  -208.04155815420941
    Total Energy =                       -208.0415581542095538
  Basis Set: CC-PVTZ
  Basis Set:
  Basis Set: CC-PVTZ
  Basis Set:
  @DF-RHF Final Energy:  -208.04166378069550
    Total Energy =                       -208.0416637806953872
  Basis Set: CC-PVTZ
  Basis Set:
  @DF-RHF Final Energy:  -208.04170136952905
    Total Energy =                       -208.0417013695289938
  @DF-RHF Final Energy:  -208.04172216997085
    Total Energy =                       -208.0417221699708250
  @DF-RHF Final Energy:  -208.04173467664788
    Total Energy =                       -208.0417346766478772
  @DF-RHF Final Energy:  -208.04174431474812
    Total Energy =                       -208.0417443147481436
  @DF-RHF Final Energy:  -208.04175062183828
    Total Energy =                       -208.0417506218382755
  @DF-RHF Final Energy:  -208.04175177676024
    Total Energy =                       -208.0417517767601225
  @DF-RHF Final Energy:  -208.04175129676523
    Total Energy =                       -208.0417512967651987
  @DF-RHF Final Energy:  -208.04175244300512
    Total Energy =                       -208.0417524430050662
  Basis Set: CC-PVTZ
  Basis Set:
  @DF-RHF Final Energy:  -208.04175208332688
    Total Energy =                       -208.0417520833269691
  Basis Set: CC-PVTZ
  Basis Set:
  Basis Set: CC-PVTZ
  Basis Set:
  @DF-RHF Final Energy:  -208.04174424683296
    Total Energy =                       -208.0417442468329341
  Basis Set: CC-PVTZ
  Basis Set:
  Basis Set: CC-PVTZ
  Basis Set:
  @DF-RHF Final Energy:  -208.04175334414981
    Total Energy =                       -208.0417533441498392
  Basis Set: CC-PVTZ
  Basis Set:
  Charge       = 0
  Multiplicity = 1
  Basis Set: CC-PVTZ
  Basis Set:

    Orbital Energies (a.u.)
    -----------------------

    Doubly Occupied:

       1A    -20.517084     2A    -15.584255     3A    -11.338532
       4A    -11.274280     5A     -1.394520     6A     -1.243197
       7A     -0.966729     8A     -0.847768     9A     -0.694075
      10A     -0.678446    11A     -0.636418    12A     -0.596704
      13A     -0.570968    14A     -0.548570    15A     -0.429055
      16A     -0.395554

  @DF-RHF Final Energy:  -208.04175345087964

   => Energetics <=

    Nuclear Repulsion Energy =            120.6925654001667993
    One-Electron Energy =                -522.0363289527982715
    Two-Electron Energy =                 193.3020101017517618
    DFT Exchange-Correlation Energy =       0.0000000000000000
    Empirical Dispersion Energy =           0.0000000000000000
    PCM Polarization Energy =               0.0000000000000000
    EFP Energy =                            0.0000000000000000
    Total Energy =                       -208.0417534508796962
    Molecular point group: c1
  Basis Set: CC-PVTZ
  Basis Set:

  -Total Gradient:
     Atom            X                  Y                   Z
    ------   -----------------  -----------------  -----------------
       1       -0.000214112742    -0.000241223352    -0.002355052434
       2        0.000208682828     0.000414936666     0.002327578513
       3        0.000303063673    -0.000356575239     0.002570393632
       4       -0.000006609353    -0.000005908468    -0.000000189601
       5        0.000007802103     0.000014184892     0.000043404828
       6       -0.000304416652     0.000183054997    -0.002587470651
       7       -0.000007722945    -0.000004355796     0.000004397818
       8        0.000006833227    -0.000009630180    -0.000008448896
       9        0.000006479862     0.000005516479     0.000005386791

  **** Optimization is complete! (in 16 steps) ****
    Final optimized geometry and variables:
    Molecular point group: c1

    Geometry (in Angstrom), charge = 0, multiplicity = 1:

    H            0.981680975796     1.104258559180    -0.166903307761
    C            0.717397091101     0.052902475429    -0.034934742182
    N           -0.606255851145    -0.143102052249     0.107888841320
    O            1.538632422967    -0.807004899491    -0.031442079685
    C           -1.599801348226     0.892523260274    -0.027177218829
    H           -0.901870873831    -1.091067185263     0.074802127015
    H           -2.135014485819     0.824166871085    -0.967586598284
    H           -1.117763270356     1.859115299172     0.016811807985
    H           -2.316077988922     0.842567609658     0.782395720210

  Mulliken Charges: (a.u.)
   Center  Symbol    Alpha    Beta     Spin     Total
       1     H     0.47098  0.47098  0.00000  0.05803
       2     C     2.88142  2.88142  0.00000  0.23716
       3     N     3.59772  3.59772  0.00000 -0.19544
       4     O     4.20752  4.20752  0.00000 -0.41504
       5     C     3.07239  3.07239  0.00000 -0.14477
       6     H     0.40978  0.40978  0.00000  0.18044
       7     H     0.45536  0.45536  0.00000  0.08928
       8     H     0.45437  0.45437  0.00000  0.09126
       9     H     0.45046  0.45046  0.00000  0.09909

   Total alpha = 16.00000, Total beta = 16.00000, Total charge = -0.00000
