  ==> Input File <==

--------------------------------------------------------------------------
set {
	reference rhf
	basis cc-pvtz
}

set_num_threads( 4 )
memory 2 gb

molecule MOL {
0 1

H	 2.416195	 -0.708742	 -0.355175
C	 1.692752	 0.085822	 -0.426789
O	 0.462329	 -0.453336	 -0.000137
H	 1.635404	 0.423039	 -1.454025
H	 2.000819	 0.905703	 0.209707
C	 -0.590565	 0.341382	 0.000062
O	 -1.693898	 -0.053880	 0.000252
H	 -0.340426	 1.403822	 0.000200

	symmetry c1
}
set optking {
	frozen_dihedral = ("
		2 3 6 7
	")
}

ee = optimize('scf')
oeprop('DIPOLE', 'QUADRUPOLE', 'MULLIKEN_CHARGES')
f=open( 'psi4out.xyz', 'w' )
f.write( "8  " )
f.write( str(ee) + "\n" )
f.write( MOL.save_string_xyz() )
f.close()
--------------------------------------------------------------------------

    Molecular point group: c1
  Charge       = 0
  Multiplicity = 1
  Basis Set: CC-PVTZ
  Basis Set:
  @DF-RHF Final Energy:  -227.86895444761319
    Total Energy =                       -227.8689544476132482
    Molecular point group: c1
  Basis Set: CC-PVTZ
  Basis Set:
  Basis Set: CC-PVTZ
  Basis Set:
  @DF-RHF Final Energy:  -227.86898423905973
    Total Energy =                       -227.8689842390597278
  Basis Set: CC-PVTZ
  Basis Set:
  Basis Set: CC-PVTZ
  Basis Set:
  @DF-RHF Final Energy:  -227.86910503425986
    Total Energy =                       -227.8691050342599169
  Basis Set: CC-PVTZ
  Basis Set:
  Basis Set: CC-PVTZ
  Basis Set:
  @DF-RHF Final Energy:  -227.86914356375735
    Total Energy =                       -227.8691435637573477
  Basis Set: CC-PVTZ
  Basis Set:
  Basis Set: CC-PVTZ
  Basis Set:
  @DF-RHF Final Energy:  -227.86915386442200
    Total Energy =                       -227.8691538644221168
  Basis Set: CC-PVTZ
  Basis Set:
  Charge       = 0
  Multiplicity = 1
  Basis Set: CC-PVTZ
  Basis Set:

    Orbital Energies (a.u.)
    -----------------------

    Doubly Occupied:

       1A    -20.608881     2A    -20.548238     3A    -11.374609
       4A    -11.302089     5A     -1.479608     6A     -1.386630
       7A     -0.993891     8A     -0.849437     9A     -0.740749
      10A     -0.688541    11A     -0.685227    12A     -0.609687
      13A     -0.573598    14A     -0.540108    15A     -0.467051
      16A     -0.457578

  @DF-RHF Final Energy:  -227.86915423550570

   => Energetics <=

    Nuclear Repulsion Energy =            121.5221024860291266
    One-Electron Energy =                -552.1706669790237356
    Two-Electron Energy =                 202.7794102574887916
    DFT Exchange-Correlation Energy =       0.0000000000000000
    Empirical Dispersion Energy =           0.0000000000000000
    PCM Polarization Energy =               0.0000000000000000
    EFP Energy =                            0.0000000000000000
    Total Energy =                       -227.8691542355058459
    Molecular point group: c1
  Basis Set: CC-PVTZ
  Basis Set:

  -Total Gradient:
     Atom            X                  Y                   Z
    ------   -----------------  -----------------  -----------------
       1       -0.000006199770    -0.000007253180     0.000005800832
       2       -0.000532817226    -0.000226541542    -0.002501018070
       3        0.000888256972     0.000562953653     0.002155663535
       4       -0.000000597118    -0.000002646317     0.000008701622
       5       -0.000020323999    -0.000008703971     0.000007285664
       6       -0.000433079693    -0.000863780470     0.003505753492
       7        0.000088013141     0.000554229283    -0.003178595382
       8        0.000016747695    -0.000008257457    -0.000003591692

  **** Optimization is complete! (in 6 steps) ****
    Final optimized geometry and variables:
    Molecular point group: c1

    Geometry (in Angstrom), charge = 0, multiplicity = 1:

    H            2.454799556645    -0.650583837783    -0.086711599204
    C            1.707617165114     0.092633375879    -0.310252942653
    O            0.460129405158    -0.464729664136     0.030403538798
    H            1.740524337115     0.329461603374    -1.365517903699
    H            1.911962498882     0.985664467143     0.268521153391
    C           -0.566942242385     0.352728254083     0.177229606993
    O           -1.683183648878     0.001134259259     0.121682372081
    H           -0.278348884919     1.390208635323     0.353880646474

  Mulliken Charges: (a.u.)
   Center  Symbol    Alpha    Beta     Spin     Total
       1     H     0.44137  0.44137  0.00000  0.11725
       2     C     3.02948  3.02948  0.00000 -0.05897
       3     O     4.12306  4.12306  0.00000 -0.24611
       4     H     0.45576  0.45576  0.00000  0.08849
       5     H     0.46432  0.46432  0.00000  0.07135
       6     C     2.83565  2.83565  0.00000  0.32870
       7     O     4.17291  4.17291  0.00000 -0.34581
       8     H     0.47745  0.47745  0.00000  0.04510

   Total alpha = 16.00000, Total beta = 16.00000, Total charge =  0.00000
