  ==> Input File <==

--------------------------------------------------------------------------
set {
	reference rhf
	basis 6-31G*
}

set_num_threads( 4 )
memory 2 gb

molecule MOL {
0 1

O	 0.437669	 1.089823	 1.149717
C	 0.386283	 0.030910	 0.611379
C	 1.522352	 -0.960218	 0.526078
O	 -0.698257	 -0.426125	 0.001050
C	 2.791545	 -0.475026	 1.215066
H	 1.697131	 -1.164466	 -0.526054
H	 1.171872	 -1.894157	 0.955249
H	 3.146645	 0.447873	 0.772882
H	 3.574293	 -1.220702	 1.125133
H	 2.616741	 -0.288703	 2.267706
C	 -1.853104	 0.406779	 0.000512
C	 -3.066105	 -0.499277	 -0.000959
H	 -1.828410	 1.043074	 -0.873618
H	 -1.829857	 1.042383	 0.875188
H	 -3.071820	 -1.133106	 -0.880383
H	 -3.972708	 0.097145	 -0.001528
H	 -3.073405	 -1.133813	 0.877999

	symmetry c1
}
set optking {
	frozen_dihedral = ("
		2 4 11 13
	")
}

ee = optimize('scf')
oeprop('DIPOLE', 'QUADRUPOLE', 'MULLIKEN_CHARGES')
f=open( 'psi4out.xyz', 'w' )
f.write( "17  " )
f.write( str(ee) + "\n" )
f.write( MOL.save_string_xyz() )
f.close()
--------------------------------------------------------------------------

    Molecular point group: c1
  Charge       = 0
  Multiplicity = 1
  Basis Set: 6-31G*
  Basis Set:
  @DF-RHF Final Energy:  -344.91046669699631
    Total Energy =                       -344.9104666969963660
    Molecular point group: c1
  Basis Set: 6-31G*
  Basis Set:
  Basis Set: 6-31G*
  Basis Set:
  @DF-RHF Final Energy:  -344.91059662975977
    Total Energy =                       -344.9105966297595387
  Basis Set: 6-31G*
  Basis Set:
  Basis Set: 6-31G*
  Basis Set:
  @DF-RHF Final Energy:  -344.91077995126216
    Total Energy =                       -344.9107799512621000
  Basis Set: 6-31G*
  Basis Set:
  Basis Set: 6-31G*
  Basis Set:
  @DF-RHF Final Energy:  -344.91056480508604
    Total Energy =                       -344.9105648050860964
  Basis Set: 6-31G*
  Basis Set:
  Basis Set: 6-31G*
  Basis Set:
  @DF-RHF Final Energy:  -344.91078499266007
    Total Energy =                       -344.9107849926600693
  Basis Set: 6-31G*
  Basis Set:
  Charge       = 0
  Multiplicity = 1
  Basis Set: 6-31G*
  Basis Set:

    Orbital Energies (a.u.)
    -----------------------

    Doubly Occupied:

       1A    -20.600483     2A    -20.543984     3A    -11.372118
       4A    -11.284159     5A    -11.237217     6A    -11.222201
       7A    -11.215484     8A     -1.466077     9A     -1.362287
      10A     -1.069818    11A     -1.031498    12A     -0.911484
      13A     -0.848155    14A     -0.771306    15A     -0.698873
      16A     -0.685702    17A     -0.662959    18A     -0.629182
      19A     -0.586674    20A     -0.570610    21A     -0.557328
      22A     -0.526322    23A     -0.519803    24A     -0.514466
      25A     -0.501178    26A     -0.493137    27A     -0.450716
      28A     -0.435661

  @DF-RHF Final Energy:  -344.91078541420848

   => Energetics <=

    Nuclear Repulsion Energy =            314.7041511015464721
    One-Electron Energy =               -1093.6921102788774078
    Two-Electron Energy =                 434.0771737631224596
    DFT Exchange-Correlation Energy =       0.0000000000000000
    Empirical Dispersion Energy =           0.0000000000000000
    PCM Polarization Energy =               0.0000000000000000
    EFP Energy =                            0.0000000000000000
    Total Energy =                       -344.9107854142084761
    Molecular point group: c1
  Basis Set: 6-31G*
  Basis Set:

  -Total Gradient:
     Atom            X                  Y                   Z
    ------   -----------------  -----------------  -----------------
       1        0.000027073283    -0.000022407043     0.000003611740
       2       -0.000425869011    -0.000550874003     0.001199728637
       3       -0.000034383707    -0.000010003595    -0.000004444063
       4        0.000420966828     0.000540238185    -0.001960884405
       5       -0.000004618270     0.000014712887     0.000005510051
       6       -0.000008340897     0.000008843970    -0.000005829970
       7       -0.000005983040     0.000007927220    -0.000002117212
       8        0.000001115189     0.000000676478     0.000000505778
       9       -0.000004565002    -0.000000325059    -0.000000857102
      10        0.000003886679     0.000001466553     0.000005447534
      11        0.000800337566     0.001085226016     0.001578103047
      12        0.000016731323     0.000013537762    -0.000010504809
      13       -0.000776205718    -0.001115572970    -0.000816313632
      14       -0.000019119893     0.000018967208     0.000006896570
      15       -0.000000230354    -0.000000640148     0.000000552233
      16       -0.000000498780     0.000000658895    -0.000000637668
      17        0.000009703802     0.000007567643     0.000001233270

  **** Optimization is complete! (in 6 steps) ****
    Final optimized geometry and variables:
    Molecular point group: c1

    Geometry (in Angstrom), charge = 0, multiplicity = 1:

    O            0.552818525850     1.222733531341     0.636873351422
    C            0.475084981767     0.159692191614     0.110399478008
    C            1.592729579627    -0.852797818374     0.028646837691
    O           -0.618699272681    -0.291103518445    -0.489507159936
    C            2.875653094660    -0.383063001995     0.702780481716
    H            1.755864088686    -1.071345668553    -1.022476794399
    H            1.228690341264    -1.775578799601     0.470301776283
    H            3.244181260512     0.528045494248     0.247396440048
    H            3.643928641992    -1.143993704532     0.615694418673
    H            2.712278206823    -0.181634693080     1.754488777638
    C           -1.792088976187     0.517067787147    -0.480539049196
    C           -2.991306162417    -0.408626794413    -0.517851542769
    H           -1.769563031993     1.151800734769    -1.357717884996
    H           -1.792510917720     1.142024970252     0.398121994320
    H           -2.961277990852    -1.044067047532    -1.395583300015
    H           -3.907019665555     0.173345600083    -0.546952032887
    H           -3.014951714717    -1.041674083382     0.362096485209

  Mulliken Charges: (a.u.)
   Center  Symbol    Alpha    Beta     Spin     Total
       1     O     4.28585  4.28585  0.00000 -0.57171
       2     C     2.60596  2.60596  0.00000  0.78807
       3     C     3.20537  3.20537  0.00000 -0.41074
       4     O     4.31387  4.31387  0.00000 -0.62775
       5     C     3.23874  3.23874  0.00000 -0.47749
       6     H     0.40059  0.40059  0.00000  0.19882
       7     H     0.40107  0.40107  0.00000  0.19785
       8     H     0.40992  0.40992  0.00000  0.18016
       9     H     0.41834  0.41834  0.00000  0.16332
      10     H     0.41015  0.41015  0.00000  0.17970
      11     C     3.00639  3.00639  0.00000 -0.01278
      12     C     3.24740  3.24740  0.00000 -0.49480
      13     H     0.41497  0.41497  0.00000  0.17007
      14     H     0.39963  0.39963  0.00000  0.20073
      15     H     0.41165  0.41165  0.00000  0.17670
      16     H     0.41692  0.41692  0.00000  0.16617
      17     H     0.41316  0.41316  0.00000  0.17367

   Total alpha = 28.00000, Total beta = 28.00000, Total charge =  0.00000
