  ==> Input File <==

--------------------------------------------------------------------------
set {
	reference rhf
	basis 6-31G*
}

set_num_threads( 4 )
memory 2 gb

molecule MOL {
0 1

H	 -3.888935	 0.988780	 -0.355145
C	 -3.192617	 0.369211	 0.175832
C	 -2.076860	 -0.007332	 -0.404944
H	 -3.431800	 0.071628	 1.179399
O	 -1.180634	 -0.819263	 0.215062
H	 -1.815375	 0.285692	 -1.406422
C	 0.051604	 -1.018856	 -0.387932
C	 1.043764	 0.054862	 -0.001873
H	 -0.017620	 -1.041351	 -1.469781
H	 0.437898	 -1.966374	 -0.042284
F	 2.212596	 -0.199467	 -0.571921
F	 0.652529	 1.252447	 -0.405055
F	 1.230877	 0.110694	 1.300533

	symmetry c1
}
set optking {
	frozen_dihedral = ("
		6 3 5 7
	")
}

ee = optimize('scf')
oeprop('DIPOLE', 'QUADRUPOLE', 'MULLIKEN_CHARGES')
f=open( 'psi4out.xyz', 'w' )
f.write( "13  " )
f.write( str(ee) + "\n" )
f.write( MOL.save_string_xyz() )
f.close()
--------------------------------------------------------------------------

    Molecular point group: c1
  Charge       = 0
  Multiplicity = 1
  Basis Set: 6-31G*
  Basis Set:

    Orbital Energies (a.u.)
    -----------------------

    Doubly Occupied:

       1A    -26.344624     2A    -26.343678     3A    -26.340586
       4A    -20.608428     5A    -11.503158     6A    -11.318977
       7A    -11.299444     8A    -11.215761     9A     -1.741743
      10A     -1.639858    11A     -1.638266    12A     -1.438300
      13A     -1.084236    14A     -1.016470    15A     -0.925340
      16A     -0.836575    17A     -0.830973    18A     -0.821234
      19A     -0.791920    20A     -0.721791    21A     -0.711348
      22A     -0.696396    23A     -0.675874    24A     -0.660425
      25A     -0.654655    26A     -0.643112    27A     -0.634407
      28A     -0.584598    29A     -0.563104    30A     -0.523915
      31A     -0.514149    32A     -0.351478

  @DF-RHF Final Energy:  -527.53591614026004

   => Energetics <=

    Nuclear Repulsion Energy =            413.5475882601871831
    One-Electron Energy =               -1550.8173642667015883
    Two-Electron Energy =                 609.7338598662538516
    DFT Exchange-Correlation Energy =       0.0000000000000000
    Empirical Dispersion Energy =           0.0000000000000000
    PCM Polarization Energy =               0.0000000000000000
    EFP Energy =                            0.0000000000000000
    Total Energy =                       -527.5359161402604968
    Molecular point group: c1
  Basis Set: 6-31G*
  Basis Set:

  -Total Gradient:
     Atom            X                  Y                   Z
    ------   -----------------  -----------------  -----------------
       1        0.000009776674     0.000008921173     0.000011181822
       2       -0.000035132987    -0.000008525851     0.000074967416
       3        0.000046969870    -0.000032238708    -0.000016345080
       4        0.000002063392     0.000010838420    -0.000058518122
       5       -0.000021020619     0.000028330796     0.000014177507
       6       -0.000014220752    -0.000003506886    -0.000021322754
       7        0.000009368276     0.000031691432    -0.000062110231
       8       -0.000034985225    -0.000034008940     0.000060545636
       9       -0.000002977694    -0.000017703683     0.000011726032
      10        0.000005494847    -0.000027986320     0.000004528306
      11        0.000011036599     0.000006262073    -0.000012409804
      12        0.000004209594     0.000024613260    -0.000011621666
      13        0.000019418028     0.000013313234     0.000005200934

  **** Optimization is complete! (in 1 steps) ****
    Final optimized geometry and variables:
    Molecular point group: c1

    Geometry (in Angstrom), charge = 0, multiplicity = 1:

    H           -3.889411206204     0.987955597182    -0.355536498320
    C           -3.193093206204     0.368386597182     0.175440501680
    C           -2.077336206204    -0.008156402818    -0.405335498320
    H           -3.432276206204     0.070803597182     1.179007501680
    O           -1.181110206204    -0.820087402818     0.214670501680
    H           -1.815851206204     0.284867597182    -1.406813498320
    C            0.051127793796    -1.019680402818    -0.388323498320
    C            1.043287793796     0.054037597182    -0.002264498320
    H           -0.018096206204    -1.042175402818    -1.470172498320
    H            0.437421793796    -1.967198402818    -0.042675498320
    F            2.212119793796    -0.200291402818    -0.572312498320
    F            0.652052793796     1.251622597182    -0.405446498320
    F            1.230400793796     0.109869597182     1.300141501680

  Mulliken Charges: (a.u.)
   Center  Symbol    Alpha    Beta     Spin     Total
       1     H     0.40708  0.40708  0.00000  0.18584
       2     C     3.23559  3.23559  0.00000 -0.47119
       3     C     2.89527  2.89527  0.00000  0.20947
       4     H     0.40180  0.40180  0.00000  0.19640
       5     O     4.30164  4.30164  0.00000 -0.60327
       6     H     0.40684  0.40684  0.00000  0.18632
       7     C     3.06393  3.06393  0.00000 -0.12786
       8     C     2.45564  2.45564  0.00000  1.08871
       9     H     0.40556  0.40556  0.00000  0.18888
      10     H     0.38977  0.38977  0.00000  0.22045
      11     F     4.68282  4.68282  0.00000 -0.36563
      12     F     4.67959  4.67959  0.00000 -0.35918
      13     F     4.67447  4.67447  0.00000 -0.34894

   Total alpha = 32.00000, Total beta = 32.00000, Total charge =  0.00000
