  ==> Input File <==

--------------------------------------------------------------------------
set {
	reference rhf
	basis cc-pvtz
}

set_num_threads( 4 )
memory 2 gb

molecule MOL {
0 1

H	 -3.294565	 0.569785	 0.000000
C	 -2.246225	 0.343737	 0.000000
C	 -1.809462	 -0.973484	 0.000000
C	 -1.312577	 1.353775	 0.000000
H	 -2.523539	 -1.775124	 0.000000
C	 -0.467257	 -1.267606	 0.000000
H	 -1.631287	 2.379013	 0.000000
C	 0.046966	 1.074396	 0.000000
H	 -0.119372	 -2.281828	 0.000000
C	 0.471772	 -0.241514	 0.000000
H	 0.748162	 1.882966	 0.000000
O	 1.760432	 -0.625184	 0.000000
C	 2.255979	 -1.403573	 -1.047236
H	 1.740924	 -2.355424	 -1.113606
H	 3.297004	 -1.581634	 -0.828309
H	 2.177906	 -0.887701	 -1.997756

	symmetry c1
}
set optking {
	frozen_dihedral = ("
		13 12 10 8
	")
}

ee = optimize('scf')
oeprop('DIPOLE', 'QUADRUPOLE', 'MULLIKEN_CHARGES')
f=open( 'psi4out.xyz', 'w' )
f.write( "16  " )
f.write( str(ee) + "\n" )
f.write( MOL.save_string_xyz() )
f.close()
--------------------------------------------------------------------------

    Molecular point group: c1
  Charge       = 0
  Multiplicity = 1
  Basis Set: CC-PVTZ
  Basis Set:
  @DF-RHF Final Energy:  -344.69719167337712
    Total Energy =                       -344.6971916733770058
    Molecular point group: c1
  Basis Set: CC-PVTZ
  Basis Set:
  Basis Set: CC-PVTZ
  Basis Set:
  @DF-RHF Final Energy:  -344.70045984203790
    Total Energy =                       -344.7004598420373895
  Basis Set: CC-PVTZ
  Basis Set:
  Basis Set: CC-PVTZ
  Basis Set:
  @DF-RHF Final Energy:  -344.70092790046959
    Total Energy =                       -344.7009279004699351
  Basis Set: CC-PVTZ
  Basis Set:
  Basis Set: CC-PVTZ
  Basis Set:
  @DF-RHF Final Energy:  -344.70098363883272
    Total Energy =                       -344.7009836388331223
  Basis Set: CC-PVTZ
  Basis Set:
  Basis Set: CC-PVTZ
  Basis Set:
  @DF-RHF Final Energy:  -344.70099226062769
    Total Energy =                       -344.7009922606271175
  Basis Set: CC-PVTZ
  Basis Set:
  Charge       = 0
  Multiplicity = 1
  Basis Set: CC-PVTZ
  Basis Set:

    Orbital Energies (a.u.)
    -----------------------

    Doubly Occupied:

       1A    -20.568952     2A    -11.287222     3A    -11.274910
       4A    -11.232230     5A    -11.231200     6A    -11.224659
       7A    -11.222670     8A    -11.221859     9A     -1.407158
      10A     -1.152666    11A     -1.022223    12A     -1.018556
      13A     -0.937231    14A     -0.838078    15A     -0.809918
      16A     -0.719868    17A     -0.669583    18A     -0.667242
      19A     -0.643740    20A     -0.616605    21A     -0.597902
      22A     -0.586718    23A     -0.532462    24A     -0.512453
      25A     -0.508813    26A     -0.487416    27A     -0.445527
      28A     -0.340244    29A     -0.322077

  @DF-RHF Final Energy:  -344.70099341333014

   => Energetics <=

    Nuclear Repulsion Energy =            348.6495986273386052
    One-Electron Energy =               -1158.5008243364150076
    Two-Electron Energy =                 465.1502322957462638
    DFT Exchange-Correlation Energy =       0.0000000000000000
    Empirical Dispersion Energy =           0.0000000000000000
    PCM Polarization Energy =               0.0000000000000000
    EFP Energy =                            0.0000000000000000
    Total Energy =                       -344.7009934133301385
    Molecular point group: c1
  Basis Set: CC-PVTZ
  Basis Set:

  -Total Gradient:
     Atom            X                  Y                   Z
    ------   -----------------  -----------------  -----------------
       1       -0.000007902258    -0.000029020955    -0.000010194702
       2        0.000038424881     0.000086750409    -0.000041833915
       3        0.000033118393    -0.000061748876     0.000059273738
       4       -0.000046672517    -0.000045074617     0.000048769039
       5       -0.000030862119     0.000010978932    -0.000006613174
       6       -0.000011690129    -0.000092093237    -0.000032655866
       7        0.000016263964    -0.000003977207    -0.000005989830
       8        0.000037511473    -0.000053045425    -0.000085415220
       9       -0.000011136535     0.000026548102    -0.000004697049
      10       -0.000143192908     0.000237662522     0.000083978240
      11        0.000016328660    -0.000008056956    -0.000003663265
      12        0.000100504114    -0.000115262358     0.000062822988
      13        0.000011840161     0.000024566623    -0.000126484661
      14       -0.000007712767     0.000013084571     0.000027278947
      15        0.000003268300     0.000009451129     0.000013227386
      16        0.000001909292    -0.000000762658     0.000022197345

  **** Optimization is complete! (in 6 steps) ****
    Final optimized geometry and variables:
    Molecular point group: c1

    Geometry (in Angstrom), charge = 0, multiplicity = 1:

    H           -3.207636478465     0.880727288298     0.154392032474
    C           -2.166896711027     0.620668514203     0.149816698193
    C           -1.780090301451    -0.706218778340     0.158801117530
    C           -1.200154608541     1.607926291022     0.141801189881
    H           -2.522793139221    -1.481147344688     0.174888157796
    C           -0.441569659372    -1.048713120883     0.157766058587
    H           -1.488183270437     2.641992414533     0.139350223389
    C            0.140845364168     1.275129457368     0.133077651194
    H           -0.147115768715    -2.079498846160     0.185268171943
    C            0.520742919830    -0.053872909823     0.139783772821
    H            0.900757724261     2.031845507935     0.129565556457
    O            1.846068325784    -0.342457787672     0.177170190354
    C            2.372643762057    -1.084585405512    -0.889789706420
    H            1.959861122150    -2.085417471365    -0.928307346747
    H            3.437499230010    -1.151934936463    -0.726909214006
    H            2.184913210743    -0.588655956013    -1.835963070050

  Mulliken Charges: (a.u.)
   Center  Symbol    Alpha    Beta     Spin     Total
       1     H     0.42369  0.42369  0.00000  0.15262
       2     C     3.09038  3.09038  0.00000 -0.18075
       3     C     3.06691  3.06691  0.00000 -0.13382
       4     C     3.06387  3.06387  0.00000 -0.12773
       5     H     0.42244  0.42244  0.00000  0.15513
       6     C     3.11832  3.11832  0.00000 -0.23663
       7     H     0.42224  0.42224  0.00000  0.15551
       8     C     3.11267  3.11267  0.00000 -0.22534
       9     H     0.42189  0.42189  0.00000  0.15622
      10     C     2.85481  2.85481  0.00000  0.29037
      11     H     0.41782  0.41782  0.00000  0.16437
      12     O     4.17550  4.17550  0.00000 -0.35101
      13     C     3.03520  3.03520  0.00000 -0.07040
      14     H     0.46500  0.46500  0.00000  0.07001
      15     H     0.44416  0.44416  0.00000  0.11169
      16     H     0.46512  0.46512  0.00000  0.06977

   Total alpha = 29.00000, Total beta = 29.00000, Total charge =  0.00000
