                              Psi4 1.0.54 Driver

  ==> Input File <==

--------------------------------------------------------------------------
set {
	reference rhf
	basis cc-pvtz
}

set_num_threads( 4 )
memory 2 gb

molecule MOL {
0 1

H	 1.951532	 1.167921	 -2.499158
C	 1.782550	 0.793532	 -1.495135
C	 0.305381	 0.486335	 -1.289942
H	 2.111074	 1.545051	 -0.787878
H	 2.405977	 -0.082144	 -1.363746
N	 0.000297	 0.000045	 0.046090
H	 -0.252170	 1.397522	 -1.457251
H	 -0.036113	 -0.220987	 -2.050868
C	 -1.359159	 0.315706	 0.454404
C	 0.314976	 -1.410300	 0.208657
C	 -2.416729	 -0.286720	 -0.460525
H	 -1.478729	 1.390261	 0.442008
H	 -1.539692	 0.003361	 1.486761
C	 0.656949	 -1.788219	 1.643463
H	 1.169346	 -1.643528	 -0.411599
H	 -0.503271	 -2.037772	 -0.155574
H	 -2.285276	 0.073129	 -1.473515
H	 -2.371743	 -1.368476	 -0.483209
H	 -3.408658	 -0.007405	 -0.121593
H	 1.511495	 -1.218881	 1.987722
H	 -0.164125	 -1.600360	 2.324142
H	 0.898546	 -2.843960	 1.705545

	symmetry c1
}
set optking {
	frozen_dihedral = ("
		3 6 9 11
	")
}

ee,wfn = optimize('scf', return_wfn=True)
oeprop( wfn, 'DIPOLE', 'QUADRUPOLE', 'MULLIKEN_CHARGES')
f=open( 'psi4out.xyz', 'w' )
f.write( "22  " )
f.write( str(ee) + "\n" )
f.write( MOL.save_string_xyz() )
f.close()
--------------------------------------------------------------------------

    Molecular point group: c1
  Charge       = 0
  Multiplicity = 1
  Basis Set: CC-PVTZ
  Basis Set:
  @DF-RHF Final Energy:  -290.47207014338971
    Total Energy =                       -290.4720701433897148
    Molecular point group: c1
  Basis Set: CC-PVTZ
  Basis Set:
  Basis Set: CC-PVTZ
  Basis Set:
  @DF-RHF Final Energy:  -290.47279107090571
    Total Energy =                       -290.4727910709056005
  Basis Set: CC-PVTZ
  Basis Set:
  Basis Set: CC-PVTZ
  Basis Set:
  @DF-RHF Final Energy:  -290.47467707563885
    Total Energy =                       -290.4746770756386240
  Basis Set: CC-PVTZ
  Basis Set:
  Basis Set: CC-PVTZ
  Basis Set:
  @DF-RHF Final Energy:  -290.47478304866615
    Total Energy =                       -290.4747830486666658
  Basis Set: CC-PVTZ
  Basis Set:
  @DF-RHF Final Energy:  -290.47479729152008
    Total Energy =                       -290.4747972915200762
  Basis Set: CC-PVTZ
  Basis Set:
  @DF-RHF Final Energy:  -290.47480516009853
    Total Energy =                       -290.4748051600984695
  Basis Set: CC-PVTZ
  Basis Set:
  Basis Set: CC-PVTZ
  Basis Set:
  @DF-RHF Final Energy:  -290.47481031443800
    Total Energy =                       -290.4748103144380593
  Basis Set: CC-PVTZ
  Basis Set:
  Basis Set: CC-PVTZ
  Basis Set:
  @DF-RHF Final Energy:  -290.47481240344825
    Total Energy =                       -290.4748124034484249
  Basis Set: CC-PVTZ
  Basis Set:
  Charge       = 0
  Multiplicity = 1
  Basis Set: CC-PVTZ
  Basis Set:

    Orbital Energies (a.u.)
    -----------------------

    Doubly Occupied:

       1A    -15.531044     2A    -11.238480     3A    -11.237800
       4A    -11.237413     5A    -11.204820     6A    -11.203512
       7A    -11.202701     8A     -1.223515     9A     -1.024376
      10A     -1.021571    11A     -0.956496    12A     -0.861548
      13A     -0.844834    14A     -0.758316    15A     -0.660001
      16A     -0.644564    17A     -0.617102    18A     -0.596716
      19A     -0.572910    20A     -0.551585    21A     -0.544181
      22A     -0.519932    23A     -0.513554    24A     -0.507014
      25A     -0.494223    26A     -0.482984    27A     -0.466551
      28A     -0.460607    29A     -0.338133

  @DF-RHF Final Energy:  -290.47481726106679

   => Energetics <=

    Nuclear Repulsion Energy =            338.8391383908061130
    One-Electron Energy =               -1063.5949491255705652
    Two-Electron Energy =                 434.2809934736975492
    DFT Exchange-Correlation Energy =       0.0000000000000000
    Empirical Dispersion Energy =           0.0000000000000000
    PCM Polarization Energy =               0.0000000000000000
    EFP Energy =                            0.0000000000000000
    Total Energy =                       -290.4748172610669599
    Molecular point group: c1
  Basis Set: CC-PVTZ
  Basis Set:

  -Total Gradient:
     Atom            X                  Y                   Z
    ------   -----------------  -----------------  -----------------
       1       -0.000010804661    -0.000002666285     0.000003735401
       2        0.000007275470    -0.000018125673     0.000017215310
       3       -0.000405939779    -0.000945215291    -0.000508736301
       4       -0.000008496645    -0.000012873567    -0.000009664085
       5        0.000001055850     0.000037936605    -0.000013646888
       6        0.000770984475     0.001790306003     0.000381738453
       7        0.000006470967     0.000006024177     0.000016727668
       8       -0.000006876949    -0.000000907538    -0.000002577597
       9       -0.000429579133    -0.001690795078     0.000749304129
      10       -0.000063398266     0.000037474576    -0.000003300548
      11        0.000016537093     0.000872448933    -0.000592628953
      12        0.000013510427    -0.000028930608    -0.000018124016
      13        0.000010526664     0.000013191289    -0.000029115265
      14        0.000007435707    -0.000136126771    -0.000018934426
      15        0.000000986893    -0.000033216316     0.000046241115
      16        0.000013017770    -0.000024684101     0.000015533521
      17        0.000014660191     0.000008434036     0.000001256632
      18       -0.000009417106     0.000043780804    -0.000002098368
      19        0.000053671466    -0.000011761845    -0.000002538444
      20       -0.000007334250     0.000034022760    -0.000002041465
      21        0.000033533011     0.000027872126    -0.000017290492
      22       -0.000007819198     0.000033811764    -0.000011055382

  **** Optimization is complete! (in 9 steps) ****
    Final optimized geometry and variables:
    Molecular point group: c1

    Geometry (in Angstrom), charge = 0, multiplicity = 1:

    H            2.072308628860     1.468325346775    -2.374940449470
    C            1.901245615599     1.073673624830    -1.378905086434
    C            0.428129468128     0.729619659798    -1.196862185803
    H            2.204053959485     1.820804034772    -0.655745504935
    H            2.543723112444     0.210768839228    -1.256268569038
    N            0.117729122912     0.244967889100     0.137224187007
    H           -0.148092513504     1.631184932590    -1.366622628206
    H            0.121400676776     0.021124807068    -1.969303362333
    C           -1.221703535606     0.592365290432     0.583045861814
    C            0.482106358163    -1.147140245166     0.337612266345
    C           -2.394479001084     0.074013594894    -0.254660568966
    H           -1.279750300802     1.674779245884     0.622075128723
    H           -1.340238114595     0.252687155975     1.602812692743
    C            0.706704663797    -1.517487351823     1.798146565648
    H            1.406407097978    -1.325431429833    -0.193954872850
    H           -0.250038200484    -1.828151489339    -0.101361311733
    H           -2.357690916447     0.444349335248    -1.271991540328
    H           -2.423149735086    -1.008284093531    -0.294359183638
    H           -3.328437558192     0.409301782967     0.183092321153
    H            1.438542464701    -0.856830654929     2.246692614239
    H           -0.201570268702    -1.461265163716     2.384584539045
    H            1.073588712608    -2.535731434147     1.867726900226

  Mulliken Charges: (a.u.)
   Center  Symbol    Alpha    Beta     Spin     Total
       1     H     0.45347  0.45347  0.00000  0.09305
       2     C     3.14118  3.14118  0.00000 -0.28237
       3     C     3.04129  3.04129  0.00000 -0.08257
       4     H     0.45203  0.45203  0.00000  0.09595
       5     H     0.45646  0.45646  0.00000  0.08707
       6     N     3.61690  3.61690  0.00000 -0.23380
       7     H     0.45245  0.45245  0.00000  0.09510
       8     H     0.46297  0.46297  0.00000  0.07406
       9     C     3.05748  3.05748  0.00000 -0.11496
      10     C     3.04325  3.04325  0.00000 -0.08650
      11     C     3.15335  3.15335  0.00000 -0.30670
      12     H     0.44971  0.44971  0.00000  0.10059
      13     H     0.45025  0.45025  0.00000  0.09950
      14     C     3.14583  3.14583  0.00000 -0.29166
      15     H     0.44888  0.44888  0.00000  0.10223
      16     H     0.46409  0.46409  0.00000  0.07182
      17     H     0.45251  0.45251  0.00000  0.09499
      18     H     0.45285  0.45285  0.00000  0.09431
      19     H     0.44717  0.44717  0.00000  0.10566
      20     H     0.45022  0.45022  0.00000  0.09956
      21     H     0.45592  0.45592  0.00000  0.08816
      22     H     0.45174  0.45174  0.00000  0.09652

   Total alpha = 29.00000, Total beta = 29.00000, Total charge =  0.00000

*** Psi4 exiting successfully. Buy a developer a beer!
