                              Psi4 1.0.54 Driver

  ==> Input File <==

--------------------------------------------------------------------------
set {
	reference rhf
	basis cc-pvtz
}

set_num_threads( 4 )
memory 2 gb

molecule MOL {
0 1

O	 0.074770	 1.259872	 0.000487
C	 0.029490	 0.077183	 0.000078
C	 -1.232113	 -0.748027	 0.000015
O	 1.106773	 -0.690081	 -0.000204
C	 -2.501422	 0.088592	 -0.000052
H	 -1.188777	 -1.400384	 -0.865133
H	 -1.188857	 -1.400312	 0.865225
H	 -2.548170	 0.725504	 -0.873205
H	 -3.371613	 -0.556398	 -0.000040
H	 -2.548215	 0.725571	 0.873047
C	 1.077236	 -1.849798	 -0.807562
H	 0.280111	 -2.509440	 -0.498210
H	 2.032188	 -2.331099	 -0.672503
H	 0.935133	 -1.587986	 -1.845592

	symmetry c1
}
set optking {
	frozen_dihedral = ("
		11 4 2 3
	")
}

ee,wfn = optimize('scf', return_wfn=True)
oeprop( wfn, 'DIPOLE', 'QUADRUPOLE', 'MULLIKEN_CHARGES')
f=open( 'psi4out.xyz', 'w' )
f.write( "14  " )
f.write( str(ee) + "\n" )
f.write( MOL.save_string_xyz() )
f.close()
--------------------------------------------------------------------------

    Molecular point group: c1
  Charge       = 0
  Multiplicity = 1
  Basis Set: CC-PVTZ
  Basis Set:
  @DF-RHF Final Energy:  -305.96322311055133
    Total Energy =                       -305.9632231105514393
    Molecular point group: c1
  Basis Set: CC-PVTZ
  Basis Set:
  Basis Set: CC-PVTZ
  Basis Set:
  @DF-RHF Final Energy:  -305.95736891215250
    Total Energy =                       -305.9573689121523898
  Basis Set: CC-PVTZ
  Basis Set:
  Basis Set: CC-PVTZ
  Basis Set:
  @DF-RHF Final Energy:  -305.96957341755950
    Total Energy =                       -305.9695734175595589
  Basis Set: CC-PVTZ
  Basis Set:
  Basis Set: CC-PVTZ
  Basis Set:
  @DF-RHF Final Energy:  -305.96897767157964
    Total Energy =                       -305.9689776715796938
  Basis Set: CC-PVTZ
  Basis Set:
  @DF-RHF Final Energy:  -305.97071213474152
    Total Energy =                       -305.9707121347415750
  Basis Set: CC-PVTZ
  Basis Set:
  @DF-RHF Final Energy:  -305.97097410045649
    Total Energy =                       -305.9709741004564307
  Basis Set: CC-PVTZ
  Basis Set:
  Basis Set: CC-PVTZ
  Basis Set:
  @DF-RHF Final Energy:  -305.97099762937137
    Total Energy =                       -305.9709976293710270
  Basis Set: CC-PVTZ
  Basis Set:
  Basis Set: CC-PVTZ
  Basis Set:
  @DF-RHF Final Energy:  -305.97099931431308
    Total Energy =                       -305.9709993143130191
  Basis Set: CC-PVTZ
  Basis Set:
  Charge       = 0
  Multiplicity = 1
  Basis Set: CC-PVTZ
  Basis Set:

    Orbital Energies (a.u.)
    -----------------------

    Doubly Occupied:

       1A    -20.590138     2A    -20.535211     3A    -11.367189
       4A    -11.293474     5A    -11.245688     6A    -11.218984
       7A     -1.464994     8A     -1.370262     9A     -1.063815
      10A     -0.984119    11A     -0.899253    12A     -0.769047
      13A     -0.705756    14A     -0.686693    15A     -0.676390
      16A     -0.628071    17A     -0.610280    18A     -0.560866
      19A     -0.550312    20A     -0.526475    21A     -0.513524
      22A     -0.498178    23A     -0.456506    24A     -0.437551

  @DF-RHF Final Energy:  -305.97099952992619

   => Energetics <=

    Nuclear Repulsion Energy =            247.7878522626424171
    One-Electron Energy =                -908.2121539328361450
    Two-Electron Energy =                 354.4533021402676241
    DFT Exchange-Correlation Energy =       0.0000000000000000
    Empirical Dispersion Energy =           0.0000000000000000
    PCM Polarization Energy =               0.0000000000000000
    EFP Energy =                            0.0000000000000000
    Total Energy =                       -305.9709995299260754
    Molecular point group: c1
  Basis Set: CC-PVTZ
  Basis Set:

  -Total Gradient:
     Atom            X                  Y                   Z
    ------   -----------------  -----------------  -----------------
       1       -0.000012578761     0.000001420207    -0.000019822235
       2        0.000708295400     0.000503826483    -0.005535265432
       3       -0.000054002857     0.000194124686     0.002814298576
       4       -0.001811317087    -0.002191952808     0.005295489126
       5        0.000011666567     0.000010081701    -0.000012428436
       6        0.000006511253    -0.000003291172    -0.000027151733
       7       -0.000001735135     0.000009331712    -0.000008914814
       8       -0.000001723279     0.000001472835    -0.000002574979
       9       -0.000000676270    -0.000004785702     0.000000683397
      10        0.000000460251     0.000006730604     0.000013372928
      11        0.001156911929     0.001466856536    -0.002554308684
      12       -0.000005334637    -0.000007336658     0.000005885722
      13        0.000024447720    -0.000001075774     0.000029308573
      14       -0.000020925094     0.000014597349     0.000001427991

  **** Optimization is complete! (in 9 steps) ****
    Final optimized geometry and variables:
    Molecular point group: c1

    Geometry (in Angstrom), charge = 0, multiplicity = 1:

    O            0.299611215659     1.538762385127     0.057155310245
    C            0.221455521124     0.364107337336     0.064999325311
    C           -1.091660524356    -0.387465390960     0.103394844520
    O            1.336039167062    -0.371024972604     0.144318508098
    C           -2.298241981595     0.533613734945     0.197582373955
    H           -1.164268580826    -1.013453621628    -0.779684027691
    H           -1.050483585122    -1.065056150883     0.949898685406
    H           -2.345079346625     1.199057489077    -0.653327561457
    H           -3.209457126497    -0.051390168308     0.227858756488
    H           -2.251731324815     1.143953620590     1.088925260650
    C            1.450627669526    -1.600885185103    -0.528230058092
    H            0.806000467768    -2.358826915468    -0.102250562067
    H            2.476658338412    -1.910288256024    -0.413606147797
    H            1.233182918498    -1.490897481334    -1.583425308414

  Mulliken Charges: (a.u.)
   Center  Symbol    Alpha    Beta     Spin     Total
       1     O     4.17334  4.17334  0.00000 -0.34667
       2     C     2.80534  2.80534  0.00000  0.38933
       3     C     3.11951  3.11951  0.00000 -0.23903
       4     O     4.13825  4.13825  0.00000 -0.27650
       5     C     3.13916  3.13916  0.00000 -0.27833
       6     H     0.44466  0.44466  0.00000  0.11069
       7     H     0.43748  0.43748  0.00000  0.12505
       8     H     0.44623  0.44623  0.00000  0.10755
       9     H     0.45130  0.45130  0.00000  0.09741
      10     H     0.44548  0.44548  0.00000  0.10904
      11     C     3.04599  3.04599  0.00000 -0.09198
      12     H     0.46051  0.46051  0.00000  0.07897
      13     H     0.43489  0.43489  0.00000  0.13022
      14     H     0.45787  0.45787  0.00000  0.08426

   Total alpha = 24.00000, Total beta = 24.00000, Total charge = -0.00000

*** Psi4 exiting successfully. Buy a developer a beer!
