                              Psi4 1.0.54 Driver

  ==> Input File <==

--------------------------------------------------------------------------
set {
	reference rhf
	basis cc-pvtz
}

set_num_threads( 4 )
memory 2 gb

molecule MOL {
0 1

O	 -0.694481	 1.313155	 -0.204815
C	 -0.862519	 0.151932	 -0.046791
C	 -2.171428	 -0.477048	 0.339095
O	 0.085519	 -0.757083	 -0.192238
H	 -2.467997	 -1.191667	 -0.417688
H	 -2.923379	 0.287970	 0.444097
H	 -2.053854	 -1.015120	 1.270901
C	 1.431834	 -0.323526	 -0.346979
C	 2.098664	 -0.079091	 0.990738
H	 1.451102	 0.564570	 -0.959131
H	 1.918798	 -1.127503	 -0.878240
H	 3.138880	 0.184046	 0.835293
H	 1.618267	 0.732711	 1.519489
H	 2.061136	 -0.970293	 1.605509

	symmetry c1
}
set optking {
	frozen_dihedral = ("
		8 4 2 1
	")
}

ee,wfn = optimize('scf', return_wfn=True)
oeprop( wfn, 'DIPOLE', 'QUADRUPOLE', 'MULLIKEN_CHARGES')
f=open( 'psi4out.xyz', 'w' )
f.write( "14  " )
f.write( str(ee) + "\n" )
f.write( MOL.save_string_xyz() )
f.close()
--------------------------------------------------------------------------

    Molecular point group: c1
  Charge       = 0
  Multiplicity = 1
  Basis Set: CC-PVTZ
  Basis Set:
  @DF-RHF Final Energy:  -305.99056848250905
    Total Energy =                       -305.9905684825088201
    Molecular point group: c1
  Basis Set: CC-PVTZ
  Basis Set:
  Basis Set: CC-PVTZ
  Basis Set:
  @DF-RHF Final Energy:  -305.98028490643674
    Total Energy =                       -305.9802849064366796
  Basis Set: CC-PVTZ
  Basis Set:
  Basis Set: CC-PVTZ
  Basis Set:
  @DF-RHF Final Energy:  -305.98976748859275
    Total Energy =                       -305.9897674885927472
  Basis Set: CC-PVTZ
  Basis Set:
  Basis Set: CC-PVTZ
  Basis Set:
  @DF-RHF Final Energy:  -305.99064697410608
    Total Energy =                       -305.9906469741060846
  Basis Set: CC-PVTZ
  Basis Set:
  Basis Set: CC-PVTZ
  Basis Set:
  @DF-RHF Final Energy:  -305.99065693865714
    Total Energy =                       -305.9906569386571391
  Basis Set: CC-PVTZ
  Basis Set:
  Basis Set: CC-PVTZ
  Basis Set:
  @DF-RHF Final Energy:  -305.99066579540818
    Total Energy =                       -305.9906657954082903
  Basis Set: CC-PVTZ
  Basis Set:
  Basis Set: CC-PVTZ
  Basis Set:
  @DF-RHF Final Energy:  -305.99067000462173
    Total Energy =                       -305.9906700046215065
  Basis Set: CC-PVTZ
  Basis Set:
  Charge       = 0
  Multiplicity = 1
  Basis Set: CC-PVTZ
  Basis Set:

    Orbital Energies (a.u.)
    -----------------------

    Doubly Occupied:

       1A    -20.593831     2A    -20.533319     3A    -11.368049
       4A    -11.283160     5A    -11.231640     6A    -11.218380
       7A     -1.470141     8A     -1.365873     9A     -1.055956
      10A     -1.000203    11A     -0.884449    12A     -0.765880
      13A     -0.701003    14A     -0.685923    15A     -0.662097
      16A     -0.612271    17A     -0.588107    18A     -0.571343
      19A     -0.559288    20A     -0.529954    21A     -0.520908
      22A     -0.494462    23A     -0.454966    24A     -0.441928

  @DF-RHF Final Energy:  -305.99067074346965

   => Energetics <=

    Nuclear Repulsion Energy =            249.3435809834150803
    One-Electron Energy =                -911.4822416300423811
    Two-Electron Energy =                 356.1479899031578498
    DFT Exchange-Correlation Energy =       0.0000000000000000
    Empirical Dispersion Energy =           0.0000000000000000
    PCM Polarization Energy =               0.0000000000000000
    EFP Energy =                            0.0000000000000000
    Total Energy =                       -305.9906707434694226
    Molecular point group: c1
  Basis Set: CC-PVTZ
  Basis Set:

  -Total Gradient:
     Atom            X                  Y                   Z
    ------   -----------------  -----------------  -----------------
       1       -0.000867331673     0.000503666884    -0.002918129962
       2        0.001521371866    -0.001121346833     0.005537272373
       3        0.000021924970     0.000002776037     0.000088960020
       4       -0.001074126605     0.001316441790    -0.004904329734
       5       -0.000006028202     0.000013186767    -0.000036190915
       6       -0.000007280143     0.000002374641    -0.000010981872
       7        0.000000676614    -0.000023111272    -0.000026724279
       8        0.000403367123    -0.000724484546     0.002284223551
       9       -0.000020041511     0.000023436871    -0.000000314436
      10        0.000016316804     0.000009356172    -0.000007454308
      11        0.000006815692     0.000001846181     0.000002316385
      12       -0.000001282695     0.000000572129     0.000004970656
      13        0.000003955610     0.000000606336    -0.000010861749
      14        0.000001662149    -0.000005321157    -0.000002755729

  **** Optimization is complete! (in 8 steps) ****
    Final optimized geometry and variables:
    Molecular point group: c1

    Geometry (in Angstrom), charge = 0, multiplicity = 1:

    O           -0.656378461753     1.363582214788     0.121766878695
    C           -0.846658222041     0.205512835136    -0.032153878370
    C           -2.157214432322    -0.485267641222     0.217485837520
    O            0.067566965817    -0.639489576489    -0.478615011908
    H           -2.474751295560    -0.999683382258    -0.680005894064
    H           -2.897648562176     0.239094915916     0.515417704641
    H           -2.030319034205    -1.228421708838     0.994514983688
    C            1.413655270791    -0.193559511215    -0.592474202548
    C            2.135057259034    -0.252715083205     0.738024779111
    H            1.425648565317     0.805738744956    -0.998522131863
    H            1.865463641488    -0.866812025937    -1.305254486251
    H            3.172551572325     0.030226668904     0.601280842704
    H            1.690391050213     0.428742932729     1.450816778557
    H            2.106214735908    -1.256054085222     1.145429367816

  Mulliken Charges: (a.u.)
   Center  Symbol    Alpha    Beta     Spin     Total
       1     O     4.19838  4.19838  0.00000 -0.39675
       2     C     2.80110  2.80110  0.00000  0.39780
       3     C     3.13827  3.13827  0.00000 -0.27654
       4     O     4.15846  4.15846  0.00000 -0.31692
       5     H     0.44501  0.44501  0.00000  0.10998
       6     H     0.43828  0.43828  0.00000  0.12343
       7     H     0.44696  0.44696  0.00000  0.10608
       8     C     2.98588  2.98588  0.00000  0.02825
       9     C     3.14951  3.14951  0.00000 -0.29902
      10     H     0.44750  0.44750  0.00000  0.10499
      11     H     0.44469  0.44469  0.00000  0.11062
      12     H     0.45075  0.45075  0.00000  0.09851
      13     H     0.44327  0.44327  0.00000  0.11346
      14     H     0.45194  0.45194  0.00000  0.09612

   Total alpha = 24.00000, Total beta = 24.00000, Total charge = -0.00000

*** Psi4 exiting successfully. Buy a developer a beer!
