                              Psi4 1.0.54 Driver

  ==> Input File <==

--------------------------------------------------------------------------
set {
	reference rhf
	basis cc-pvtz
}

set_num_threads( 4 )
memory 2 gb

molecule MOL {
0 1

H	 -3.298684	 0.481289	 -0.246797
C	 -2.599459	 0.065603	 -0.968721
O	 -1.401606	 -0.295183	 -0.366624
H	 -3.033700	 -0.824263	 -1.400533
H	 -2.445258	 0.798040	 -1.759064
C	 -0.718530	 0.758693	 0.228682
C	 0.718529	 0.758687	 -0.228709
H	 -1.176498	 1.708665	 -0.046615
H	 -0.748705	 0.673525	 1.312779
O	 1.401606	 -0.295166	 0.366636
H	 0.748705	 0.673477	 -1.312803
H	 1.176496	 1.708671	 0.046552
C	 2.714315	 -0.441627	 -0.061017
H	 2.765292	 -0.641548	 -1.128869
H	 3.305661	 0.447341	 0.150952
H	 3.143725	 -1.278506	 0.470147

	symmetry c1
}
set optking {
	frozen_dihedral = ("
		2 3 6 7
	")
}

ee,wfn = optimize('scf', return_wfn=True)
oeprop( wfn, 'DIPOLE', 'QUADRUPOLE', 'MULLIKEN_CHARGES')
f=open( 'psi4out.xyz', 'w' )
f.write( "16  " )
f.write( str(ee) + "\n" )
f.write( MOL.save_string_xyz() )
f.close()
--------------------------------------------------------------------------

    Molecular point group: c1
  Charge       = 0
  Multiplicity = 1
  Basis Set: CC-PVTZ
  Basis Set:
  @DF-RHF Final Energy:  -307.09362794784886
    Total Energy =                       -307.0936279478486313
    Molecular point group: c1
  Basis Set: CC-PVTZ
  Basis Set:
  Basis Set: CC-PVTZ
  Basis Set:
  @DF-RHF Final Energy:  -306.98329082267873
    Total Energy =                       -306.9832908226787822
  Basis Set: CC-PVTZ
  Basis Set:
  Basis Set: CC-PVTZ
  Basis Set:
  @DF-RHF Final Energy:  -307.07334202303753
    Total Energy =                       -307.0733420230372985
  Basis Set: CC-PVTZ
  Basis Set:
  Basis Set: CC-PVTZ
  Basis Set:
  @DF-RHF Final Energy:  -307.09377511688808
    Total Energy =                       -307.0937751168882528
  Basis Set: CC-PVTZ
  Basis Set:
  Basis Set: CC-PVTZ
  Basis Set:
  @DF-RHF Final Energy:  -307.09397610781224
    Total Energy =                       -307.0939761078124661
  Basis Set: CC-PVTZ
  Basis Set:
  Basis Set: CC-PVTZ
  Basis Set:
  @DF-RHF Final Energy:  -307.09401856542939
    Total Energy =                       -307.0940185654293373
  Basis Set: CC-PVTZ
  Basis Set:
  Charge       = 0
  Multiplicity = 1
  Basis Set: CC-PVTZ
  Basis Set:

    Orbital Energies (a.u.)
    -----------------------

    Doubly Occupied:

       1A    -20.547666     2A    -20.545211     3A    -11.267607
       4A    -11.266937     5A    -11.263512     6A    -11.261563
       7A     -1.389871     8A     -1.372508     9A     -1.031114
      10A     -0.938614    11A     -0.895371    12A     -0.822056
      13A     -0.687749    14A     -0.678614    15A     -0.659569
      16A     -0.640404    17A     -0.625730    18A     -0.603315
      19A     -0.558529    20A     -0.528489    21A     -0.510191
      22A     -0.478205    23A     -0.472509    24A     -0.419335
      25A     -0.410200

  @DF-RHF Final Energy:  -307.09402089500429

   => Energetics <=

    Nuclear Repulsion Energy =            258.7105297316302313
    One-Electron Energy =                -931.8593636104517373
    Two-Electron Energy =                 366.0548129838169871
    DFT Exchange-Correlation Energy =       0.0000000000000000
    Empirical Dispersion Energy =           0.0000000000000000
    PCM Polarization Energy =               0.0000000000000000
    EFP Energy =                            0.0000000000000000
    Total Energy =                       -307.0940208950045189
    Molecular point group: c1
  Basis Set: CC-PVTZ
  Basis Set:

  -Total Gradient:
     Atom            X                  Y                   Z
    ------   -----------------  -----------------  -----------------
       1        0.000010297145    -0.000013290270     0.000013882825
       2        0.000598048498    -0.000061526556    -0.001197781354
       3       -0.000876292984     0.000328596038     0.001297006988
       4        0.000013922418    -0.000023536970     0.000022551069
       5       -0.000043810250     0.000001490894    -0.000041682170
       6        0.000775903629    -0.000380371768     0.000941355075
       7       -0.000456877682     0.000145441642    -0.001076805813
       8       -0.000037178270     0.000004313079    -0.000012480750
       9       -0.000021455457    -0.000007761646     0.000035578922
      10        0.000057337585     0.000011916936     0.000027419901
      11       -0.000002344559     0.000008218848    -0.000069465020
      12       -0.000036452276     0.000011768751     0.000020024981
      13        0.000014794461    -0.000033022762     0.000058535832
      14       -0.000019368932    -0.000003670966    -0.000020951846
      15       -0.000008168776     0.000020921132    -0.000002295103
      16        0.000031645450    -0.000009486382     0.000005106463

  **** Optimization is complete! (in 7 steps) ****
    Final optimized geometry and variables:
    Molecular point group: c1

    Geometry (in Angstrom), charge = 0, multiplicity = 1:

    H           -3.365795514285    -0.035890151786     0.059870877147
    C           -2.631524271792    -0.610563656286    -0.500463801317
    O           -1.376020700002    -0.561729798144     0.092366663917
    H           -2.944923094201    -1.644416085273    -0.517851167335
    H           -2.609075793689    -0.237025070697    -1.522004160247
    C           -0.797608474144     0.704377811667     0.193160867889
    C            0.617029570934     0.698605713205    -0.336423233258
    H           -1.367834164902     1.433825712034    -0.376583270072
    H           -0.793595625948     1.020916159947     1.231262337337
    O            1.437017404850    -0.026185787269     0.519103616000
    H            0.626105081033     0.265890593517    -1.335366304690
    H            0.969086774262     1.728161033630    -0.413659122550
    C            2.745648672168    -0.167843195542     0.078032223734
    H            2.790921129076    -0.698673320343    -0.870320443322
    H            3.232796957102     0.797836116776    -0.045051836741
    H            3.285514661908    -0.736705453233     0.820846881278

  Mulliken Charges: (a.u.)
   Center  Symbol    Alpha    Beta     Spin     Total
       1     H     0.47026  0.47026  0.00000  0.05947
       2     C     3.02976  3.02976  0.00000 -0.05952
       3     O     4.17448  4.17448  0.00000 -0.34896
       4     H     0.44858  0.44858  0.00000  0.10284
       5     H     0.47400  0.47400  0.00000  0.05200
       6     C     2.96663  2.96663  0.00000  0.06674
       7     C     2.95818  2.95818  0.00000  0.08364
       8     H     0.47526  0.47526  0.00000  0.04948
       9     H     0.45896  0.45896  0.00000  0.08208
      10     O     4.16871  4.16871  0.00000 -0.33742
      11     H     0.47496  0.47496  0.00000  0.05007
      12     H     0.47775  0.47775  0.00000  0.04451
      13     C     3.03173  3.03173  0.00000 -0.06346
      14     H     0.47092  0.47092  0.00000  0.05816
      15     H     0.47368  0.47368  0.00000  0.05265
      16     H     0.44614  0.44614  0.00000  0.10772

   Total alpha = 25.00000, Total beta = 25.00000, Total charge = -0.00000

*** Psi4 exiting successfully. Buy a developer a beer!
