  ==> Input File <==

--------------------------------------------------------------------------
set {
	reference rhf
	basis 6-31G*
}

set_num_threads( 4 )
memory 2 gb

molecule MOL {
0 1

O	 -1.276010	 1.052711	 -0.768302
C	 -1.204840	 0.067374	 -0.106123
C	 -2.388195	 -0.672128	 0.458071
O	 -0.067104	 -0.527208	 0.221609
H	 -2.388023	 -1.694060	 0.097175
H	 -3.300579	 -0.174919	 0.164318
H	 -2.315377	 -0.706351	 1.539059
C	 0.976840	 -0.621657	 -0.757772
C	 1.812978	 -1.825450	 -0.361104
C	 1.773344	 0.673496	 -0.786170
H	 0.515064	 -0.787754	 -1.719896
H	 1.205209	 -2.722843	 -0.337651
H	 2.616418	 -1.974094	 -1.075051
H	 2.249313	 -1.682230	 0.621624
H	 2.579431	 0.600024	 -1.509248
H	 1.141910	 1.506463	 -1.068009
H	 2.205943	 0.874010	 0.188848

	symmetry c1
}
set optking {
	frozen_dihedral = ("
		8 4 2 1
	")
}

ee = optimize('scf')
oeprop('DIPOLE', 'QUADRUPOLE', 'MULLIKEN_CHARGES')
f=open( 'psi4out.xyz', 'w' )
f.write( "17  " )
f.write( str(ee) + "\n" )
f.write( MOL.save_string_xyz() )
f.close()
--------------------------------------------------------------------------

    Molecular point group: c1
  Charge       = 0
  Multiplicity = 1
  Basis Set: 6-31G*
  Basis Set:
  @DF-RHF Final Energy:  -344.90593416151529
    Total Energy =                       -344.9059341615152334
    Molecular point group: c1
  Basis Set: 6-31G*
  Basis Set:
  Basis Set: 6-31G*
  Basis Set:
  @DF-RHF Final Energy:  -344.90429987182205
    Total Energy =                       -344.9042998718222179
  Basis Set: 6-31G*
  Basis Set:
  Basis Set: 6-31G*
  Basis Set:
  @DF-RHF Final Energy:  -344.90715872197495
    Total Energy =                       -344.9071587219746107
  Basis Set: 6-31G*
  Basis Set:
  Basis Set: 6-31G*
  Basis Set:
  @DF-RHF Final Energy:  -344.90732310880963
    Total Energy =                       -344.9073231088095781
  Basis Set: 6-31G*
  Basis Set:
  Basis Set: 6-31G*
  Basis Set:
  @DF-RHF Final Energy:  -344.90738299599752
    Total Energy =                       -344.9073829959976365
  Basis Set: 6-31G*
  Basis Set:
  Basis Set: 6-31G*
  Basis Set:
  @DF-RHF Final Energy:  -344.90739563951308
    Total Energy =                       -344.9073956395133109
  Basis Set: 6-31G*
  Basis Set:
  Basis Set: 6-31G*
  Basis Set:
  @DF-RHF Final Energy:  -344.90739746403233
    Total Energy =                       -344.9073974640322717
  Basis Set: 6-31G*
  Basis Set:
  Charge       = 0
  Multiplicity = 1
  Basis Set: 6-31G*
  Basis Set:

    Orbital Energies (a.u.)
    -----------------------

    Doubly Occupied:

       1A    -20.591721     2A    -20.547248     3A    -11.375571
       4A    -11.294518     5A    -11.233282     6A    -11.221310
       7A    -11.212987     8A     -1.461530     9A     -1.362239
      10A     -1.076989    11A     -1.006171    12A     -0.947342
      13A     -0.845922    14A     -0.769985    15A     -0.691506
      16A     -0.670834    17A     -0.653267    18A     -0.609898
      19A     -0.588265    20A     -0.580569    21A     -0.564096
      22A     -0.550378    23A     -0.544444    24A     -0.515024
      25A     -0.497381    26A     -0.486674    27A     -0.443439
      28A     -0.436845

  @DF-RHF Final Energy:  -344.90739776810022

   => Energetics <=

    Nuclear Repulsion Energy =            322.0922569292718549
    One-Electron Energy =               -1108.4404394660341495
    Two-Electron Energy =                 441.4407847686625246
    DFT Exchange-Correlation Energy =       0.0000000000000000
    Empirical Dispersion Energy =           0.0000000000000000
    PCM Polarization Energy =               0.0000000000000000
    EFP Energy =                            0.0000000000000000
    Total Energy =                       -344.9073977680998269
    Molecular point group: c1
  Basis Set: 6-31G*
  Basis Set:

  -Total Gradient:
     Atom            X                  Y                   Z
    ------   -----------------  -----------------  -----------------
       1       -0.000238259094     0.006729641803     0.007090850460
       2       -0.000700968515    -0.013798450158    -0.011212603933
       3       -0.000003361136    -0.000069789881    -0.000034431053
       4        0.002951627996     0.014444504783     0.005384495903
       5        0.000001266778     0.000001314578     0.000018574917
       6        0.000013652919     0.000007292293     0.000001382273
       7       -0.000003172215     0.000014154255     0.000011457223
       8       -0.002020147440    -0.007336411334    -0.001286758422
       9       -0.000008337371     0.000004422679     0.000004768493
      10        0.000006400593     0.000018531212     0.000010434277
      11       -0.000009660046    -0.000007772242    -0.000008334123
      12        0.000002031255    -0.000004272990     0.000001975542
      13       -0.000006948197     0.000001249531     0.000002387259
      14        0.000005337599    -0.000003007289     0.000004130263
      15       -0.000004189349    -0.000006223411     0.000003030477
      16        0.000007446548    -0.000002018254     0.000005267594
      17        0.000007279674     0.000006834423     0.000003372849

  **** Optimization is complete! (in 8 steps) ****
    Final optimized geometry and variables:
    Molecular point group: c1

    Geometry (in Angstrom), charge = 0, multiplicity = 1:

    O           -1.346900799851     1.113730121412    -0.699214108425
    C           -1.193064984514     0.261787502825     0.113285285167
    C           -2.308695814480    -0.415210022049     0.862406028716
    O            0.003331358951    -0.140828283561     0.540278984342
    H           -2.301265838097    -1.477574816796     0.644031739776
    H           -3.257503706445     0.014046330192     0.576721641447
    H           -2.152054268534    -0.301185100160     1.928776447216
    C            1.071012598342    -0.269078508045    -0.411765611426
    C            1.826917098733    -1.532490783183    -0.040074478852
    C            1.938146929125     0.979042952748    -0.379216605687
    H            0.628665071668    -0.373487664208    -1.393925311746
    H            1.171971169853    -2.396028296525    -0.069828174157
    H            2.644936677335    -1.697838268090    -0.733658423735
    H            2.236535811971    -1.449408741819     0.960703762571
    H            2.758414182079     0.887717243562    -1.084584862340
    H            1.352446296814     1.850552385607    -0.640859425136
    H            2.353806670261     1.123004596816     0.612898744400

  Mulliken Charges: (a.u.)
   Center  Symbol    Alpha    Beta     Spin     Total
       1     O     4.27500  4.27500  0.00000 -0.54999
       2     C     2.62112  2.62112  0.00000  0.75775
       3     C     3.28212  3.28212  0.00000 -0.56424
       4     O     4.31573  4.31573  0.00000 -0.63146
       5     H     0.40414  0.40414  0.00000  0.19172
       6     H     0.39781  0.39781  0.00000  0.20438
       7     H     0.39877  0.39877  0.00000  0.20245
       8     C     2.92937  2.92937  0.00000  0.14126
       9     C     3.23912  3.23912  0.00000 -0.47823
      10     C     3.24523  3.24523  0.00000 -0.49047
      11     H     0.40968  0.40968  0.00000  0.18064
      12     H     0.41497  0.41497  0.00000  0.17006
      13     H     0.41771  0.41771  0.00000  0.16458
      14     H     0.41235  0.41235  0.00000  0.17531
      15     H     0.42135  0.42135  0.00000  0.15730
      16     H     0.39899  0.39899  0.00000  0.20203
      17     H     0.41654  0.41654  0.00000  0.16692

   Total alpha = 28.00000, Total beta = 28.00000, Total charge = -0.00000
