  ==> Input File <==

--------------------------------------------------------------------------
set {
	reference rhf
	basis 6-31G*
}

set_num_threads( 1 )
memory 2 gb

molecule MOL {
0 1

H	 3.278464	 0.170978	 -0.056473
N	 2.434251	 -0.367735	 -0.081097
C	 1.267428	 0.496480	 0.024474
H	 2.472846	 -1.001868	 0.694338
C	 -0.016086	 -0.325158	 -0.029487
H	 1.288818	 1.183521	 -0.816092
H	 1.267576	 1.109062	 0.929528
C	 -1.282277	 0.529072	 0.046735
H	 -0.012495	 -0.908639	 -0.945788
H	 -0.015903	 -1.041248	 0.791956
C	 -2.563920	 -0.301775	 -0.006060
H	 -1.284084	 1.244622	 -0.773004
H	 -1.271387	 1.115393	 0.963286
H	 -2.621848	 -0.873522	 -0.927727
H	 -3.445135	 0.329952	 0.047812
H	 -2.609542	 -1.004582	 0.821105

	symmetry c1
}
set optking {
	frozen_dihedral = ("
		6 3 5 9,
		12 8 5 9
	")
}

ee = energy('scf')
oeprop('DIPOLE', 'QUADRUPOLE', 'MULLIKEN_CHARGES')
f=open( 'psi4out.xyz', 'w' )
f.write( "16  " )
f.write( str(ee) + "\n" )
f.write( MOL.save_string_xyz() )
f.close()
--------------------------------------------------------------------------

    Molecular point group: c1

    Geometry (in Angstrom), charge = 0, multiplicity = 1:

       Center              X                  Y                   Z               Mass
    ------------   -----------------  -----------------  -----------------  -----------------
           H          3.278834205358     0.171522413216    -0.056842161420     1.007825032070
           N          2.434621205358    -0.367190586784    -0.081466161420    14.003074004780
           C          1.267798205358     0.497024413216     0.024104838580    12.000000000000
           H          2.473216205358    -1.001323586784     0.693968838580     1.007825032070
           C         -0.015715794642    -0.324613586784    -0.029856161420    12.000000000000
           H          1.289188205358     1.184065413216    -0.816461161420     1.007825032070
           H          1.267946205358     1.109606413216     0.929158838580     1.007825032070
           C         -1.281906794642     0.529616413216     0.046365838580    12.000000000000
           H         -0.012124794642    -0.908094586784    -0.946157161420     1.007825032070
           H         -0.015532794642    -1.040703586784     0.791586838580     1.007825032070
           C         -2.563549794642    -0.301230586784    -0.006429161420    12.000000000000
           H         -1.283713794642     1.245166413216    -0.773373161420     1.007825032070
           H         -1.271016794642     1.115937413216     0.962916838580     1.007825032070
           H         -2.621477794642    -0.872977586784    -0.928096161420     1.007825032070
           H         -3.444764794642     0.330496413216     0.047442838580     1.007825032070
           H         -2.609171794642    -1.004037586784     0.820735838580     1.007825032070

  Charge       = 0
  Multiplicity = 1
  Basis Set: 6-31G*
  Basis Set:

    Orbital Energies (a.u.)
    -----------------------

    Doubly Occupied:

       1A    -15.532521     2A    -11.239853     3A    -11.215432
       4A    -11.210335     5A    -11.208181     6A     -1.176752
       7A     -1.059806     8A     -0.958840     9A     -0.843879
      10A     -0.792580    11A     -0.662959    12A     -0.638430
      13A     -0.605254    14A     -0.575274    15A     -0.565607
      16A     -0.524908    17A     -0.501245    18A     -0.470508
      19A     -0.465048    20A     -0.461530    21A     -0.381191

  @DF-RHF Final Energy:  -212.31699376811730

   => Energetics <=

    Nuclear Repulsion Energy =            186.2818630829026461
    One-Electron Energy =                -655.0174679258041124
    Two-Electron Energy =                 256.4186110747846215
    DFT Exchange-Correlation Energy =       0.0000000000000000
    Empirical Dispersion Energy =           0.0000000000000000
    PCM Polarization Energy =               0.0000000000000000
    EFP Energy =                            0.0000000000000000
    Total Energy =                       -212.3169937681168449

  Mulliken Charges: (a.u.)
   Center  Symbol    Alpha    Beta     Spin     Total
       1     H     0.33257  0.33257  0.00000  0.33485
       2     N     3.92191  3.92191  0.00000 -0.84381
       3     C     3.05938  3.05938  0.00000 -0.11876
       4     H     0.33546  0.33546  0.00000  0.32908
       5     C     3.15162  3.15162  0.00000 -0.30324
       6     H     0.42067  0.42067  0.00000  0.15865
       7     H     0.43498  0.43498  0.00000  0.13003
       8     C     3.15545  3.15545  0.00000 -0.31090
       9     H     0.41320  0.41320  0.00000  0.17361
      10     H     0.42804  0.42804  0.00000  0.14393
      11     C     3.23875  3.23875  0.00000 -0.47750
      12     H     0.42233  0.42233  0.00000  0.15535
      13     H     0.42366  0.42366  0.00000  0.15268
      14     H     0.42049  0.42049  0.00000  0.15901
      15     H     0.41953  0.41953  0.00000  0.16093
      16     H     0.42197  0.42197  0.00000  0.15607

   Total alpha = 21.00000, Total beta = 21.00000, Total charge =  0.00000
