  ==> Input File <==

--------------------------------------------------------------------------
set {
	reference rhf
	basis cc-pvtz
}

set_num_threads( 4 )
memory 2 gb

molecule MOL {
0 1

H	 1.128311	 0.207724	 1.465118
C	 1.134565	 0.093781	 0.372499
C	 0.062554	 0.862911	 -0.350953
O	 1.948932	 -0.587720	 -0.146651
C	 0.210026	 2.378516	 -0.184198
H	 -0.902906	 0.517201	 -0.004736
H	 0.152408	 0.608525	 -1.404655
C	 -0.033423	 2.858639	 1.243690
H	 -0.488729	 2.866397	 -0.853741
H	 1.201630	 2.681521	 -0.508784
H	 -1.032737	 2.599700	 1.575170
H	 0.072213	 3.934702	 1.311288
H	 0.667430	 2.414033	 1.941664

	symmetry c1
}
set optking {
	frozen_dihedral = ("
		6 3 2 4
	")
}

ee = optimize('scf')
oeprop('DIPOLE', 'QUADRUPOLE', 'MULLIKEN_CHARGES')
f=open( 'psi4out.xyz', 'w' )
f.write( "13  " )
f.write( str(ee) + "\n" )
f.write( MOL.save_string_xyz() )
f.close()
--------------------------------------------------------------------------

    Molecular point group: c1
  Charge       = 0
  Multiplicity = 1
  Basis Set: CC-PVTZ
  Basis Set:
  @DF-RHF Final Energy:  -231.06844075859993
    Total Energy =                       -231.0684407585999054
    Molecular point group: c1
  Basis Set: CC-PVTZ
  Basis Set:
  Basis Set: CC-PVTZ
  Basis Set:
  @DF-RHF Final Energy:  -231.06860928489778
    Total Energy =                       -231.0686092848977466
  Basis Set: CC-PVTZ
  Basis Set:
  Basis Set: CC-PVTZ
  Basis Set:
  @DF-RHF Final Energy:  -231.06893710319059
    Total Energy =                       -231.0689371031906489
  Basis Set: CC-PVTZ
  Basis Set:
  Basis Set: CC-PVTZ
  Basis Set:
  @DF-RHF Final Energy:  -231.06901925534893
    Total Energy =                       -231.0690192553490192
  Basis Set: CC-PVTZ
  Basis Set:
  Basis Set: CC-PVTZ
  Basis Set:
  @DF-RHF Final Energy:  -231.06902760225114
    Total Energy =                       -231.0690276022510261
  Basis Set: CC-PVTZ
  Basis Set:
  Charge       = 0
  Multiplicity = 1
  Basis Set: CC-PVTZ
  Basis Set:

    Orbital Energies (a.u.)
    -----------------------

    Doubly Occupied:

       1A    -20.551978     2A    -11.320732     3A    -11.237517
       4A    -11.234473     5A    -11.223721     6A     -1.406358
       7A     -1.086880     8A     -0.974927     9A     -0.854687
      10A     -0.783365    11A     -0.680865    12A     -0.650370
      13A     -0.605921    14A     -0.602613    15A     -0.576485
      16A     -0.533538    17A     -0.507709    18A     -0.496325
      19A     -0.484669    20A     -0.411125

  @DF-RHF Final Energy:  -231.06902828457723

   => Energetics <=

    Nuclear Repulsion Energy =            172.9146963385511810
    One-Electron Energy =                -655.5189317196825414
    Two-Electron Energy =                 251.5352070965542453
    DFT Exchange-Correlation Energy =       0.0000000000000000
    Empirical Dispersion Energy =           0.0000000000000000
    PCM Polarization Energy =               0.0000000000000000
    EFP Energy =                            0.0000000000000000
    Total Energy =                       -231.0690282845771435
    Molecular point group: c1
  Basis Set: CC-PVTZ
  Basis Set:

  -Total Gradient:
     Atom            X                  Y                   Z
    ------   -----------------  -----------------  -----------------
       1        0.000003619292    -0.000002299228    -0.000000838162
       2        0.000169554921     0.000179275429    -0.000004223066
       3       -0.000020921199     0.000043168828     0.000112953348
       4       -0.000132215834    -0.000124519531    -0.000000439899
       5       -0.000002943363     0.000033956108    -0.000006222501
       6        0.000000119750    -0.000115657443    -0.000131173450
       7       -0.000016657333     0.000008197757     0.000024395351
       8        0.000019780129    -0.000023988510     0.000020749555
       9       -0.000007191045     0.000005139999    -0.000017540923
      10       -0.000008719462    -0.000007131957     0.000000491503
      11       -0.000006215322     0.000003159133    -0.000006748380
      12        0.000004820108    -0.000007829027    -0.000007652773
      13       -0.000003030640     0.000008528439     0.000016249398

  **** Optimization is complete! (in 6 steps) ****
    Final optimized geometry and variables:
    Molecular point group: c1

    Geometry (in Angstrom), charge = 0, multiplicity = 1:

    H            0.489659985385    -0.943240955584     1.260645685100
    C            0.468805336259    -1.043943944396     0.169875060709
    C           -0.585849936062    -0.246703902498    -0.549633646404
    O            1.247590692029    -1.753475564808    -0.368558576207
    C           -0.445525766519     1.270658757278    -0.359109495028
    H           -1.555974693818    -0.568927052728    -0.177470778713
    H           -0.527437808315    -0.502130806409    -1.598993920097
    C           -0.717611014640     1.767520836527     1.059033236949
    H           -1.139482577525     1.751776328775    -1.038729536183
    H            0.547236354519     1.578183911159    -0.672080090573
    H           -1.707703418619     1.474415393212     1.391816977212
    H           -0.663276371670     2.848711171370     1.098008027025
    H           -0.000290719552     1.382580559778     1.773944031325

  Mulliken Charges: (a.u.)
   Center  Symbol    Alpha    Beta     Spin     Total
       1     H     0.46268  0.46268  0.00000  0.07463
       2     C     2.90401  2.90401  0.00000  0.19198
       3     C     3.08832  3.08832  0.00000 -0.17664
       4     O     4.16543  4.16543  0.00000 -0.33087
       5     C     3.09803  3.09803  0.00000 -0.19606
       6     H     0.45127  0.45127  0.00000  0.09747
       7     H     0.43787  0.43787  0.00000  0.12426
       8     C     3.15136  3.15136  0.00000 -0.30271
       9     H     0.44481  0.44481  0.00000  0.11038
      10     H     0.44607  0.44607  0.00000  0.10785
      11     H     0.45329  0.45329  0.00000  0.09342
      12     H     0.44360  0.44360  0.00000  0.11279
      13     H     0.45325  0.45325  0.00000  0.09349

   Total alpha = 20.00000, Total beta = 20.00000, Total charge = -0.00000
