  ==> Input File <==

--------------------------------------------------------------------------
set {
	reference rhf
	basis 6-31G*
}

set_num_threads( 4 )
memory 2 gb

molecule MOL {
0 1

H	 2.342664	 -0.099657	 0.068119
O	 1.585390	 -0.676940	 0.071564
C	 0.489431	 0.077273	 0.000046
C	 -0.764129	 -0.759190	 0.000191
O	 0.538627	 1.262628	 -0.055440
C	 -2.038368	 0.075731	 -0.000248
H	 -0.717284	 -1.412404	 -0.866059
H	 -0.717458	 -1.411724	 0.866967
H	 -2.086483	 0.712501	 -0.875098
H	 -2.908485	 -0.571682	 -0.000042
H	 -2.086576	 0.713280	 0.874068

	symmetry c1
}
set optking {
	frozen_dihedral = ("
		2 3 4 7
	")
}

ee = optimize('scf')
oeprop('DIPOLE', 'QUADRUPOLE', 'MULLIKEN_CHARGES')
f=open( 'psi4out.xyz', 'w' )
f.write( "11  " )
f.write( str(ee) + "\n" )
f.write( MOL.save_string_xyz() )
f.close()
--------------------------------------------------------------------------

    Molecular point group: c1
  Charge       = 0
  Multiplicity = 1
  Basis Set: 6-31G*
  Basis Set:
  @DF-RHF Final Energy:  -266.84616458506707
    Total Energy =                       -266.8461645850670152
    Molecular point group: c1
  Basis Set: 6-31G*
  Basis Set:
  Basis Set: 6-31G*
  Basis Set:
  @DF-RHF Final Energy:  -266.84616446937878
    Total Energy =                       -266.8461644693787775
  Basis Set: 6-31G*
  Basis Set:
  Basis Set: 6-31G*
  Basis Set:
  @DF-RHF Final Energy:  -266.84615974024496
    Total Energy =                       -266.8461597402450707
  Basis Set: 6-31G*
  Basis Set:
  Charge       = 0
  Multiplicity = 1
  Basis Set: 6-31G*
  Basis Set:

    Orbital Energies (a.u.)
    -----------------------

    Doubly Occupied:

       1A    -20.613781     2A    -20.552821     3A    -11.382151
       4A    -11.244198     5A    -11.220474     6A     -1.475814
       7A     -1.367014     8A     -1.065328     9A     -0.917058
      10A     -0.801256    11A     -0.701795    12A     -0.690749
      13A     -0.662636    14A     -0.594794    15A     -0.594069
      16A     -0.532295    17A     -0.525898    18A     -0.505411
      19A     -0.480029    20A     -0.445985

  @DF-RHF Final Energy:  -266.84616863925248

   => Energetics <=

    Nuclear Repulsion Energy =            179.7833566012567132
    One-Electron Energy =                -720.5119360686247774
    Two-Electron Energy =                 273.8824108281156668
    DFT Exchange-Correlation Energy =       0.0000000000000000
    Empirical Dispersion Energy =           0.0000000000000000
    PCM Polarization Energy =               0.0000000000000000
    EFP Energy =                            0.0000000000000000
    Total Energy =                       -266.8461686392523688
    Molecular point group: c1
  Basis Set: 6-31G*
  Basis Set:

  -Total Gradient:
     Atom            X                  Y                   Z
    ------   -----------------  -----------------  -----------------
       1        0.000000762425    -0.000000981554    -0.000006541329
       2        0.000001883083     0.000006637865     0.000126104800
       3       -0.000023920550     0.000025531127    -0.000113761179
       4        0.000106440684    -0.000160529413     0.000140524110
       5        0.000003627566    -0.000000415131    -0.000043573618
       6        0.000008050612    -0.000008223203    -0.000009988229
       7       -0.000100388371     0.000144188400    -0.000098146073
       8        0.000005032514    -0.000009401925     0.000017592344
       9       -0.000009440070     0.000006052632    -0.000002811675
      10       -0.000000567976     0.000001845450    -0.000006845391
      11        0.000008520079    -0.000004704245    -0.000002553760

  **** Optimization is complete! (in 4 steps) ****
    Final optimized geometry and variables:
    Molecular point group: c1

    Geometry (in Angstrom), charge = 0, multiplicity = 1:

    H            2.343090863961    -0.099592647701     0.054784507812
    O            1.585802725244    -0.676790524170     0.065667192409
    C            0.489432821015     0.077157735524    -0.002609000519
    C           -0.764039351460    -0.759548595344    -0.000728581084
    O            0.538335611434     1.262418040407    -0.060462659236
    C           -2.038201657304     0.075618322055    -0.006049973736
    H           -0.716011219982    -1.410625616176    -0.868905814510
    H           -0.719464662619    -1.413252755489     0.864816487329
    H           -2.081576845005     0.713975802763    -0.879819156673
    H           -2.908404417126    -0.571685388555    -0.011021605058
    H           -2.091039701755     0.711583600204     0.869321875986

  Mulliken Charges: (a.u.)
   Center  Symbol    Alpha    Beta     Spin     Total
       1     H     0.26762  0.26762  0.00000  0.46475
       2     O     4.35029  4.35029  0.00000 -0.70057
       3     C     2.62498  2.62498  0.00000  0.75005
       4     C     3.20823  3.20823  0.00000 -0.41645
       5     O     4.27869  4.27869  0.00000 -0.55737
       6     C     3.23953  3.23953  0.00000 -0.47907
       7     H     0.39793  0.39793  0.00000  0.20415
       8     H     0.39813  0.39813  0.00000  0.20374
       9     H     0.40830  0.40830  0.00000  0.18341
      10     H     0.41666  0.41666  0.00000  0.16668
      11     H     0.40966  0.40966  0.00000  0.18069

   Total alpha = 20.00000, Total beta = 20.00000, Total charge = -0.00000
