  ==> Input File <==

--------------------------------------------------------------------------
set {
	reference rhf
	basis 6-31G*
}

set_num_threads( 1 )
memory 2 gb

molecule MOL {
0 1

H	 -3.135461	 -1.215070	 0.001379
O	 -2.310168	 -0.871793	 -0.309793
C	 -2.026376	 0.340750	 0.341611
C	 -0.673256	 0.843270	 -0.132153
H	 -2.792215	 1.080697	 0.115987
H	 -2.013526	 0.200402	 1.421792
C	 0.486613	 -0.083066	 0.235839
H	 -0.715586	 0.970948	 -1.210718
H	 -0.508072	 1.829858	 0.297090
C	 0.467305	 -0.507302	 1.705351
H	 1.424329	 0.415162	 0.012298
H	 0.449730	 -0.971152	 -0.394069
C	 1.623073	 -1.437710	 2.071704
H	 0.504923	 0.378730	 2.335628
H	 -0.476830	 -1.000356	 1.928844
H	 2.581786	 -0.959733	 1.891992
H	 1.585103	 -1.720068	 3.119452
H	 1.594134	 -2.349895	 1.482135

	symmetry c1
}
set optking {
	frozen_dihedral = ("
		14 10 7 11,
		2 3 4 8,
		1 2 3 4
	")
}

ee = energy('scf')
oeprop('DIPOLE', 'QUADRUPOLE', 'MULLIKEN_CHARGES')
f=open( 'psi4out.xyz', 'w' )
f.write( "18  " )
f.write( str(ee) + "\n" )
f.write( MOL.save_string_xyz() )
f.close()
--------------------------------------------------------------------------

    Molecular point group: c1

    Geometry (in Angstrom), charge = 0, multiplicity = 1:

       Center              X                  Y                   Z               Mass
    ------------   -----------------  -----------------  -----------------  -----------------
           H         -2.682099609588    -0.903571123108    -0.643436246164     1.007825032070
           O         -1.856806609588    -0.560294123108    -0.954608246164    15.994914619560
           C         -1.573014609588     0.652248876892    -0.303204246164    12.000000000000
           C         -0.219894609588     1.154768876892    -0.776968246164    12.000000000000
           H         -2.338853609588     1.392195876892    -0.528828246164     1.007825032070
           H         -1.560164609588     0.511900876892     0.776976753836     1.007825032070
           C          0.939974390412     0.228432876892    -0.408976246164    12.000000000000
           H         -0.262224609588     1.282446876892    -1.855533246164     1.007825032070
           H         -0.054710609588     2.141356876892    -0.347725246164     1.007825032070
           C          0.920666390412    -0.195803123108     1.060535753836    12.000000000000
           H          1.877690390412     0.726660876892    -0.632517246164     1.007825032070
           H          0.903091390412    -0.659653123108    -1.038884246164     1.007825032070
           C          2.076434390412    -1.126211123108     1.426888753836    12.000000000000
           H          0.958284390412     0.690228876892     1.690812753836     1.007825032070
           H         -0.023468609588    -0.688857123108     1.284028753836     1.007825032070
           H          3.035147390412    -0.648234123108     1.247176753836     1.007825032070
           H          2.038464390412    -1.408569123108     2.474636753836     1.007825032070
           H          2.047495390412    -2.038396123108     0.837319753836     1.007825032070

  Charge       = 0
  Multiplicity = 1
  Basis Set: 6-31G*
  Basis Set:

    Orbital Energies (a.u.)
    -----------------------

    Doubly Occupied:

       1A    -20.553689     2A    -11.266433     3A    -11.211882
       4A    -11.210201     5A    -11.206982     6A    -11.204548
       7A     -1.360149     8A     -1.076835     9A     -1.005428
      10A     -0.912426    11A     -0.834182    12A     -0.767599
      13A     -0.704138    14A     -0.649058    15A     -0.623124
      16A     -0.584615    17A     -0.561214    18A     -0.554200
      19A     -0.537585    20A     -0.500181    21A     -0.489410
      22A     -0.462069    23A     -0.455685    24A     -0.447704
      25A     -0.429220

  @DF-RHF Final Energy:  -271.17614184607498

   => Energetics <=

    Nuclear Repulsion Energy =            255.7897467721437863
    One-Electron Energy =                -874.7145591003998106
    Two-Electron Energy =                 347.7486704821808416
    DFT Exchange-Correlation Energy =       0.0000000000000000
    Empirical Dispersion Energy =           0.0000000000000000
    PCM Polarization Energy =               0.0000000000000000
    EFP Energy =                            0.0000000000000000
    Total Energy =                       -271.1761418460752111

  Mulliken Charges: (a.u.)
   Center  Symbol    Alpha    Beta     Spin     Total
       1     H     0.28067  0.28067  0.00000  0.43866
       2     O     4.37007  4.37007  0.00000 -0.74013
       3     C     3.00325  3.00325  0.00000 -0.00649
       4     C     3.16138  3.16138  0.00000 -0.32277
       5     H     0.42821  0.42821  0.00000  0.14359
       6     H     0.42952  0.42952  0.00000  0.14097
       7     C     3.15022  3.15022  0.00000 -0.30044
       8     H     0.41305  0.41305  0.00000  0.17391
       9     H     0.42393  0.42393  0.00000  0.15215
      10     C     3.15844  3.15844  0.00000 -0.31688
      11     H     0.42296  0.42296  0.00000  0.15408
      12     H     0.41194  0.41194  0.00000  0.17612
      13     C     3.23814  3.23814  0.00000 -0.47629
      14     H     0.42668  0.42668  0.00000  0.14664
      15     H     0.41737  0.41737  0.00000  0.16525
      16     H     0.42284  0.42284  0.00000  0.15431
      17     H     0.42113  0.42113  0.00000  0.15773
      18     H     0.42020  0.42020  0.00000  0.15960

   Total alpha = 25.00000, Total beta = 25.00000, Total charge = -0.00000
