                              Psi4 1.0.54 Driver

  ==> Input File <==

--------------------------------------------------------------------------
set {
	reference rhf
	basis cc-pvtz
}

set_num_threads( 4 )
memory 2 gb

molecule MOL {
0 1

H	 -2.952882	 -0.951311	 0.863208
C	 -3.100578	 -0.515573	 -0.134391
C	 -2.653809	 0.914422	 -0.273689
O	 -3.588223	 -1.161783	 -0.995741
C	 -1.216901	 1.136108	 0.207794
H	 -2.779901	 1.215714	 -1.305511
H	 -3.330346	 1.511395	 0.333950
C	 -0.247837	 0.040196	 -0.230469
H	 -0.872882	 2.093195	 -0.169002
H	 -1.209325	 1.218376	 1.291938
C	 1.181757	 0.280428	 0.247371
H	 -0.259600	 -0.030819	 -1.314870
H	 -0.591284	 -0.923375	 0.136958
C	 2.151032	 -0.811012	 -0.202643
H	 1.515939	 1.247397	 -0.115449
H	 1.191514	 0.341223	 1.333422
C	 3.580021	 -0.656538	 0.320835
H	 2.170545	 -0.847575	 -1.289412
H	 1.766632	 -1.772905	 0.124928
C	 4.327657	 0.562694	 -0.213579
H	 4.138806	 -1.549270	 0.057813
H	 3.561991	 -0.620783	 1.406976
H	 4.355973	 0.557257	 -1.298551
H	 3.867136	 1.491650	 0.100501
H	 5.351524	 0.571613	 0.142204

	symmetry c1
}
set optking {
	frozen_dihedral = ("
		6 3 5 8
	")
}

ee,wfn = optimize('scf', return_wfn=True)
oeprop( wfn, 'DIPOLE', 'QUADRUPOLE', 'MULLIKEN_CHARGES')
f=open( 'psi4out.xyz', 'w' )
f.write( "25  " )
f.write( str(ee) + "\n" )
f.write( MOL.save_string_xyz() )
f.close()
--------------------------------------------------------------------------

    Molecular point group: c1
  Charge       = 0
  Multiplicity = 1
  Basis Set: CC-PVTZ
  Basis Set:
  @DF-RHF Final Energy:  -387.25763413461544
    Total Energy =                       -387.2576341346152731
    Molecular point group: c1
  Basis Set: CC-PVTZ
  Basis Set:
  Basis Set: CC-PVTZ
  Basis Set:
  @DF-RHF Final Energy:  -387.25760545906422
    Total Energy =                       -387.2576054590645072
  Basis Set: CC-PVTZ
  Basis Set:
  Basis Set: CC-PVTZ
  Basis Set:
  @DF-RHF Final Energy:  -387.25463377092751
    Total Energy =                       -387.2546337709275122
  Basis Set: CC-PVTZ
  Basis Set:
  Basis Set: CC-PVTZ
  Basis Set:
  @DF-RHF Final Energy:  -387.25803757546419
    Total Energy =                       -387.2580375754646411
  Basis Set: CC-PVTZ
  Basis Set:
  Basis Set: CC-PVTZ
  Basis Set:
  @DF-RHF Final Energy:  -387.25813140229945
    Total Energy =                       -387.2581314022997958
  Basis Set: CC-PVTZ
  Basis Set:
  Basis Set: CC-PVTZ
  Basis Set:
  @DF-RHF Final Energy:  -387.25814897492165
    Total Energy =                       -387.2581489749212551
  Basis Set: CC-PVTZ
  Basis Set:
  Basis Set: CC-PVTZ
  Basis Set:
  @DF-RHF Final Energy:  -387.25815164745859
    Total Energy =                       -387.2581516474583623
  Basis Set: CC-PVTZ
  Basis Set:
  Charge       = 0
  Multiplicity = 1
  Basis Set: CC-PVTZ
  Basis Set:

    Orbital Energies (a.u.)
    -----------------------

    Doubly Occupied:

       1A    -20.550734     2A    -11.321056     3A    -11.233671
       4A    -11.232994     5A    -11.222488     6A    -11.218141
       7A    -11.216475     8A    -11.215317     9A    -11.208908
      10A     -1.405798    11A     -1.105037    12A     -1.070467
      13A     -1.014540    14A     -0.943699    15A     -0.877026
      16A     -0.826407    17A     -0.783166    18A     -0.781964
      19A     -0.671021    20A     -0.659432    21A     -0.635694
      22A     -0.627624    23A     -0.602827    24A     -0.597510
      25A     -0.577083    26A     -0.547630    27A     -0.542599
      28A     -0.526989    29A     -0.503866    30A     -0.497749
      31A     -0.496364    32A     -0.476418    33A     -0.465246
      34A     -0.459855    35A     -0.443093    36A     -0.411600

  @DF-RHF Final Energy:  -387.25815206364985

   => Energetics <=

    Nuclear Repulsion Energy =            440.6552922596293911
    One-Electron Energy =               -1397.8859141517291391
    Two-Electron Energy =                 569.9724698284494480
    DFT Exchange-Correlation Energy =       0.0000000000000000
    Empirical Dispersion Energy =           0.0000000000000000
    PCM Polarization Energy =               0.0000000000000000
    EFP Energy =                            0.0000000000000000
    Total Energy =                       -387.2581520636503001
    Molecular point group: c1
  Basis Set: CC-PVTZ
  Basis Set:

  -Total Gradient:
     Atom            X                  Y                   Z
    ------   -----------------  -----------------  -----------------
       1       -0.000021488413    -0.000017918421    -0.000001070460
       2       -0.000007713032    -0.000037113740    -0.000049519327
       3        0.001135841080    -0.006879462680    -0.000920064382
       4        0.000030822556     0.000034398873     0.000066939457
       5        0.000896653561     0.004145552247    -0.003882259608
       6       -0.001216084590     0.004794853032     0.001745877843
       7        0.000031806757     0.000004060956    -0.000013239831
       8       -0.000842896838    -0.002039900946     0.003057891399
       9       -0.000004414030    -0.000014665952     0.000009939297
      10        0.000000991785    -0.000003237157    -0.000027622189
      11       -0.000016188300    -0.000005379690     0.000023247777
      12       -0.000004169631    -0.000000433730     0.000005494819
      13        0.000012015796     0.000017663795    -0.000006541251
      14        0.000010337753     0.000011159538    -0.000022481780
      15       -0.000026718670    -0.000027623617    -0.000001218392
      16        0.000005607490     0.000009339399     0.000007702174
      17       -0.000016387886     0.000020808253     0.000023815560
      18       -0.000000691329     0.000008351806    -0.000002656893
      19        0.000009411947    -0.000002254770    -0.000007987811
      20        0.000014571398    -0.000006624075    -0.000008369847
      21       -0.000002828377    -0.000006772840     0.000005854748
      22       -0.000004947597     0.000010694056     0.000001230059
      23       -0.000002792596     0.000004199346    -0.000003535021
      24        0.000019964298    -0.000012489875     0.000006697946
      25       -0.000000703138    -0.000007203812    -0.000008124286

  **** Optimization is complete! (in 8 steps) ****
    Final optimized geometry and variables:
    Molecular point group: c1

    Geometry (in Angstrom), charge = 0, multiplicity = 1:

    H           -3.149061261121    -0.896916111349     1.003815694498
    C           -3.223467838448    -0.464636146881    -0.002829807719
    C           -2.695442768250     0.935624884104    -0.133644677670
    O           -3.711362988157    -1.089596770654    -0.879739613546
    C           -1.259669489228     1.119991816096     0.382005684117
    H           -2.799742906991     1.274821061141    -1.155826423100
    H           -3.355288414062     1.563777142805     0.462605404662
    C           -0.280364696515     0.036015452978    -0.067076225620
    H           -0.908156844695     2.093732238639     0.060892081109
    H           -1.271642949699     1.146338920488     1.468191742761
    C            1.148909117533     0.297857277460     0.400333771435
    H           -0.297316522563    -0.041638005367    -1.151308902407
    H           -0.604946319901    -0.930144763189     0.308565423104
    C            2.127205441411    -0.790877349923    -0.036458192027
    H            1.471209699326     1.262034471488     0.020221024503
    H            1.162752749310     0.376610556854     1.485278567407
    C            3.556746334522    -0.613387239991     0.478076428261
    H            2.142243773706    -0.844959168214    -1.122484079879
    H            1.754307689937    -1.751314552689     0.308440318133
    C            4.291022052800     0.602087962982    -0.082769266552
    H            4.122568127284    -1.505885551562     0.229706135421
    H            3.542757798722    -0.557041666996     1.563417822029
    H            4.312919719276     0.577207798779    -1.167588543723
    H            3.824766721051     1.532804495167     0.217311632162
    H            5.316862098312     0.625745965189     0.266576550930

  Mulliken Charges: (a.u.)
   Center  Symbol    Alpha    Beta     Spin     Total
       1     H     0.46270  0.46270  0.00000  0.07461
       2     C     2.90219  2.90219  0.00000  0.19563
       3     C     3.09193  3.09193  0.00000 -0.18387
       4     O     4.16807  4.16807  0.00000 -0.33614
       5     C     3.11172  3.11172  0.00000 -0.22345
       6     H     0.44094  0.44094  0.00000  0.11812
       7     H     0.44352  0.44352  0.00000  0.11295
       8     C     3.09365  3.09365  0.00000 -0.18729
       9     H     0.44353  0.44353  0.00000  0.11295
      10     H     0.44938  0.44938  0.00000  0.10124
      11     C     3.09430  3.09430  0.00000 -0.18860
      12     H     0.44616  0.44616  0.00000  0.10767
      13     H     0.44989  0.44989  0.00000  0.10021
      14     C     3.09528  3.09528  0.00000 -0.19056
      15     H     0.45076  0.45076  0.00000  0.09849
      16     H     0.45438  0.45438  0.00000  0.09125
      17     C     3.09096  3.09096  0.00000 -0.18193
      18     H     0.45238  0.45238  0.00000  0.09523
      19     H     0.44855  0.44855  0.00000  0.10289
      20     C     3.15262  3.15262  0.00000 -0.30524
      21     H     0.44764  0.44764  0.00000  0.10472
      22     H     0.45483  0.45483  0.00000  0.09034
      23     H     0.45433  0.45433  0.00000  0.09135
      24     H     0.45437  0.45437  0.00000  0.09125
      25     H     0.44591  0.44591  0.00000  0.10817

   Total alpha = 36.00000, Total beta = 36.00000, Total charge =  0.00000

*** Psi4 exiting successfully. Buy a developer a beer!
