  ==> Input File <==

--------------------------------------------------------------------------
set {
	reference rhf
	basis cc-pvtz
}

set_num_threads( 4 )
memory 2 gb

molecule MOL {
0 1

H	 -1.069748	 -0.897948	 -0.896811
N	 -1.173824	 -0.310545	 -0.096857
C	 -0.022588	 0.563366	 0.065815
H	 -2.008893	 0.221475	 -0.228103
C	 1.270420	 -0.230572	 -0.014245
H	 -0.045354	 1.293678	 -0.735129
H	 -0.043155	 1.123061	 1.001180
H	 1.336273	 -0.754933	 -0.959364
H	 2.130728	 0.422015	 0.082222
H	 1.323344	 -0.967006	 0.781773

	symmetry c1
}
set optking {
	frozen_dihedral = ("
		1 2 3 6
	")
}

ee = optimize('scf')
oeprop('DIPOLE', 'QUADRUPOLE', 'MULLIKEN_CHARGES')
f=open( 'psi4out.xyz', 'w' )
f.write( "10  " )
f.write( str(ee) + "\n" )
f.write( MOL.save_string_xyz() )
f.close()
--------------------------------------------------------------------------

    Molecular point group: c1
  Charge       = 0
  Multiplicity = 1
  Basis Set: CC-PVTZ
  Basis Set:
  @DF-RHF Final Energy:  -134.30255778958701
    Total Energy =                       -134.3025577895870697
    Molecular point group: c1
  Basis Set: CC-PVTZ
  Basis Set:
  Basis Set: CC-PVTZ
  Basis Set:
  @DF-RHF Final Energy:  -134.30431654972853
    Total Energy =                       -134.3043165497284406
  Basis Set: CC-PVTZ
  Basis Set:
  Basis Set: CC-PVTZ
  Basis Set:
  @DF-RHF Final Energy:  -134.30453975816408
    Total Energy =                       -134.3045397581640259
  Basis Set: CC-PVTZ
  Basis Set:
  Basis Set: CC-PVTZ
  Basis Set:
  @DF-RHF Final Energy:  -134.30454272798147
    Total Energy =                       -134.3045427279814135
  Basis Set: CC-PVTZ
  Basis Set:
  Charge       = 0
  Multiplicity = 1
  Basis Set: CC-PVTZ
  Basis Set:

    Orbital Energies (a.u.)
    -----------------------

    Doubly Occupied:

       1A    -15.526193     2A    -11.240702     3A    -11.206796
       4A     -1.177610     5A     -0.989092     6A     -0.825725
       7A     -0.661920     8A     -0.632040     9A     -0.586215
      10A     -0.517923    11A     -0.506332    12A     -0.491279
      13A     -0.383427

  @DF-RHF Final Energy:  -134.30454305705462

   => Energetics <=

    Nuclear Repulsion Energy =             83.5195347968649600
    One-Electron Energy =                -346.1576517998571489
    Two-Electron Energy =                 128.3335739459375873
    DFT Exchange-Correlation Energy =       0.0000000000000000
    Empirical Dispersion Energy =           0.0000000000000000
    PCM Polarization Energy =               0.0000000000000000
    EFP Energy =                            0.0000000000000000
    Total Energy =                       -134.3045430570546159
    Molecular point group: c1
  Basis Set: CC-PVTZ
  Basis Set:

  -Total Gradient:
     Atom            X                  Y                   Z
    ------   -----------------  -----------------  -----------------
       1        0.000717960243    -0.001017414867     0.000829853009
       2       -0.001133385797     0.001511019415    -0.000781207957
       3        0.001186552919    -0.001368851186    -0.000876738050
       4       -0.000011567493     0.000003992440    -0.000009419303
       5       -0.000017172259     0.000020665202     0.000016356645
       6       -0.000733994579     0.000835743427     0.000825289550
       7        0.000001749172    -0.000011657915     0.000007515828
       8       -0.000010324922     0.000010080004     0.000002661147
       9        0.000015136534     0.000000892560    -0.000005614576
      10       -0.000014953815     0.000015530920    -0.000008696292

  **** Optimization is complete! (in 5 steps) ****
    Final optimized geometry and variables:
    Molecular point group: c1

    Geometry (in Angstrom), charge = 0, multiplicity = 1:

    H           -1.104210459361    -0.905951761472    -0.840228976880
    N           -1.177047652886    -0.314370555867    -0.039341602099
    C           -0.024294017068     0.565251686511     0.067272133990
    H           -2.026922696483     0.201627655591    -0.118349867397
    C            1.267169063620    -0.232815526247     0.029004759481
    H           -0.002720583492     1.332608923932    -0.706793901797
    H           -0.092164855605     1.088537387791     1.014935313916
    H            1.375637850820    -0.751819105548    -0.918521374682
    H            2.125955744518     0.417260067259     0.149238501821
    H            1.280037116793    -0.972548958828     0.819993827943

  Mulliken Charges: (a.u.)
   Center  Symbol    Alpha    Beta     Spin     Total
       1     H     0.43008  0.43008  0.00000  0.13984
       2     N     3.69073  3.69073  0.00000 -0.38147
       3     C     3.01549  3.01549  0.00000 -0.03098
       4     H     0.42945  0.42945  0.00000  0.14109
       5     C     3.14161  3.14161  0.00000 -0.28322
       6     H     0.47029  0.47029  0.00000  0.05942
       7     H     0.45890  0.45890  0.00000  0.08221
       8     H     0.46036  0.46036  0.00000  0.07928
       9     H     0.45409  0.45409  0.00000  0.09183
      10     H     0.44900  0.44900  0.00000  0.10199

   Total alpha = 13.00000, Total beta = 13.00000, Total charge =  0.00000
