  ==> Input File <==

--------------------------------------------------------------------------
set {
	reference rhf
	basis 6-31G*
}

set_num_threads( 4 )
memory 2 gb

molecule MOL {
0 1

H	 -0.821032	 -1.655889	 0.000000
O	 -1.037828	 -0.728600	 0.000000
C	 0.100509	 -0.036935	 0.000000
C	 -0.145615	 1.444728	 0.000000
O	 1.164303	 -0.563779	 0.000000
H	 -0.723763	 1.718161	 -0.875040
H	 0.798372	 1.968216	 0.000000
H	 -0.723763	 1.718161	 0.875040

	symmetry c1
}
set optking {
	frozen_dihedral = ("
		4 3 2 1
	")
}

ee = optimize('scf')
oeprop('DIPOLE', 'QUADRUPOLE', 'MULLIKEN_CHARGES')
f=open( 'psi4out.xyz', 'w' )
f.write( "8  " )
f.write( str(ee) + "\n" )
f.write( MOL.save_string_xyz() )
f.close()
--------------------------------------------------------------------------

    Molecular point group: c1
  Charge       = 0
  Multiplicity = 1
  Basis Set: 6-31G*
  Basis Set:

    Orbital Energies (a.u.)
    -----------------------

    Doubly Occupied:

       1A    -20.615420     2A    -20.553214     3A    -11.386006
       4A    -11.240477     5A     -1.477191     6A     -1.368145
       7A     -1.027185     8A     -0.831593     9A     -0.702630
      10A     -0.683103    11A     -0.653688    12A     -0.581691
      13A     -0.572237    14A     -0.562241    15A     -0.480346
      16A     -0.449137

  @DF-RHF Final Energy:  -227.81029037383848

   => Energetics <=

    Nuclear Repulsion Energy =            122.4553848595351297
    One-Electron Energy =                -554.1627402836841156
    Two-Electron Energy =                 203.8970650503104025
    DFT Exchange-Correlation Energy =       0.0000000000000000
    Empirical Dispersion Energy =           0.0000000000000000
    PCM Polarization Energy =               0.0000000000000000
    EFP Energy =                            0.0000000000000000
    Total Energy =                       -227.8102903738385976
    Molecular point group: c1
  Basis Set: 6-31G*
  Basis Set:

  -Total Gradient:
     Atom            X                  Y                   Z
    ------   -----------------  -----------------  -----------------
       1       -0.000017194865    -0.000004153882     0.000000000001
       2        0.000190314373     0.000065816163     0.000000000001
       3       -0.000338901377    -0.000087354620     0.000000000038
       4        0.000027564885     0.000079638910    -0.000000000094
       5        0.000129615760    -0.000037498832    -0.000000000003
       6       -0.000000390973    -0.000009282285    -0.000009089410
       7        0.000009383179     0.000002116802    -0.000000000001
       8       -0.000000390983    -0.000009282254     0.000009089468

  **** Optimization is complete! (in 1 steps) ****
    Final optimized geometry and variables:
    Molecular point group: c1

    Geometry (in Angstrom), charge = 0, multiplicity = 1:

    H           -0.821031909597    -1.655889108921     0.000000000000
    O           -1.037827909597    -0.728600108921     0.000000000000
    C            0.100509090403    -0.036935108921     0.000000000000
    C           -0.145614909597     1.444727891079     0.000000000000
    O            1.164303090403    -0.563779108921     0.000000000000
    H           -0.723762909597     1.718160891079    -0.875040000000
    H            0.798372090403     1.968215891079     0.000000000000
    H           -0.723762909597     1.718160891079     0.875040000000

  Mulliken Charges: (a.u.)
   Center  Symbol    Alpha    Beta     Spin     Total
       1     H     0.26723  0.26723  0.00000  0.46554
       2     O     4.34415  4.34415  0.00000 -0.68830
       3     C     2.63798  2.63798  0.00000  0.72403
       4     C     3.28514  3.28514  0.00000 -0.57028
       5     O     4.27559  4.27559  0.00000 -0.55119
       6     H     0.39770  0.39770  0.00000  0.20461
       7     H     0.39451  0.39451  0.00000  0.21098
       8     H     0.39770  0.39770  0.00000  0.20461

   Total alpha = 16.00000, Total beta = 16.00000, Total charge = -0.00000
