  ==> Input File <==

--------------------------------------------------------------------------
set {
	reference rhf
	basis cc-pvtz
}

set_num_threads( 4 )
memory 2 gb

molecule MOL {
0 1

O	 1.315041	 0.200435	 0.918707
C	 0.576499	 0.134701	 -0.003900
C	 -0.765656	 -0.550508	 -0.002152
O	 0.846008	 0.660327	 -1.187562
C	 -1.945526	 0.411052	 0.000603
H	 -0.794329	 -1.203792	 -0.868145
H	 -0.791555	 -1.205429	 0.862701
C	 -3.282915	 -0.321280	 0.002596
H	 -1.880300	 1.059126	 -0.864925
H	 -1.877207	 1.057892	 0.866807
H	 -3.388495	 -0.952755	 -0.873419
H	 -4.107811	 0.380864	 0.004116
H	 -3.385717	 -0.953283	 0.878571
C	 2.080906	 1.332518	 -1.333157
H	 2.143617	 2.166488	 -0.650065
H	 2.110085	 1.682705	 -2.352082
H	 2.905091	 0.660442	 -1.145874

	symmetry c1
}
set optking {
	frozen_dihedral = ("
		1 2 3 6
	")
}

ee = optimize('scf')
oeprop('DIPOLE', 'QUADRUPOLE', 'MULLIKEN_CHARGES')
f=open( 'psi4out.xyz', 'w' )
f.write( "17  " )
f.write( str(ee) + "\n" )
f.write( MOL.save_string_xyz() )
f.close()
--------------------------------------------------------------------------

    Molecular point group: c1
  Charge       = 0
  Multiplicity = 1
  Basis Set: CC-PVTZ
  Basis Set:
  @DF-RHF Final Energy:  -345.03376438922976
    Total Energy =                       -345.0337643892298161
    Molecular point group: c1
  Basis Set: CC-PVTZ
  Basis Set:
  Basis Set: CC-PVTZ
  Basis Set:
  @DF-RHF Final Energy:  -345.03389700767934
    Total Energy =                       -345.0338970076793430
  Basis Set: CC-PVTZ
  Basis Set:
  Basis Set: CC-PVTZ
  Basis Set:
  @DF-RHF Final Energy:  -345.03414227657868
    Total Energy =                       -345.0341422765785637
  Basis Set: CC-PVTZ
  Basis Set:
  Basis Set: CC-PVTZ
  Basis Set:
  @DF-RHF Final Energy:  -345.03423232001091
    Total Energy =                       -345.0342323200108012
  Basis Set: CC-PVTZ
  Basis Set:
  Charge       = 0
  Multiplicity = 1
  Basis Set: CC-PVTZ
  Basis Set:

    Orbital Energies (a.u.)
    -----------------------

    Doubly Occupied:

       1A    -20.597264     2A    -20.532998     3A    -11.363679
       4A    -11.278777     5A    -11.232921     6A    -11.230093
       7A    -11.216852     8A     -1.472080     9A     -1.364858
      10A     -1.085697    11A     -1.000295    12A     -0.942459
      13A     -0.831551    14A     -0.776259    15A     -0.699469
      16A     -0.683395    17A     -0.676396    18A     -0.638388
      19A     -0.597149    20A     -0.581136    21A     -0.550004
      22A     -0.547877    23A     -0.527414    24A     -0.510051
      25A     -0.489800    26A     -0.484981    27A     -0.458609
      28A     -0.435088

  @DF-RHF Final Energy:  -345.03423282188339

   => Energetics <=

    Nuclear Repulsion Energy =            314.6664110377731731
    One-Electron Energy =               -1093.7902117499479573
    Two-Electron Energy =                 434.0895678902911641
    DFT Exchange-Correlation Energy =       0.0000000000000000
    Empirical Dispersion Energy =           0.0000000000000000
    PCM Polarization Energy =               0.0000000000000000
    EFP Energy =                            0.0000000000000000
    Total Energy =                       -345.0342328218836201
    Molecular point group: c1
  Basis Set: CC-PVTZ
  Basis Set:

  -Total Gradient:
     Atom            X                  Y                   Z
    ------   -----------------  -----------------  -----------------
       1        0.000056625081    -0.000166661615    -0.000161483597
       2       -0.000134091132     0.000196011710     0.000196039281
       3       -0.000112651734     0.000116931186    -0.000110659144
       4        0.000066634302     0.000000039573     0.000002537504
       5        0.000028837938    -0.000013273583    -0.000014776835
       6        0.000082389023    -0.000121932993     0.000133866550
       7       -0.000009328490    -0.000050617214     0.000004775974
       8        0.000006164014    -0.000014275077     0.000000149581
       9       -0.000007601044     0.000023736024     0.000000916012
      10        0.000001272897    -0.000010314300    -0.000012425539
      11       -0.000000514491    -0.000006763479    -0.000000268414
      12        0.000012310762     0.000008926428    -0.000004071048
      13       -0.000001816300    -0.000002381807     0.000002304496
      14       -0.000032671340     0.000036337148    -0.000028361069
      15        0.000011282389    -0.000002390088    -0.000005887470
      16        0.000034267391     0.000014554633    -0.000005856493
      17       -0.000001109263    -0.000007926549     0.000003200211

  **** Optimization is complete! (in 5 steps) ****
    Final optimized geometry and variables:
    Molecular point group: c1

    Geometry (in Angstrom), charge = 0, multiplicity = 1:

    O            1.461463880147    -0.114236832218     1.149769645361
    C            0.721327366601    -0.169574562088     0.227166357093
    C           -0.617370637902    -0.859573522794     0.238868642635
    O            0.982112173870     0.388284660517    -0.944012854494
    C           -1.783732379083     0.133502585256     0.213126803045
    H           -0.673712049691    -1.512762316462    -0.624303605734
    H           -0.656832970546    -1.466299798925     1.132283502078
    C           -3.135607467880    -0.569320042101     0.257122327793
    H           -1.716208247004     0.742904044077    -0.680022186612
    H           -1.696316260009     0.805521278703     1.060799288030
    H           -3.261582407494    -1.228590110188    -0.595002550768
    H           -3.945695881538     0.149919380072     0.242276114170
    H           -3.238340196956    -1.166352413963     1.156611173603
    C            2.202802976007     1.089119325925    -1.071487958484
    H            2.248176993603     1.906819650947    -0.367574431332
    H            2.226595566868     1.465308639102    -2.081385077243
    H            3.040134392351     0.429330242893    -0.899342994876

  Mulliken Charges: (a.u.)
   Center  Symbol    Alpha    Beta     Spin     Total
       1     O     4.20048  4.20048  0.00000 -0.40097
       2     C     2.80699  2.80699  0.00000  0.38602
       3     C     3.07792  3.07792  0.00000 -0.15584
       4     O     4.15037  4.15037  0.00000 -0.30074
       5     C     3.09324  3.09324  0.00000 -0.18648
       6     H     0.44677  0.44677  0.00000  0.10646
       7     H     0.43810  0.43810  0.00000  0.12381
       8     C     3.15114  3.15114  0.00000 -0.30229
       9     H     0.44470  0.44470  0.00000  0.11060
      10     H     0.44717  0.44717  0.00000  0.10567
      11     H     0.45420  0.45420  0.00000  0.09159
      12     H     0.44616  0.44616  0.00000  0.10769
      13     H     0.45285  0.45285  0.00000  0.09429
      14     C     3.03721  3.03721  0.00000 -0.07441
      15     H     0.45447  0.45447  0.00000  0.09107
      16     H     0.44553  0.44553  0.00000  0.10894
      17     H     0.45270  0.45270  0.00000  0.09460

   Total alpha = 28.00000, Total beta = 28.00000, Total charge = -0.00000
