  ==> Input File <==

--------------------------------------------------------------------------
set {
	reference rhf
	basis cc-pvtz
}

set_num_threads( 4 )
memory 2 gb

molecule MOL {
0 1

H	 -0.734498	 -1.835655	 -1.686520
C	 -0.848358	 -0.776067	 -1.891342
O	 -0.775228	 0.000056	 -0.739966
H	 -1.831787	 -0.618646	 -2.311147
H	 -0.113439	 -0.486349	 -2.635377
C	 0.406133	 -0.000384	 0.036994
C	 1.526415	 -0.003194	 -0.997339
C	 0.498772	 1.259027	 0.900673
C	 0.495883	 -1.257378	 0.904465
H	 1.452279	 0.872071	 -1.630204
H	 1.451276	 -0.881020	 -1.626529
H	 2.497919	 -0.002741	 -0.517601
H	 0.368981	 2.144239	 0.289753
H	 1.470064	 1.313479	 1.377660
H	 -0.248448	 1.271586	 1.684297
H	 0.363971	 -2.144195	 0.296316
H	 1.467114	 -1.312636	 1.381470
H	 -0.251246	 -1.265768	 1.688235

	symmetry c1
}
set optking {
	frozen_dihedral = ("
		2 3 6 7
	")
}

ee = optimize('scf')
oeprop('DIPOLE', 'QUADRUPOLE', 'MULLIKEN_CHARGES')
f=open( 'psi4out.xyz', 'w' )
f.write( "18  " )
f.write( str(ee) + "\n" )
f.write( MOL.save_string_xyz() )
f.close()
--------------------------------------------------------------------------

    Molecular point group: c1
  Charge       = 0
  Multiplicity = 1
  Basis Set: CC-PVTZ
  Basis Set:
  @DF-RHF Final Energy:  -271.26548643394153
    Total Energy =                       -271.2654864339411915
    Molecular point group: c1
  Basis Set: CC-PVTZ
  Basis Set:
  Basis Set: CC-PVTZ
  Basis Set:
  @DF-RHF Final Energy:  -271.27077457592577
    Total Energy =                       -271.2707745759256568
  Basis Set: CC-PVTZ
  Basis Set:
  Basis Set: CC-PVTZ
  Basis Set:
  @DF-RHF Final Energy:  -271.27534156617907
    Total Energy =                       -271.2753415661791223
  Basis Set: CC-PVTZ
  Basis Set:
  Basis Set: CC-PVTZ
  Basis Set:
  @DF-RHF Final Energy:  -271.27591364645525
    Total Energy =                       -271.2759136464552512
  Basis Set: CC-PVTZ
  Basis Set:
  Basis Set: CC-PVTZ
  Basis Set:
  @DF-RHF Final Energy:  -271.27601376390714
    Total Energy =                       -271.2760137639073150
  Basis Set: CC-PVTZ
  Basis Set:
  Basis Set: CC-PVTZ
  Basis Set:
  @DF-RHF Final Energy:  -271.27602970503534
    Total Energy =                       -271.2760297050352847
  Basis Set: CC-PVTZ
  Basis Set:
  Charge       = 0
  Multiplicity = 1
  Basis Set: CC-PVTZ
  Basis Set:

    Orbital Energies (a.u.)
    -----------------------

    Doubly Occupied:

       1A    -20.539875     2A    -11.280224     3A    -11.258780
       4A    -11.209643     5A    -11.204536     6A    -11.202127
       7A     -1.372887     8A     -1.074824     9A     -0.949442
      10A     -0.938254    11A     -0.913111    12A     -0.753178
      13A     -0.657264    14A     -0.647411    15A     -0.639822
      16A     -0.590376    17A     -0.575263    18A     -0.552774
      19A     -0.535454    20A     -0.526218    21A     -0.515400
      22A     -0.490994    23A     -0.486796    24A     -0.442455
      25A     -0.404470

  @DF-RHF Final Energy:  -271.27603057491638

   => Energetics <=

    Nuclear Repulsion Energy =            272.6706665219900287
    One-Electron Energy =                -908.3702392899522238
    Two-Electron Energy =                 364.4235421930460461
    DFT Exchange-Correlation Energy =       0.0000000000000000
    Empirical Dispersion Energy =           0.0000000000000000
    PCM Polarization Energy =               0.0000000000000000
    EFP Energy =                            0.0000000000000000
    Total Energy =                       -271.2760305749161489
    Molecular point group: c1
  Basis Set: CC-PVTZ
  Basis Set:

  -Total Gradient:
     Atom            X                  Y                   Z
    ------   -----------------  -----------------  -----------------
       1        0.000000444741     0.000009800405     0.000010093348
       2        0.000708382544     0.001684120926    -0.001196333963
       3       -0.001088870819    -0.003298435683     0.001665128930
       4       -0.000006929193     0.000012927419     0.000030718471
       5        0.000016009052     0.000022097861    -0.000006097042
       6        0.000274075085     0.003426902221    -0.000516825652
       7       -0.000042422756    -0.001888061049     0.000017440317
       8        0.000051180283     0.000010473898    -0.000018579231
       9        0.000076385390     0.000024842988    -0.000009153281
      10       -0.000032434323     0.000000259801     0.000022918671
      11       -0.000010561767    -0.000020862056     0.000013394948
      12        0.000016982121     0.000012470883     0.000022509260
      13       -0.000024060204     0.000020365299     0.000019053306
      14        0.000033323219     0.000026925148    -0.000013250964
      15        0.000017835391    -0.000054886653    -0.000026557944
      16       -0.000013741994     0.000007621710    -0.000005772367
      17        0.000022225051    -0.000021736757     0.000023089101
      18        0.000002178176     0.000025173639    -0.000031775909

  **** Optimization is complete! (in 7 steps) ****
    Final optimized geometry and variables:
    Molecular point group: c1

    Geometry (in Angstrom), charge = 0, multiplicity = 1:

    H           -0.938775696625    -1.642124185390    -1.396297310963
    C           -1.181911836899    -0.591460130329    -1.528150004299
    O           -0.996442028544     0.151160029834    -0.367715284749
    H           -2.230344299139    -0.519229284310    -1.780816937376
    H           -0.603727974802    -0.205764071866    -2.360987262314
    C            0.248751453769     0.116483245579     0.305326533592
    C            1.435955115272     0.122536779636    -0.658377187668
    C            0.259201358140     1.378324709211     1.159607934127
    C            0.300571146474    -1.125426691588     1.197772655651
    H            1.377215562032     0.963075690196    -1.339860985407
    H            1.493658336081    -0.788185138983    -1.240736991383
    H            2.357928390043     0.210433135444    -0.096918500619
    H            0.227417717130     2.259239199352     0.530636378955
    H            1.150087793349     1.423573635754     1.775079207576
    H           -0.608631426158     1.394872420289     1.806381138517
    H            0.256855160604    -2.035383066215     0.611114532902
    H            1.217962850304    -1.148958758985     1.774835310205
    H           -0.537194372617    -1.125338360308     1.883686967442

  Mulliken Charges: (a.u.)
   Center  Symbol    Alpha    Beta     Spin     Total
       1     H     0.47029  0.47029  0.00000  0.05943
       2     C     3.04399  3.04399  0.00000 -0.08798
       3     O     4.19290  4.19290  0.00000 -0.38579
       4     H     0.44190  0.44190  0.00000  0.11620
       5     H     0.46685  0.46685  0.00000  0.06629
       6     C     2.87431  2.87431  0.00000  0.25138
       7     C     3.17207  3.17207  0.00000 -0.34414
       8     C     3.14121  3.14121  0.00000 -0.28242
       9     C     3.15286  3.15286  0.00000 -0.30572
      10     H     0.44505  0.44505  0.00000  0.10990
      11     H     0.44604  0.44604  0.00000  0.10791
      12     H     0.44494  0.44494  0.00000  0.11012
      13     H     0.45062  0.45062  0.00000  0.09877
      14     H     0.45919  0.45919  0.00000  0.08161
      15     H     0.44759  0.44759  0.00000  0.10481
      16     H     0.44997  0.44997  0.00000  0.10005
      17     H     0.45243  0.45243  0.00000  0.09514
      18     H     0.44778  0.44778  0.00000  0.10445

   Total alpha = 25.00000, Total beta = 25.00000, Total charge = -0.00000
