                              Psi4 1.0.54 Driver

  ==> Input File <==

--------------------------------------------------------------------------
set {
	reference rhf
	basis cc-pvtz
}

set_num_threads( 4 )
memory 2 gb

molecule MOL {
0 1

H	 -2.498963	 -0.741158	 -0.729149
O	 -2.346257	 -0.289210	 0.080372
C	 -1.183935	 0.486039	 -0.009831
C	 0.062853	 -0.375310	 0.027457
H	 -1.178881	 1.094526	 -0.908634
H	 -1.184406	 1.155156	 0.838676
O	 0.020161	 -1.156166	 1.176322
H	 0.952218	 0.257086	 0.027572
H	 0.103337	 -0.995054	 -0.865769
C	 1.094451	 -2.024793	 1.326687
H	 2.037029	 -1.484888	 1.384345
H	 0.950745	 -2.573029	 2.246182
H	 1.152435	 -2.731396	 0.502144

	symmetry c1
}
set optking {
	frozen_dihedral = ("
		8 4 3 5
	")
}

ee,wfn = optimize('scf', return_wfn=True)
oeprop( wfn, 'DIPOLE', 'QUADRUPOLE', 'MULLIKEN_CHARGES')
f=open( 'psi4out.xyz', 'w' )
f.write( "13  " )
f.write( str(ee) + "\n" )
f.write( MOL.save_string_xyz() )
f.close()
--------------------------------------------------------------------------

    Molecular point group: c1
  Charge       = 0
  Multiplicity = 1
  Basis Set: CC-PVTZ
  Basis Set:
  @DF-RHF Final Energy:  -268.05911740298916
    Total Energy =                       -268.0591174029891590
    Molecular point group: c1
  Basis Set: CC-PVTZ
  Basis Set:
  Basis Set: CC-PVTZ
  Basis Set:
  @DF-RHF Final Energy:  -268.05967649570800
    Total Energy =                       -268.0596764957081746
  Basis Set: CC-PVTZ
  Basis Set:
  Basis Set: CC-PVTZ
  Basis Set:
  @DF-RHF Final Energy:  -268.05984118454518
    Total Energy =                       -268.0598411845454052
  Basis Set: CC-PVTZ
  Basis Set:
  Basis Set: CC-PVTZ
  Basis Set:
  @DF-RHF Final Energy:  -268.05991310064354
    Total Energy =                       -268.0599131006435982
  Basis Set: CC-PVTZ
  Basis Set:
  Basis Set: CC-PVTZ
  Basis Set:
  @DF-RHF Final Energy:  -268.05993724222151
    Total Energy =                       -268.0599372422214515
  Basis Set: CC-PVTZ
  Basis Set:
  Basis Set: CC-PVTZ
  Basis Set:
  @DF-RHF Final Energy:  -268.05993856085445
    Total Energy =                       -268.0599385608542775
  Basis Set: CC-PVTZ
  Basis Set:
  Charge       = 0
  Multiplicity = 1
  Basis Set: CC-PVTZ
  Basis Set:

    Orbital Energies (a.u.)
    -----------------------

    Doubly Occupied:

       1A    -20.553145     2A    -20.545289     3A    -11.273762
       4A    -11.269154     5A    -11.266634     6A     -1.392604
       7A     -1.361296     8A     -1.021078     9A     -0.918717
      10A     -0.840792    11A     -0.697377    12A     -0.682200
      13A     -0.667168    14A     -0.628615    15A     -0.608375
      16A     -0.569349    17A     -0.539021    18A     -0.503714
      19A     -0.470475    20A     -0.439881    21A     -0.424087

  @DF-RHF Final Energy:  -268.05993863956962

   => Energetics <=

    Nuclear Repulsion Energy =            193.6579577162586929
    One-Electron Energy =                -750.0903304712361432
    Two-Electron Energy =                 288.3724341154078274
    DFT Exchange-Correlation Energy =       0.0000000000000000
    Empirical Dispersion Energy =           0.0000000000000000
    PCM Polarization Energy =               0.0000000000000000
    EFP Energy =                            0.0000000000000000
    Total Energy =                       -268.0599386395696229
    Molecular point group: c1
  Basis Set: CC-PVTZ
  Basis Set:

  -Total Gradient:
     Atom            X                  Y                   Z
    ------   -----------------  -----------------  -----------------
       1       -0.000003464370    -0.000005722190    -0.000006568132
       2        0.000016904418     0.000007189609     0.000000038332
       3        0.001538449318     0.002260788855     0.002187832753
       4       -0.000222168982    -0.000464639708    -0.003457170365
       5       -0.001279291412    -0.001852851842    -0.001299740364
       6        0.000003557557     0.000004697312     0.000001806891
       7        0.000002024988     0.000009360656    -0.000020838754
       8       -0.000051610657     0.000042596838     0.002594937256
       9        0.000000221520    -0.000002931568    -0.000001332842
      10       -0.000009076743     0.000004177362     0.000001399117
      11        0.000001354744     0.000000024104    -0.000000288467
      12        0.000001176031    -0.000001327890    -0.000000109594
      13        0.000001923582    -0.000001361539     0.000000034171

  **** Optimization is complete! (in 7 steps) ****
    Final optimized geometry and variables:
    Molecular point group: c1

    Geometry (in Angstrom), charge = 0, multiplicity = 1:

    H           -1.915152691958    -0.195490864754    -1.126199287152
    O           -1.896416835732     0.463694675363    -0.456217449894
    C           -0.693043335573     1.171410105917    -0.504339585818
    C            0.537424729126     0.290330303254    -0.465245477958
    H           -0.645197111591     1.773997464913    -1.409555275234
    H           -0.694644875370     1.833485547090     0.349745947165
    O            0.518040728008    -0.506075070455     0.671542991625
    H            1.419321028643     0.931353927381    -0.456373387233
    H            0.585489359871    -0.330087676266    -1.362415666271
    C            1.616683201118    -1.344985902075     0.804551421483
    H            2.545129799890    -0.781052430360     0.867861921967
    H            1.491176303498    -1.911609202975     1.715402462848
    H            1.693061454927    -2.038165054262    -0.030812015431

  Mulliken Charges: (a.u.)
   Center  Symbol    Alpha    Beta     Spin     Total
       1     H     0.39617  0.39617  0.00000  0.20766
       2     O     4.19581  4.19581  0.00000 -0.39162
       3     C     2.96287  2.96287  0.00000  0.07427
       4     C     2.97534  2.97534  0.00000  0.04933
       5     H     0.47492  0.47492  0.00000  0.05016
       6     H     0.45574  0.45574  0.00000  0.08851
       7     O     4.16652  4.16652  0.00000 -0.33304
       8     H     0.47264  0.47264  0.00000  0.05472
       9     H     0.47903  0.47903  0.00000  0.04193
      10     C     3.03125  3.03125  0.00000 -0.06249
      11     H     0.47194  0.47194  0.00000  0.05612
      12     H     0.44512  0.44512  0.00000  0.10976
      13     H     0.47265  0.47265  0.00000  0.05471

   Total alpha = 21.00000, Total beta = 21.00000, Total charge = -0.00000

*** Psi4 exiting successfully. Buy a developer a beer!
