  ==> Input File <==

--------------------------------------------------------------------------
set {
	reference rhf
	basis 6-31G*
}

set_num_threads( 4 )
memory 2 gb

molecule MOL {
0 1

H	 3.729471	 -0.928294	 -0.070608
O	 2.826016	 -1.159218	 0.122261
C	 2.077727	 -0.067559	 -0.035091
C	 0.624473	 -0.343591	 0.253101
O	 2.542965	 0.974826	 -0.363729
C	 -0.265902	 0.883932	 0.072916
H	 0.324016	 -1.163849	 -0.390541
H	 0.565024	 -0.726111	 1.268924
C	 -1.728698	 0.646073	 0.462102
H	 -0.209144	 1.219470	 -0.958188
H	 0.135059	 1.692851	 0.673903
C	 -2.482460	 -0.343073	 -0.431425
H	 -2.245265	 1.602650	 0.432430
H	 -1.779332	 0.308348	 1.496285
C	 -3.552546	 -1.124751	 0.330398
H	 -2.947317	 0.198702	 -1.252663
H	 -1.787404	 -1.046213	 -0.882948
H	 -4.071373	 -1.819610	 -0.322520
H	 -4.294007	 -0.457305	 0.760025
H	 -3.114985	 -1.698196	 1.142763

	symmetry c1
}
set optking {
	frozen_dihedral = ("
		16 12 9 6
	")
}

ee = optimize('scf')
oeprop('DIPOLE', 'QUADRUPOLE', 'MULLIKEN_CHARGES')
f=open( 'psi4out.xyz', 'w' )
f.write( "20  " )
f.write( str(ee) + "\n" )
f.write( MOL.save_string_xyz() )
f.close()
--------------------------------------------------------------------------

    Molecular point group: c1
  Charge       = 0
  Multiplicity = 1
  Basis Set: 6-31G*
  Basis Set:
  @DF-RHF Final Energy:  -383.94505928412525
    Total Energy =                       -383.9450592841251364
    Molecular point group: c1
  Basis Set: 6-31G*
  Basis Set:
  Basis Set: 6-31G*
  Basis Set:
  @DF-RHF Final Energy:  -383.94533707019644
    Total Energy =                       -383.9453370701964445
  Basis Set: 6-31G*
  Basis Set:
  Basis Set: 6-31G*
  Basis Set:
  @DF-RHF Final Energy:  -383.94557723258941
    Total Energy =                       -383.9455772325892440
  Basis Set: 6-31G*
  Basis Set:
  Basis Set: 6-31G*
  Basis Set:
  @DF-RHF Final Energy:  -383.94558526377574
    Total Energy =                       -383.9455852637756834
  Basis Set: 6-31G*
  Basis Set:
  Basis Set: 6-31G*
  Basis Set:
  @DF-RHF Final Energy:  -383.94559148229172
    Total Energy =                       -383.9455914822915474
  Basis Set: 6-31G*
  Basis Set:
  Basis Set: 6-31G*
  Basis Set:
  @DF-RHF Final Energy:  -383.94560242566104
    Total Energy =                       -383.9456024256607520
  Basis Set: 6-31G*
  Basis Set:
  Basis Set: 6-31G*
  Basis Set:
  @DF-RHF Final Energy:  -383.94560357594969
    Total Energy =                       -383.9456035759498036
  Basis Set: 6-31G*
  Basis Set:
  Charge       = 0
  Multiplicity = 1
  Basis Set: 6-31G*
  Basis Set:

    Orbital Energies (a.u.)
    -----------------------

    Doubly Occupied:

       1A    -20.612692     2A    -20.551769     3A    -11.381395
       4A    -11.240584     5A    -11.223156     6A    -11.220559
       7A    -11.219972     8A    -11.212494     9A     -1.474759
      10A     -1.365817    11A     -1.095613    12A     -1.040250
      13A     -0.961119    14A     -0.868761    15A     -0.814276
      16A     -0.779520    17A     -0.699691    18A     -0.690921
      19A     -0.663667    20A     -0.632010    21A     -0.605861
      22A     -0.592718    23A     -0.579766    24A     -0.553145
      25A     -0.538637    26A     -0.510141    27A     -0.500813
      28A     -0.479393    29A     -0.469462    30A     -0.465708
      31A     -0.456194    32A     -0.443854

  @DF-RHF Final Energy:  -383.94560377122349

   => Energetics <=

    Nuclear Repulsion Energy =            376.9518577057289690
    One-Electron Energy =               -1269.9054907389636355
    Two-Electron Energy =                 509.0080292620108935
    DFT Exchange-Correlation Energy =       0.0000000000000000
    Empirical Dispersion Energy =           0.0000000000000000
    PCM Polarization Energy =               0.0000000000000000
    EFP Energy =                            0.0000000000000000
    Total Energy =                       -383.9456037712237162
    Molecular point group: c1
  Basis Set: 6-31G*
  Basis Set:

  -Total Gradient:
     Atom            X                  Y                   Z
    ------   -----------------  -----------------  -----------------
       1        0.000000195908     0.000000413009    -0.000000012015
       2       -0.000003266957    -0.000000036568    -0.000002817287
       3       -0.000005080166     0.000005233365     0.000000986397
       4       -0.000004152955    -0.000006777001    -0.000016640475
       5        0.000003989094     0.000002365179     0.000003493469
       6        0.000857093589    -0.002263716996     0.001605677757
       7       -0.000002578890    -0.000003132875     0.000005242307
       8       -0.000000362797     0.000005704727     0.000003976995
       9       -0.001935381877     0.003284073330    -0.001750886847
      10       -0.000000350354     0.000001763138    -0.000004496697
      11       -0.000003231344    -0.000004141294     0.000002304177
      12        0.004267718908    -0.001416757381    -0.002103000748
      13       -0.000004560623    -0.000007060435    -0.000004564505
      14        0.000002585646    -0.000003567364     0.000003547401
      15        0.000010367556     0.000002200016     0.000007651454
      16       -0.003187921641     0.000402514339     0.002240910874
      17        0.000001658996     0.000001603918     0.000005342967
      18        0.000006467806     0.000000610743    -0.000001708337
      19       -0.000000287406    -0.000000817098    -0.000004100931
      20       -0.000002902495    -0.000000474746     0.000009094046

  **** Optimization is complete! (in 8 steps) ****
    Final optimized geometry and variables:
    Molecular point group: c1

    Geometry (in Angstrom), charge = 0, multiplicity = 1:

    H            3.687394954938    -0.829200320031    -0.130776786853
    O            2.798656779047    -1.042944377707     0.136093113829
    C            2.028882269590     0.018738064230    -0.101888376527
    C            0.597173623866    -0.232534674585     0.295671284041
    O            2.462052490313     1.020570736394    -0.570535836761
    C           -0.316928821738     0.962969681422     0.037596027890
    H            0.270613861693    -1.121018915753    -0.235292835590
    H            0.598754423377    -0.501716224522     1.348643609304
    C           -1.772061985988     0.707022541694     0.448141968099
    H           -0.267561110277     1.235400920771    -1.012338144431
    H            0.069142198206     1.815455992193     0.586200593529
    C           -2.545709670945    -0.243889960853    -0.483260681577
    H           -2.297998442903     1.655683428377     0.501835152329
    H           -1.779033502533     0.306577060682     1.460770287593
    C           -3.630838027139    -1.035604780892     0.249140754772
    H           -3.024977098040     0.338698931381    -1.265624156896
    H           -1.871386257002    -0.937285271216    -0.976718146625
    H           -4.197387640625    -1.656505644092    -0.437965326780
    H           -4.330662004134    -0.370001755971     0.746876002962
    H           -3.199819760126    -1.684949277507     1.005997906619

  Mulliken Charges: (a.u.)
   Center  Symbol    Alpha    Beta     Spin     Total
       1     H     0.26782  0.26782  0.00000  0.46436
       2     O     4.35153  4.35153  0.00000 -0.70306
       3     C     2.62246  2.62246  0.00000  0.75508
       4     C     3.21189  3.21189  0.00000 -0.42378
       5     O     4.27911  4.27911  0.00000 -0.55823
       6     C     3.15530  3.15530  0.00000 -0.31060
       7     H     0.39773  0.39773  0.00000  0.20454
       8     H     0.39871  0.39871  0.00000  0.20257
       9     C     3.15836  3.15836  0.00000 -0.31673
      10     H     0.41078  0.41078  0.00000  0.17843
      11     H     0.40964  0.40964  0.00000  0.18073
      12     C     3.15488  3.15488  0.00000 -0.30976
      13     H     0.41539  0.41539  0.00000  0.16923
      14     H     0.42335  0.42335  0.00000  0.15330
      15     C     3.24000  3.24000  0.00000 -0.47999
      16     H     0.41869  0.41869  0.00000  0.16263
      17     H     0.42243  0.42243  0.00000  0.15515
      18     H     0.41909  0.41909  0.00000  0.16182
      19     H     0.42071  0.42071  0.00000  0.15858
      20     H     0.42214  0.42214  0.00000  0.15572

   Total alpha = 32.00000, Total beta = 32.00000, Total charge =  0.00000
