  ==> Input File <==

--------------------------------------------------------------------------
set {
	reference rhf
	basis 6-31G*
}

set_num_threads( 4 )
memory 2 gb

molecule MOL {
0 1

H	 0.109636	 -3.475475	 -1.225615
O	 0.369664	 -2.702043	 -0.734722
C	 -0.644104	 -1.837522	 -0.757240
C	 -0.318135	 -0.576402	 0.000164
O	 -1.663923	 -2.073382	 -1.318789
C	 -1.454360	 0.441875	 -0.000474
H	 -0.049181	 -0.866497	 1.012346
H	 0.584997	 -0.159660	 -0.437652
C	 -2.826123	 -0.230780	 0.000056
H	 -1.357605	 1.085198	 -0.868380
H	 -1.357504	 1.086451	 0.866496
H	 -2.959731	 -0.858053	 -0.876869
H	 -3.619374	 0.509403	 -0.000080
H	 -2.959371	 -0.857318	 0.877556

	symmetry c1
}
set optking {
	frozen_dihedral = ("
		7 4 6 10
	")
}

ee = optimize('scf')
oeprop('DIPOLE', 'QUADRUPOLE', 'MULLIKEN_CHARGES')
f=open( 'psi4out.xyz', 'w' )
f.write( "14  " )
f.write( str(ee) + "\n" )
f.write( MOL.save_string_xyz() )
f.close()
--------------------------------------------------------------------------

    Molecular point group: c1
  Charge       = 0
  Multiplicity = 1
  Basis Set: 6-31G*
  Basis Set:
  @DF-RHF Final Energy:  -305.85926647684232
    Total Energy =                       -305.8592664768423219
    Molecular point group: c1
  Basis Set: 6-31G*
  Basis Set:
  Basis Set: 6-31G*
  Basis Set:
  @DF-RHF Final Energy:  -305.87128827829730
    Total Energy =                       -305.8712882782972997
  Basis Set: 6-31G*
  Basis Set:
  Basis Set: 6-31G*
  Basis Set:
  @DF-RHF Final Energy:  -305.87388723919821
    Total Energy =                       -305.8738872391982682
  Basis Set: 6-31G*
  Basis Set:
  Basis Set: 6-31G*
  Basis Set:
  @DF-RHF Final Energy:  -305.87200775189882
    Total Energy =                       -305.8720077518988774
  Basis Set: 6-31G*
  Basis Set:
  @DF-RHF Final Energy:  -305.87518596505606
    Total Energy =                       -305.8751859650564029
  @DF-RHF Final Energy:  -305.87567119377064
    Total Energy =                       -305.8756711937706996
  @DF-RHF Final Energy:  -305.87581262997793
    Total Energy =                       -305.8758126299779860
  @DF-RHF Final Energy:  -305.87591344410043
    Total Energy =                       -305.8759134441003766
  @DF-RHF Final Energy:  -305.87599219460810
    Total Energy =                       -305.8759921946083864
  Basis Set: 6-31G*
  Basis Set:
  @DF-RHF Final Energy:  -305.87609237695358
    Total Energy =                       -305.8760923769536930
  Basis Set: 6-31G*
  Basis Set:
  Basis Set: 6-31G*
  Basis Set:
  @DF-RHF Final Energy:  -305.87609896355241
    Total Energy =                       -305.8760989635525220
  Basis Set: 6-31G*
  Basis Set:
  Basis Set: 6-31G*
  Basis Set:
  @DF-RHF Final Energy:  -305.87610024145783
    Total Energy =                       -305.8761002414580048
  Basis Set: 6-31G*
  Basis Set:
  Charge       = 0
  Multiplicity = 1
  Basis Set: 6-31G*
  Basis Set:

    Orbital Energies (a.u.)
    -----------------------

    Doubly Occupied:

       1A    -20.614540     2A    -20.550735     3A    -11.382771
       4A    -11.241470     5A    -11.229530     6A    -11.209646
       7A     -1.475966     8A     -1.366054     9A     -1.079707
      10A     -0.976753    11A     -0.863746    12A     -0.788130
      13A     -0.702729    14A     -0.687118    15A     -0.658070
      16A     -0.616173    17A     -0.592781    18A     -0.568080
      19A     -0.553446    20A     -0.502378    21A     -0.489552
      22A     -0.481739    23A     -0.475324    24A     -0.440298

  @DF-RHF Final Energy:  -305.87610043453356

   => Energetics <=

    Nuclear Repulsion Energy =            244.9961436443880984
    One-Electron Energy =                -902.6510138209987417
    Two-Electron Energy =                 351.7787697420770883
    DFT Exchange-Correlation Energy =       0.0000000000000000
    Empirical Dispersion Energy =           0.0000000000000000
    PCM Polarization Energy =               0.0000000000000000
    EFP Energy =                            0.0000000000000000
    Total Energy =                       -305.8761004345335550
    Molecular point group: c1
  Basis Set: 6-31G*
  Basis Set:

  -Total Gradient:
     Atom            X                  Y                   Z
    ------   -----------------  -----------------  -----------------
       1        0.000004851432     0.000014491975    -0.000007946585
       2       -0.000000649834     0.000017951385     0.000023144080
       3       -0.000041256700    -0.000016818381     0.000007596331
       4       -0.004565219425    -0.005413739220     0.000688527387
       5       -0.000022734661     0.000035539194     0.000003722625
       6       -0.003431838472    -0.004023949371    -0.004139856632
       7        0.004334156292     0.005114306804     0.000084620860
       8        0.000011029134    -0.000009466517     0.000000505579
       9        0.000032134919    -0.000017868061    -0.000019494572
      10        0.003673101495     0.004320403745     0.003363208665
      11       -0.000005070848    -0.000010086300     0.000000048887
      12        0.000011973045    -0.000011915075    -0.000008666520
      13        0.000000600283    -0.000000986759    -0.000000364963
      14       -0.000001076662     0.000002136585     0.000004954859

  **** Optimization is complete! (in 13 steps) ****
    Final optimized geometry and variables:
    Molecular point group: c1

    Geometry (in Angstrom), charge = 0, multiplicity = 1:

    H            1.100845742448    -2.379281792285    -0.489125765113
    O            1.215977871432    -1.651051204555     0.113897661854
    C            0.514122179220    -0.618803583416    -0.348431832239
    C            0.694109446525     0.614650855313     0.495754591456
    O           -0.128422412737    -0.688721154905    -1.346184591931
    C           -0.477043382121     1.609150805430     0.495178867255
    H            0.989937971809     0.347591233303     1.502767615871
    H            1.570712709894     1.109029869125     0.079084925706
    C           -1.867954061160     0.997341712130     0.652321643388
    H           -0.418681943925     2.243062589775    -0.382817959579
    H           -0.299623615689     2.281462325068     1.331244511713
    H           -2.139052553197     0.395044763987    -0.204055647675
    H           -2.610787368411     1.780632688381     0.763464380701
    H           -1.918369449094     0.370729548421     1.539486917415

  Mulliken Charges: (a.u.)
   Center  Symbol    Alpha    Beta     Spin     Total
       1     H     0.26799  0.26799  0.00000  0.46401
       2     O     4.34930  4.34930  0.00000 -0.69861
       3     C     2.62175  2.62175  0.00000  0.75651
       4     C     3.21562  3.21562  0.00000 -0.43125
       5     O     4.28144  4.28144  0.00000 -0.56289
       6     C     3.14926  3.14926  0.00000 -0.29852
       7     H     0.39779  0.39779  0.00000  0.20443
       8     H     0.39615  0.39615  0.00000  0.20769
       9     C     3.25101  3.25101  0.00000 -0.50202
      10     H     0.41116  0.41116  0.00000  0.17768
      11     H     0.41776  0.41776  0.00000  0.16448
      12     H     0.39947  0.39947  0.00000  0.20106
      13     H     0.41797  0.41797  0.00000  0.16405
      14     H     0.42331  0.42331  0.00000  0.15338

   Total alpha = 24.00000, Total beta = 24.00000, Total charge = -0.00000
