  ==> Input File <==

--------------------------------------------------------------------------
set {
	reference rhf
	basis 6-31G*
}

set_num_threads( 4 )
memory 2 gb

molecule MOL {
0 1

H	 2.845955	 -0.323208	 0.022310
C	 1.900140	 0.071967	 -0.330070
C	 0.778463	 -0.508087	 0.517968
H	 1.782469	 -0.206877	 -1.370777
H	 1.922247	 1.149867	 -0.254252
N	 -0.540928	 0.005139	 0.058438
H	 0.716718	 -1.581298	 0.454712
H	 0.859711	 -0.198647	 1.550086
O	 -1.344458	 -0.791079	 -0.315258
O	 -0.703679	 1.186857	 0.097870

	symmetry c1
}
set optking {
	frozen_dihedral = ("
		9 6 3 2
	")
}

ee = optimize('scf')
oeprop('DIPOLE', 'QUADRUPOLE', 'MULLIKEN_CHARGES')
f=open( 'psi4out.xyz', 'w' )
f.write( "10  " )
f.write( str(ee) + "\n" )
f.write( MOL.save_string_xyz() )
f.close()
--------------------------------------------------------------------------

    Molecular point group: c1
  Charge       = 0
  Multiplicity = 1
  Basis Set: 6-31G*
  Basis Set:
  @DF-RHF Final Energy:  -282.70051521352605
    Total Energy =                       -282.7005152135262733
    Molecular point group: c1
  Basis Set: 6-31G*
  Basis Set:
  Basis Set: 6-31G*
  Basis Set:
  @DF-RHF Final Energy:  -282.70051345781110
    Total Energy =                       -282.7005134578109846
  Basis Set: 6-31G*
  Basis Set:
  Charge       = 0
  Multiplicity = 1
  Basis Set: 6-31G*
  Basis Set:

    Orbital Energies (a.u.)
    -----------------------

    Doubly Occupied:

       1A    -20.604637     2A    -20.600348     3A    -15.848936
       4A    -11.303988     5A    -11.251419     6A     -1.632641
       7A     -1.418132     8A     -1.127214     9A     -0.967373
      10A     -0.837006    11A     -0.761284    12A     -0.738015
      13A     -0.725944    14A     -0.655129    15A     -0.590661
      16A     -0.562640    17A     -0.545417    18A     -0.485909
      19A     -0.478112    20A     -0.450122

  @DF-RHF Final Energy:  -282.70051505818486

   => Energetics <=

    Nuclear Repulsion Energy =            186.1986059975650960
    One-Electron Energy =                -754.6283831674763860
    Two-Electron Energy =                 285.7292621117264844
    DFT Exchange-Correlation Energy =       0.0000000000000000
    Empirical Dispersion Energy =           0.0000000000000000
    PCM Polarization Energy =               0.0000000000000000
    EFP Energy =                            0.0000000000000000
    Total Energy =                       -282.7005150581848056
    Molecular point group: c1
  Basis Set: 6-31G*
  Basis Set:

  -Total Gradient:
     Atom            X                  Y                   Z
    ------   -----------------  -----------------  -----------------
       1       -0.000096078375     0.000043260844    -0.000015573392
       2       -0.000012409816    -0.000173865412    -0.000033929403
       3       -0.000078115494    -0.000023529680     0.000242394412
       4        0.000002921540    -0.000004310821    -0.000007456203
       5        0.000000418797     0.000135379389     0.000025599028
       6        0.000115311406     0.000081294660    -0.000208263278
       7        0.000056207177     0.000019026843    -0.000037987247
       8        0.000060035188    -0.000016290792    -0.000035272593
       9       -0.000024264428     0.000101777844     0.000051709354
      10       -0.000024025990    -0.000162742876     0.000018779321

  **** Optimization is complete! (in 3 steps) ****
    Final optimized geometry and variables:
    Molecular point group: c1

    Geometry (in Angstrom), charge = 0, multiplicity = 1:

    H            2.845329688507    -0.322459582605     0.022328666004
    C            1.899276995434     0.071703904847    -0.329798097416
    C            0.778112460008    -0.508644412432     0.518906775958
    H            1.781280387081    -0.207491480728    -1.370374710731
    H            1.920681393165     1.149942806866    -0.254103671468
    N           -0.540609784328     0.005170667123     0.058273751659
    H            0.716922864957    -1.581790801096     0.454875509955
    H            0.859947892265    -0.199179961837     1.550813171832
    O           -1.344581482463    -0.790380678335    -0.315816822314
    O           -0.702707264146     1.186815715653     0.097496652840

  Mulliken Charges: (a.u.)
   Center  Symbol    Alpha    Beta     Spin     Total
       1     H     0.40585  0.40585  0.00000  0.18829
       2     C     3.25705  3.25705  0.00000 -0.51410
       3     C     3.09262  3.09262  0.00000 -0.18524
       4     H     0.40269  0.40269  0.00000  0.19461
       5     H     0.39281  0.39281  0.00000  0.21438
       6     N     3.21880  3.21880  0.00000  0.56240
       7     H     0.38534  0.38534  0.00000  0.22932
       8     H     0.38708  0.38708  0.00000  0.22584
       9     O     4.22731  4.22731  0.00000 -0.45462
      10     O     4.23044  4.23044  0.00000 -0.46089

   Total alpha = 20.00000, Total beta = 20.00000, Total charge =  0.00000
