  ==> Input File <==

--------------------------------------------------------------------------
set {
	reference rhf
	basis cc-pvtz
}

set_num_threads( 4 )
memory 2 gb

molecule MOL {
0 1

H	 1.238921	 -1.617807	 1.476723
O	 0.566211	 -1.052412	 1.145295
C	 1.135873	 0.113391	 0.608264
C	 0.027642	 1.012027	 0.090274
H	 1.803571	 -0.135501	 -0.212711
H	 1.725737	 0.628744	 1.361214
C	 -1.138737	 0.285728	 -0.581921
H	 0.464661	 1.708096	 -0.618252
H	 -0.340737	 1.603071	 0.925246
C	 -1.933983	 -0.631436	 0.343653
H	 -0.763151	 -0.285569	 -1.422081
H	 -1.808359	 1.035291	 -0.992333
H	 -2.789188	 -1.049673	 -0.174718
H	 -1.335629	 -1.461368	 0.700418
H	 -2.305435	 -0.092167	 1.209725

	symmetry c1
}
set optking {
	frozen_dihedral = ("
		2 3 4 8
	")
}

ee = optimize('scf')
oeprop('DIPOLE', 'QUADRUPOLE', 'MULLIKEN_CHARGES')
f=open( 'psi4out.xyz', 'w' )
f.write( "15  " )
f.write( str(ee) + "\n" )
f.write( MOL.save_string_xyz() )
f.close()
--------------------------------------------------------------------------

    Molecular point group: c1
  Charge       = 0
  Multiplicity = 1
  Basis Set: CC-PVTZ
  Basis Set:
  @DF-RHF Final Energy:  -232.22518840483124
    Total Energy =                       -232.2251884048311013
    Molecular point group: c1
  Basis Set: CC-PVTZ
  Basis Set:
  Basis Set: CC-PVTZ
  Basis Set:
  @DF-RHF Final Energy:  -232.23129798939632
    Total Energy =                       -232.2312979893961256
  Basis Set: CC-PVTZ
  Basis Set:
  Basis Set: CC-PVTZ
  Basis Set:
  @DF-RHF Final Energy:  -232.23268833570816
    Total Energy =                       -232.2326883357083034
  Basis Set: CC-PVTZ
  Basis Set:
  Basis Set: CC-PVTZ
  Basis Set:
  @DF-RHF Final Energy:  -232.23327921541784
    Total Energy =                       -232.2332792154175536
  Basis Set: CC-PVTZ
  Basis Set:
  Basis Set: CC-PVTZ
  Basis Set:
  @DF-RHF Final Energy:  -232.23335631694104
    Total Energy =                       -232.2333563169413537
  Basis Set: CC-PVTZ
  Basis Set:
  Basis Set: CC-PVTZ
  Basis Set:
  @DF-RHF Final Energy:  -232.23336013673088
    Total Energy =                       -232.2333601367308802
  Basis Set: CC-PVTZ
  Basis Set:
  Charge       = 0
  Multiplicity = 1
  Basis Set: CC-PVTZ
  Basis Set:

    Orbital Energies (a.u.)
    -----------------------

    Doubly Occupied:

       1A    -20.547727     2A    -11.267442     3A    -11.212092
       4A    -11.207408     5A    -11.191897     6A     -1.366076
       7A     -1.060875     8A     -0.970956     9A     -0.860315
      10A     -0.778364    11A     -0.708277    12A     -0.647253
      13A     -0.605488    14A     -0.582874    15A     -0.546392
      16A     -0.538581    17A     -0.510897    18A     -0.473262
      19A     -0.461948    20A     -0.447048    21A     -0.433122

  @DF-RHF Final Energy:  -232.23336069048688

   => Energetics <=

    Nuclear Repulsion Energy =            192.8698399626025264
    One-Electron Energy =                -697.3698145619375737
    Two-Electron Energy =                 272.2666139088482851
    DFT Exchange-Correlation Energy =       0.0000000000000000
    Empirical Dispersion Energy =           0.0000000000000000
    PCM Polarization Energy =               0.0000000000000000
    EFP Energy =                            0.0000000000000000
    Total Energy =                       -232.2333606904867338
    Molecular point group: c1
  Basis Set: CC-PVTZ
  Basis Set:

  -Total Gradient:
     Atom            X                  Y                   Z
    ------   -----------------  -----------------  -----------------
       1       -0.000003340854     0.000012014293     0.000002189842
       2        0.000179559647    -0.001381963756    -0.003773005713
       3       -0.000403861736     0.001248037495     0.004173525266
       4        0.000972759775     0.003112678217     0.003604999175
       5        0.000024799385    -0.000008897909    -0.000001786714
       6       -0.000015128936    -0.000007359285    -0.000004586099
       7        0.000022777820    -0.000020948613    -0.000061196967
       8       -0.000774842817    -0.002984089826    -0.004010015441
       9       -0.000021066693     0.000015905155     0.000015524086
      10       -0.000001233686     0.000055488124     0.000012425984
      11       -0.000000021835     0.000016876478     0.000014960489
      12        0.000013473393     0.000000518020     0.000006390182
      13       -0.000009341275    -0.000022764130     0.000005146763
      14        0.000016984018    -0.000031296241     0.000014801676
      15       -0.000001516205    -0.000004198023     0.000000627472

  **** Optimization is complete! (in 7 steps) ****
    Final optimized geometry and variables:
    Molecular point group: c1

    Geometry (in Angstrom), charge = 0, multiplicity = 1:

    H            1.811594142604    -1.520393842179     0.919585055788
    O            1.046034176586    -1.029405739220     0.685586792934
    C            1.418527855574     0.247429368451     0.236745889399
    C            0.193412908096     1.075506341809    -0.136327896373
    H            2.052997437201     0.147276399478    -0.641537984302
    H            1.994104096426     0.769805122195     0.996103832958
    C           -0.903143207755     0.315091772358    -0.898125643747
    H            0.550555596557     1.866855179958    -0.787926231233
    H           -0.231315559493     1.541421325921     0.746490973432
    C           -1.915159657276    -0.407447463010    -0.012297194615
    H           -0.443298247833    -0.393514461427    -1.579820740650
    H           -1.438729076249     1.028461678969    -1.516920251274
    H           -2.669071186579    -0.899702978763    -0.617419636075
    H           -1.437827938493    -1.151512943586     0.607877754773
    H           -2.426383863447     0.296415147148     0.637396231014

  Mulliken Charges: (a.u.)
   Center  Symbol    Alpha    Beta     Spin     Total
       1     H     0.39778  0.39778  0.00000  0.20445
       2     O     4.19343  4.19343  0.00000 -0.38686
       3     C     2.97130  2.97130  0.00000  0.05740
       4     C     3.09796  3.09796  0.00000 -0.19592
       5     H     0.47360  0.47360  0.00000  0.05280
       6     H     0.46681  0.46681  0.00000  0.06637
       7     C     3.08295  3.08295  0.00000 -0.16590
       8     H     0.45017  0.45017  0.00000  0.09966
       9     H     0.45387  0.45387  0.00000  0.09226
      10     C     3.14700  3.14700  0.00000 -0.29400
      11     H     0.45524  0.45524  0.00000  0.08951
      12     H     0.45128  0.45128  0.00000  0.09744
      13     H     0.45364  0.45364  0.00000  0.09271
      14     H     0.44445  0.44445  0.00000  0.11110
      15     H     0.46051  0.46051  0.00000  0.07898

   Total alpha = 21.00000, Total beta = 21.00000, Total charge =  0.00000
