  ==> Input File <==

--------------------------------------------------------------------------
set {
	reference rhf
	basis 6-31G*
}

set_num_threads( 4 )
memory 2 gb

molecule MOL {
0 1

H	 0.135079	 4.238578	 -0.107032
O	 -0.159382	 3.713018	 -0.837422
C	 -0.159802	 2.358355	 -0.474276
C	 1.251703	 1.800922	 -0.423391
H	 -0.650241	 2.199513	 0.482070
H	 -0.728876	 1.831524	 -1.227306
O	 1.171513	 0.459272	 -0.058250
H	 1.849414	 2.359973	 0.299232
H	 1.725291	 1.916166	 -1.396538
C	 2.397842	 -0.198080	 -0.002151
H	 2.508049	 -0.905315	 -0.822092
H	 3.173794	 0.550865	 -0.078850
H	 2.517602	 -0.735921	 0.936026

	symmetry c1
}
set optking {
	frozen_dihedral = ("
		4 7 10 13
	")
}

ee = optimize('scf')
oeprop('DIPOLE', 'QUADRUPOLE', 'MULLIKEN_CHARGES')
f=open( 'psi4out.xyz', 'w' )
f.write( "13  " )
f.write( str(ee) + "\n" )
f.write( MOL.save_string_xyz() )
f.close()
--------------------------------------------------------------------------

    Molecular point group: c1
  Charge       = 0
  Multiplicity = 1
  Basis Set: 6-31G*
  Basis Set:
  @DF-RHF Final Energy:  -267.94584130024680
    Total Energy =                       -267.9458413002468546
    Molecular point group: c1
  Basis Set: 6-31G*
  Basis Set:
  Basis Set: 6-31G*
  Basis Set:
  @DF-RHF Final Energy:  -267.94670576520298
    Total Energy =                       -267.9467057652029212
  Basis Set: 6-31G*
  Basis Set:
  Basis Set: 6-31G*
  Basis Set:
  @DF-RHF Final Energy:  -267.94699400767865
    Total Energy =                       -267.9469940076788816
  Basis Set: 6-31G*
  Basis Set:
  Charge       = 0
  Multiplicity = 1
  Basis Set: 6-31G*
  Basis Set:

    Orbital Energies (a.u.)
    -----------------------

    Doubly Occupied:

       1A    -20.559777     2A    -20.558645     3A    -11.271257
       4A    -11.269826     5A    -11.268362     6A     -1.384314
       7A     -1.364273     8A     -1.018204     9A     -0.913597
      10A     -0.841515    11A     -0.708521    12A     -0.671386
      13A     -0.658321    14A     -0.635738    15A     -0.596922
      16A     -0.567726    17A     -0.549307    18A     -0.488797
      19A     -0.481467    20A     -0.437819    21A     -0.416773

  @DF-RHF Final Energy:  -267.94699604935613

   => Energetics <=

    Nuclear Repulsion Energy =            189.9269705640663233
    One-Electron Energy =                -742.4228358158184164
    Two-Electron Energy =                 284.5488692023961903
    DFT Exchange-Correlation Energy =       0.0000000000000000
    Empirical Dispersion Energy =           0.0000000000000000
    PCM Polarization Energy =               0.0000000000000000
    EFP Energy =                            0.0000000000000000
    Total Energy =                       -267.9469960493559029
    Molecular point group: c1
  Basis Set: 6-31G*
  Basis Set:

  -Total Gradient:
     Atom            X                  Y                   Z
    ------   -----------------  -----------------  -----------------
       1        0.000000557181     0.000011594099    -0.000001553110
       2        0.000011723919     0.000012503552     0.000002901416
       3       -0.000025222596    -0.000036765664     0.000002769580
       4        0.000167054338     0.000309198737     0.001175662604
       5       -0.000003561721    -0.000004726643    -0.000004844536
       6       -0.000004353986    -0.000003749664     0.000006038826
       7        0.000092200779    -0.000252436394    -0.001484848655
       8        0.000001741098    -0.000025883683     0.000004103903
       9       -0.000000949732    -0.000023989647     0.000018369221
      10       -0.000792477194    -0.001225846181    -0.000344470552
      11       -0.000028741441    -0.000017672184     0.000006014822
      12        0.000038821084     0.000015197556     0.000003843008
      13        0.000543208271     0.001242576112     0.000616013472

  **** Optimization is complete! (in 4 steps) ****
    Final optimized geometry and variables:
    Molecular point group: c1

    Geometry (in Angstrom), charge = 0, multiplicity = 1:

    H           -0.801236805989     2.581422172594     0.258701449478
    O           -1.088124266741     2.054391832350    -0.473612644928
    C           -1.067285041396     0.698038804479    -0.116195688304
    C            0.352299447353     0.161114796621    -0.073778590403
    H           -1.550466221682     0.528227150264     0.841874464418
    H           -1.632274909481     0.165692094205    -0.868376120026
    O            0.287552173234    -1.182952710158     0.289954221852
    H            0.943654890469     0.726907219766     0.647746894319
    H            0.816624598937     0.287531721871    -1.049391876417
    C            1.506912848487    -1.864105480316     0.353865140917
    H            1.578124443219    -2.584646019846    -0.454268291697
    H            2.351395281229    -1.184846143488     0.285077379382
    H            1.570496659500    -2.384869591165     1.302008133234

  Mulliken Charges: (a.u.)
   Center  Symbol    Alpha    Beta     Spin     Total
       1     H     0.28132  0.28132  0.00000  0.43736
       2     O     4.37095  4.37095  0.00000 -0.74191
       3     C     3.00496  3.00496  0.00000 -0.00993
       4     C     2.99629  2.99629  0.00000  0.00741
       5     H     0.42235  0.42235  0.00000  0.15530
       6     H     0.40848  0.40848  0.00000  0.18304
       7     O     4.31217  4.31217  0.00000 -0.62434
       8     H     0.43726  0.43726  0.00000  0.12548
       9     H     0.42327  0.42327  0.00000  0.15346
      10     C     3.07669  3.07669  0.00000 -0.15338
      11     H     0.42036  0.42036  0.00000  0.15928
      12     H     0.42841  0.42841  0.00000  0.14318
      13     H     0.41749  0.41749  0.00000  0.16503

   Total alpha = 21.00000, Total beta = 21.00000, Total charge =  0.00000
