  ==> Input File <==

--------------------------------------------------------------------------
set {
	reference rhf
	basis cc-pvtz
}

set_num_threads( 4 )
memory 2 gb

molecule MOL {
0 1

H	 1.651322	 -0.822465	 0.000000
O	 0.729993	 -1.034364	 0.000000
C	 0.037305	 0.100061	 0.000000
C	 -1.423941	 -0.133557	 0.241371
O	 0.546391	 1.152481	 -0.173320
H	 -1.817121	 -0.786711	 -0.526919
H	 -1.946377	 0.808633	 0.233414
H	 -1.558061	 -0.628527	 1.194515

	symmetry c1
}
set optking {
	frozen_dihedral = ("
		4 3 2 1
	")
}

ee = optimize('scf')
oeprop('DIPOLE', 'QUADRUPOLE', 'MULLIKEN_CHARGES')
f=open( 'psi4out.xyz', 'w' )
f.write( "8  " )
f.write( str(ee) + "\n" )
f.write( MOL.save_string_xyz() )
f.close()
--------------------------------------------------------------------------

    Molecular point group: c1
  Charge       = 0
  Multiplicity = 1
  Basis Set: CC-PVTZ
  Basis Set:
  @DF-RHF Final Energy:  -227.90409437338906
    Total Energy =                       -227.9040943733891140
    Molecular point group: c1
  Basis Set: CC-PVTZ
  Basis Set:
  Basis Set: CC-PVTZ
  Basis Set:
  @DF-RHF Final Energy:  -227.90326766910749
    Total Energy =                       -227.9032676691075210
  Basis Set: CC-PVTZ
  Basis Set:
  Basis Set: CC-PVTZ
  Basis Set:
  @DF-RHF Final Energy:  -227.90415109595062
    Total Energy =                       -227.9041510959507093
  Basis Set: CC-PVTZ
  Basis Set:
  Basis Set: CC-PVTZ
  Basis Set:
  @DF-RHF Final Energy:  -227.90416314085488
    Total Energy =                       -227.9041631408549335
  Basis Set: CC-PVTZ
  Basis Set:
  Basis Set: CC-PVTZ
  Basis Set:
  @DF-RHF Final Energy:  -227.90418763370303
    Total Energy =                       -227.9041876337029180
  Basis Set: CC-PVTZ
  Basis Set:
  Charge       = 0
  Multiplicity = 1
  Basis Set: CC-PVTZ
  Basis Set:

    Orbital Energies (a.u.)
    -----------------------

    Doubly Occupied:

       1A    -20.606660     2A    -20.542487     3A    -11.378473
       4A    -11.239335     5A     -1.479919     6A     -1.371817
       7A     -1.028402     8A     -0.834593     9A     -0.707084
      10A     -0.686163    11A     -0.657769    12A     -0.584788
      13A     -0.574552    14A     -0.562362    15A     -0.486154
      16A     -0.452471

  @DF-RHF Final Energy:  -227.90418848830581

   => Energetics <=

    Nuclear Repulsion Energy =            122.7807862782995443
    One-Electron Energy =                -554.9838918383952659
    Two-Electron Energy =                 204.2989170717901573
    DFT Exchange-Correlation Energy =       0.0000000000000000
    Empirical Dispersion Energy =           0.0000000000000000
    PCM Polarization Energy =               0.0000000000000000
    EFP Energy =                            0.0000000000000000
    Total Energy =                       -227.9041884883055502
    Molecular point group: c1
  Basis Set: CC-PVTZ
  Basis Set:

  -Total Gradient:
     Atom            X                  Y                   Z
    ------   -----------------  -----------------  -----------------
       1       -0.000049567416    -0.000180437742     0.003522748849
       2        0.000173851414     0.000079442343    -0.003369726999
       3       -0.000423616942     0.000081955618    -0.002399702789
       4        0.000359238443     0.000094628635     0.002279749963
       5       -0.000068224117    -0.000036387601     0.000001260563
       6        0.000007437167    -0.000025772536    -0.000013487377
       7       -0.000003143471    -0.000009038973     0.000000951003
       8        0.000004024922    -0.000004389743    -0.000021793214

  **** Optimization is complete! (in 6 steps) ****
    Final optimized geometry and variables:
    Molecular point group: c1

    Geometry (in Angstrom), charge = 0, multiplicity = 1:

    H            1.643724157693    -0.834571293084    -0.069867407698
    O            0.720714235433    -1.038505014227    -0.083340881531
    C            0.035528713576     0.099876055632    -0.020541182609
    C           -1.427911666848    -0.136590215667     0.204773649058
    O            0.556230357769     1.157356204767    -0.101319316681
    H           -1.807881755795    -0.846519469858    -0.517618220185
    H           -1.961276427597     0.797009180657     0.134287777772
    H           -1.561738037565    -0.565023845978     1.190264784370

  Mulliken Charges: (a.u.)
   Center  Symbol    Alpha    Beta     Spin     Total
       1     H     0.38027  0.38027  0.00000  0.23946
       2     O     4.16173  4.16173  0.00000 -0.32346
       3     C     2.80261  2.80261  0.00000  0.39479
       4     C     3.13944  3.13944  0.00000 -0.27889
       5     O     4.19040  4.19040  0.00000 -0.38079
       6     H     0.44379  0.44379  0.00000  0.11243
       7     H     0.43733  0.43733  0.00000  0.12533
       8     H     0.44443  0.44443  0.00000  0.11113

   Total alpha = 16.00000, Total beta = 16.00000, Total charge = -0.00000
