  ==> Input File <==

--------------------------------------------------------------------------
set {
	reference rhf
	basis 6-31G*
}

set_num_threads( 4 )
memory 2 gb

molecule MOL {
0 1

H	 2.591676	 2.013956	 0.335017
O	 3.341076	 1.666752	 -0.126416
C	 3.569581	 0.339145	 0.272707
C	 2.440664	 -0.236413	 1.120649
H	 3.666407	 -0.230775	 -0.642438
H	 4.516655	 0.258920	 0.805056
C	 2.249133	 0.470611	 2.464636
H	 1.518680	 -0.186282	 0.547238
H	 2.649992	 -1.290806	 1.293288
C	 1.145178	 -0.164427	 3.314830
H	 2.014431	 1.516532	 2.287635
H	 3.185883	 0.449224	 3.021755
C	 0.969607	 0.452382	 4.707333
H	 0.201411	 -0.109352	 2.775277
H	 1.365072	 -1.223418	 3.432669
C	 0.465592	 1.898209	 4.712875
H	 0.267134	 -0.161733	 5.266985
H	 1.914192	 0.397551	 5.246398
C	 0.205869	 2.433560	 6.122619
H	 -0.453021	 1.960403	 4.131161
H	 1.184186	 2.546980	 4.217878
C	 -0.291207	 3.878726	 6.131319
H	 -0.523864	 1.798316	 6.620055
H	 1.120143	 2.363189	 6.708312
H	 -1.222549	 3.976297	 5.580588
H	 -0.467860	 4.228272	 7.143863
H	 0.433672	 4.545871	 5.673244

	symmetry c1
}
set optking {
	frozen_dihedral = ("
		4 3 2 1
	")
}

ee = optimize('scf')
oeprop('DIPOLE', 'QUADRUPOLE', 'MULLIKEN_CHARGES')
f=open( 'psi4out.xyz', 'w' )
f.write( "27  " )
f.write( str(ee) + "\n" )
f.write( MOL.save_string_xyz() )
f.close()
--------------------------------------------------------------------------

    Molecular point group: c1
  Charge       = 0
  Multiplicity = 1
  Basis Set: 6-31G*
  Basis Set:
  @DF-RHF Final Energy:  -388.27838584337974
    Total Energy =                       -388.2783858433797377
    Molecular point group: c1
  Basis Set: 6-31G*
  Basis Set:
  Basis Set: 6-31G*
  Basis Set:
  @DF-RHF Final Energy:  -388.27870932428596
    Total Energy =                       -388.2787093242860692
  Basis Set: 6-31G*
  Basis Set:
  Basis Set: 6-31G*
  Basis Set:
  @DF-RHF Final Energy:  -388.27885582576340
    Total Energy =                       -388.2788558257632303
  Basis Set: 6-31G*
  Basis Set:
  Basis Set: 6-31G*
  Basis Set:
  @DF-RHF Final Energy:  -388.27885245555007
    Total Energy =                       -388.2788524555501226
  Basis Set: 6-31G*
  Basis Set:
  Basis Set: 6-31G*
  Basis Set:
  @DF-RHF Final Energy:  -388.27885459586219
    Total Energy =                       -388.2788545958630948
  Basis Set: 6-31G*
  Basis Set:
  Basis Set: 6-31G*
  Basis Set:
  @DF-RHF Final Energy:  -388.27885815265421
    Total Energy =                       -388.2788581526541520
  Basis Set: 6-31G*
  Basis Set:
  Charge       = 0
  Multiplicity = 1
  Basis Set: 6-31G*
  Basis Set:

    Orbital Energies (a.u.)
    -----------------------

    Doubly Occupied:

       1A    -20.548143     2A    -11.266014     3A    -11.224622
       4A    -11.223996     5A    -11.220797     6A    -11.217921
       7A    -11.217321     8A    -11.216207     9A    -11.210284
      10A     -1.355657    11A     -1.098421    12A     -1.064501
      13A     -1.013858    14A     -0.950027    15A     -0.890233
      16A     -0.825651    17A     -0.806290    18A     -0.781509
      19A     -0.665621    20A     -0.657839    21A     -0.648224
      22A     -0.624505    23A     -0.607436    24A     -0.585440
      25A     -0.576963    26A     -0.563775    27A     -0.540593
      28A     -0.529299    29A     -0.509402    30A     -0.493700
      31A     -0.489069    32A     -0.479721    33A     -0.468421
      34A     -0.462832    35A     -0.449585    36A     -0.440280
      37A     -0.427463

  @DF-RHF Final Energy:  -388.27885803733068

   => Energetics <=

    Nuclear Repulsion Energy =            459.6380332516670251
    One-Electron Energy =               -1437.1305371130588355
    Two-Electron Energy =                 589.2136458240611319
    DFT Exchange-Correlation Energy =       0.0000000000000000
    Empirical Dispersion Energy =           0.0000000000000000
    PCM Polarization Energy =               0.0000000000000000
    EFP Energy =                            0.0000000000000000
    Total Energy =                       -388.2788580373306786
    Molecular point group: c1
  Basis Set: 6-31G*
  Basis Set:

  -Total Gradient:
     Atom            X                  Y                   Z
    ------   -----------------  -----------------  -----------------
       1       -0.000266052163    -0.000193531867    -0.000351541067
       2        0.000433116353     0.000298968622     0.000572523388
       3       -0.000318204420    -0.000222683694    -0.000515540668
       4        0.000127059478     0.000104633628     0.000270316575
       5        0.000018425549    -0.000013605378     0.000003455437
       6       -0.000011008140     0.000031487151     0.000002052840
       7        0.000053004491    -0.000004937618     0.000004278294
       8        0.000001631490    -0.000001308405     0.000021629079
       9        0.000014886389    -0.000003725992    -0.000004673965
      10       -0.000039046025     0.000018264911    -0.000008485484
      11       -0.000016515226    -0.000005411551     0.000008826429
      12        0.000011248781    -0.000017769102     0.000002207813
      13        0.000011212628     0.000012403915    -0.000014992550
      14       -0.000009151252    -0.000007440489    -0.000000307943
      15        0.000001332805     0.000009674348     0.000011297110
      16       -0.000015038285    -0.000000684835     0.000007996857
      17        0.000004942526    -0.000006735408    -0.000008096736
      18        0.000004427812     0.000000472686    -0.000001663999
      19       -0.000002007577     0.000001693787    -0.000003584495
      20       -0.000004753843     0.000002924378    -0.000001934522
      21       -0.000002858400    -0.000004577566     0.000004947267
      22        0.000003377264     0.000001350191     0.000002063857
      23       -0.000001320783     0.000001791316    -0.000001664405
      24        0.000000161152    -0.000002215371     0.000001021012
      25        0.000000422152    -0.000001203280     0.000000266190
      26        0.000000735285     0.000000987084     0.000000117833
      27       -0.000000028049     0.000001178540    -0.000000514151

  **** Optimization is complete! (in 7 steps) ****
    Final optimized geometry and variables:
    Molecular point group: c1

    Geometry (in Angstrom), charge = 0, multiplicity = 1:

    H            0.947227005974     0.785001115196    -2.905544964416
    O            1.713842026168     0.433747642152    -3.331842179592
    C            1.984770192458    -0.866522775781    -2.867250374590
    C            0.873617842715    -1.459004630789    -2.007418892183
    H            2.145376595027    -1.494582184197    -3.736720748016
    H            2.913715358935    -0.849925745587    -2.302560037881
    C            0.670850196712    -0.748220656399    -0.665086402811
    H           -0.054440712376    -1.450202278321    -2.577224704004
    H            1.110618187034    -2.504335929778    -1.823819896739
    C           -0.449825835955    -1.375337917985     0.168882055752
    H            0.456076855099     0.304772414125    -0.829452100189
    H            1.602166832661    -0.780789085241    -0.102687064350
    C           -0.629147663499    -0.767308150536     1.564744307555
    H           -1.388854581603    -1.304573264574    -0.377659148335
    H           -0.244748437050    -2.438003659889     0.280097888910
    C           -1.115462934952     0.684524149662     1.577800202183
    H           -1.343423888350    -1.377480760049     2.113481450063
    H            0.310396028036    -0.837875855399     2.110334294444
    C           -1.380770200784     1.211275253766     2.989750636210
    H           -2.028686399827     0.762718262616     0.989176401459
    H           -0.384345014057     1.328450212736     1.095047211298
    C           -1.860183701621     2.662290970593     3.006155039867
    H           -2.122344390937     0.580827924598     3.475631977092
    H           -0.472316339645     1.125004532709     3.582159808843
    H           -2.785813744159     2.775777152122     2.448806582648
    H           -2.040956111194     3.005532542327     4.020070835837
    H           -1.123337344943     3.324104824775     2.559726666457

  Mulliken Charges: (a.u.)
   Center  Symbol    Alpha    Beta     Spin     Total
       1     H     0.27783  0.27783  0.00000  0.44435
       2     O     4.37950  4.37950  0.00000 -0.75900
       3     C     2.97502  2.97502  0.00000  0.04995
       4     C     3.18723  3.18723  0.00000 -0.37446
       5     H     0.42124  0.42124  0.00000  0.15753
       6     H     0.42809  0.42809  0.00000  0.14382
       7     C     3.15733  3.15733  0.00000 -0.31466
       8     H     0.41858  0.41858  0.00000  0.16284
       9     H     0.41718  0.41718  0.00000  0.16563
      10     C     3.15263  3.15263  0.00000 -0.30527
      11     H     0.42655  0.42655  0.00000  0.14690
      12     H     0.41893  0.41893  0.00000  0.16214
      13     C     3.15350  3.15350  0.00000 -0.30700
      14     H     0.42311  0.42311  0.00000  0.15378
      15     H     0.42071  0.42071  0.00000  0.15859
      16     C     3.15331  3.15331  0.00000 -0.30662
      17     H     0.42084  0.42084  0.00000  0.15832
      18     H     0.42296  0.42296  0.00000  0.15408
      19     C     3.15125  3.15125  0.00000 -0.30251
      20     H     0.42471  0.42471  0.00000  0.15058
      21     H     0.42238  0.42238  0.00000  0.15525
      22     C     3.23938  3.23938  0.00000 -0.47876
      23     H     0.42283  0.42283  0.00000  0.15434
      24     H     0.42258  0.42258  0.00000  0.15485
      25     H     0.42183  0.42183  0.00000  0.15633
      26     H     0.41888  0.41888  0.00000  0.16225
      27     H     0.42162  0.42162  0.00000  0.15676

   Total alpha = 37.00000, Total beta = 37.00000, Total charge = -0.00000
