  ==> Input File <==

--------------------------------------------------------------------------
set {
	reference rhf
	basis 6-31G*
}

set_num_threads( 4 )
memory 2 gb

molecule MOL {
0 1

H	 0.926730	 0.819234	 -2.024510
C	 0.876606	 1.401073	 -1.096204
C	 0.692068	 0.589600	 0.160137
O	 0.966409	 2.585559	 -1.128746
C	 -0.558097	 -0.297372	 0.091132
H	 0.647212	 1.271263	 1.001448
H	 1.573683	 -0.038666	 0.282070
C	 -1.850991	 0.512573	 -0.019058
H	 -0.476753	 -0.965681	 -0.762987
H	 -0.604799	 -0.930658	 0.975228
C	 -3.096943	 -0.368295	 -0.099594
H	 -1.800724	 1.150330	 -0.898172
H	 -1.931651	 1.177355	 0.838044
H	 -3.060452	 -1.020287	 -0.967456
H	 -3.996858	 0.233488	 -0.175704
H	 -3.191959	 -0.995686	 0.782074

	symmetry c1
}
set optking {
	frozen_dihedral = ("
		6 3 5 9
	")
}

ee = optimize('scf')
oeprop('DIPOLE', 'QUADRUPOLE', 'MULLIKEN_CHARGES')
f=open( 'psi4out.xyz', 'w' )
f.write( "16  " )
f.write( str(ee) + "\n" )
f.write( MOL.save_string_xyz() )
f.close()
--------------------------------------------------------------------------

    Molecular point group: c1
  Charge       = 0
  Multiplicity = 1
  Basis Set: 6-31G*
  Basis Set:
  @DF-RHF Final Energy:  -270.01931946186414
    Total Energy =                       -270.0193194618641996
    Molecular point group: c1
  Basis Set: 6-31G*
  Basis Set:
  Basis Set: 6-31G*
  Basis Set:
  @DF-RHF Final Energy:  -270.01944743680883
    Total Energy =                       -270.0194474368088322
  Basis Set: 6-31G*
  Basis Set:
  Basis Set: 6-31G*
  Basis Set:
  @DF-RHF Final Energy:  -270.01937402413444
    Total Energy =                       -270.0193740241345495
  Basis Set: 6-31G*
  Basis Set:
  Basis Set: 6-31G*
  Basis Set:
  @DF-RHF Final Energy:  -270.01949297871306
    Total Energy =                       -270.0194929787132310
  Basis Set: 6-31G*
  Basis Set:
  Basis Set: 6-31G*
  Basis Set:
  @DF-RHF Final Energy:  -270.01950007698565
    Total Energy =                       -270.0195000769858780
  Basis Set: 6-31G*
  Basis Set:
  Basis Set: 6-31G*
  Basis Set:
  @DF-RHF Final Energy:  -270.01951143315461
    Total Energy =                       -270.0195114331546620
  Basis Set: 6-31G*
  Basis Set:
  Basis Set: 6-31G*
  Basis Set:
  @DF-RHF Final Energy:  -270.01951249824947
    Total Energy =                       -270.0195124982495258
  Basis Set: 6-31G*
  Basis Set:
  Charge       = 0
  Multiplicity = 1
  Basis Set: 6-31G*
  Basis Set:

    Orbital Energies (a.u.)
    -----------------------

    Doubly Occupied:

       1A    -20.562520     2A    -11.326696     3A    -11.236181
       4A    -11.235350     5A    -11.227051     6A    -11.217401
       7A     -1.402462     8A     -1.096118     9A     -1.016970
      10A     -0.904494    11A     -0.821381    12A     -0.787664
      13A     -0.665280    14A     -0.656242    15A     -0.616140
      16A     -0.610232    17A     -0.589446    18A     -0.546534
      19A     -0.525101    20A     -0.519162    21A     -0.489201
      22A     -0.480210    23A     -0.467474    24A     -0.410090

  @DF-RHF Final Energy:  -270.01951284948234

   => Energetics <=

    Nuclear Repulsion Energy =            233.4204836727575696
    One-Electron Energy =                -828.0611937330307910
    Two-Electron Energy =                 324.6211972107909105
    DFT Exchange-Correlation Energy =       0.0000000000000000
    Empirical Dispersion Energy =           0.0000000000000000
    PCM Polarization Energy =               0.0000000000000000
    EFP Energy =                            0.0000000000000000
    Total Energy =                       -270.0195128494823393
    Molecular point group: c1
  Basis Set: 6-31G*
  Basis Set:

  -Total Gradient:
     Atom            X                  Y                   Z
    ------   -----------------  -----------------  -----------------
       1        0.000010813550     0.000001654996     0.000013653000
       2        0.000023397719     0.000005674397    -0.000008493266
       3       -0.000184995781     0.000330835698    -0.000259563127
       4       -0.000030770044    -0.000011438140    -0.000000784608
       5       -0.000206580610     0.000286676855    -0.000250888334
       6        0.000203539003    -0.000307360796     0.000254195348
       7       -0.000012607035    -0.000009205717    -0.000007634190
       8        0.000008031473    -0.000000051236     0.000012582739
       9        0.000194411796    -0.000292638646     0.000254055101
      10       -0.000006462513    -0.000002078372    -0.000001013283
      11       -0.000001300205    -0.000002529500    -0.000001825636
      12        0.000001282761    -0.000011431062     0.000003177174
      13       -0.000004664044     0.000003656474    -0.000007425815
      14       -0.000001031875     0.000005946217     0.000003179182
      15        0.000001528634    -0.000001168004     0.000003819744
      16        0.000005407174     0.000003456827    -0.000007034028

  **** Optimization is complete! (in 8 steps) ****
    Final optimized geometry and variables:
    Molecular point group: c1

    Geometry (in Angstrom), charge = 0, multiplicity = 1:

    H            1.425785813091     0.076474688371    -1.666981041165
    C            1.408124359863     0.659401040228    -0.737684107346
    C            1.174400617534    -0.145758927683     0.515033710310
    O            1.572961908913     1.835724390780    -0.767549617725
    C           -0.079048495841    -1.027373157696     0.425102667139
    H            1.122816980080     0.534559272630     1.357251615220
    H            2.047787890452    -0.781529098325     0.654721231483
    C           -1.383573058985    -0.232372088185     0.329036413923
    H            0.008543948381    -1.695546927481    -0.430072004318
    H           -0.111933769501    -1.666747760963     1.302738731722
    C           -2.617595273386    -1.131470559140     0.271357814081
    H           -1.363735614641     0.407278807815    -0.550425582089
    H           -1.458290514351     0.433942687663     1.184921707791
    H           -2.586428555155    -1.786658365987    -0.594571653091
    H           -3.527158018058    -0.543108567528     0.208044579410
    H           -2.688674836461    -1.756994672919     1.156586133100

  Mulliken Charges: (a.u.)
   Center  Symbol    Alpha    Beta     Spin     Total
       1     H     0.43250  0.43250  0.00000  0.13500
       2     C     2.83095  2.83095  0.00000  0.33810
       3     C     3.20834  3.20834  0.00000 -0.41668
       4     O     4.23758  4.23758  0.00000 -0.47516
       5     C     3.16507  3.16507  0.00000 -0.33014
       6     H     0.39969  0.39969  0.00000  0.20062
       7     H     0.40668  0.40668  0.00000  0.18664
       8     C     3.15497  3.15497  0.00000 -0.30993
       9     H     0.41972  0.41972  0.00000  0.16056
      10     H     0.41297  0.41297  0.00000  0.17406
      11     C     3.24029  3.24029  0.00000 -0.48058
      12     H     0.41751  0.41751  0.00000  0.16498
      13     H     0.41689  0.41689  0.00000  0.16622
      14     H     0.42084  0.42084  0.00000  0.15832
      15     H     0.41558  0.41558  0.00000  0.16885
      16     H     0.42043  0.42043  0.00000  0.15914

   Total alpha = 24.00000, Total beta = 24.00000, Total charge =  0.00000
