  ==> Input File <==

--------------------------------------------------------------------------
set {
	reference rhf
	basis 6-31G*
}

set_num_threads( 4 )
memory 2 gb

molecule MOL {
0 1

H	 -2.070625	 0.780630	 -2.395520
N	 -1.101896	 0.654418	 -2.175045
C	 -0.809967	 -0.745297	 -1.920724
H	 -0.910828	 1.190698	 -1.351027
C	 0.649506	 -0.910364	 -1.552176
H	 -1.416688	 -1.183017	 -1.126814
H	 -1.003278	 -1.310335	 -2.827446
O	 0.874168	 -0.245412	 -0.342030
H	 0.894865	 -1.967221	 -1.449756
H	 1.274615	 -0.488605	 -2.336136
C	 2.202317	 -0.244239	 0.074611
H	 2.711377	 -1.041390	 -0.449894
H	 2.692099	 0.699270	 -0.159667
H	 2.283185	 -0.418429	 1.145558

	symmetry c1
}
set optking {
	frozen_dihedral = ("
		5 8 11 13
	")
}

ee = optimize('scf')
oeprop('DIPOLE', 'QUADRUPOLE', 'MULLIKEN_CHARGES')
f=open( 'psi4out.xyz', 'w' )
f.write( "14  " )
f.write( str(ee) + "\n" )
f.write( MOL.save_string_xyz() )
f.close()
--------------------------------------------------------------------------

    Molecular point group: c1
  Charge       = 0
  Multiplicity = 1
  Basis Set: 6-31G*
  Basis Set:
  @DF-RHF Final Energy:  -248.12116450780002
    Total Energy =                       -248.1211645078000743
    Molecular point group: c1
  Basis Set: 6-31G*
  Basis Set:
  Basis Set: 6-31G*
  Basis Set:
  @DF-RHF Final Energy:  -248.12212271137767
    Total Energy =                       -248.1221227113776990
  Basis Set: 6-31G*
  Basis Set:
  Basis Set: 6-31G*
  Basis Set:
  @DF-RHF Final Energy:  -248.12241618222043
    Total Energy =                       -248.1224161822206042
  Basis Set: 6-31G*
  Basis Set:
  Charge       = 0
  Multiplicity = 1
  Basis Set: 6-31G*
  Basis Set:

    Orbital Energies (a.u.)
    -----------------------

    Doubly Occupied:

       1A    -20.554577     2A    -15.528090     3A    -11.265934
       4A    -11.265804     5A    -11.240336     6A     -1.377601
       7A     -1.173200     8A     -0.998920     9A     -0.907352
      10A     -0.814747    11A     -0.682953    12A     -0.671912
      13A     -0.642837    14A     -0.610084    15A     -0.604764
      16A     -0.539705    17A     -0.534213    18A     -0.496342
      19A     -0.472012    20A     -0.413060    21A     -0.379778

  @DF-RHF Final Energy:  -248.12241817989266

   => Energetics <=

    Nuclear Repulsion Energy =            194.4399910680611185
    One-Electron Energy =                -722.7763778222783912
    Two-Electron Energy =                 280.2139685743247810
    DFT Exchange-Correlation Energy =       0.0000000000000000
    Empirical Dispersion Energy =           0.0000000000000000
    PCM Polarization Energy =               0.0000000000000000
    EFP Energy =                            0.0000000000000000
    Total Energy =                       -248.1224181798925201
    Molecular point group: c1
  Basis Set: 6-31G*
  Basis Set:

  -Total Gradient:
     Atom            X                  Y                   Z
    ------   -----------------  -----------------  -----------------
       1        0.000000094710    -0.000008928608    -0.000002648778
       2        0.000003505804    -0.000005720366    -0.000007355895
       3       -0.000018818452     0.000026319081     0.000049454543
       4        0.000007825580    -0.000012007406    -0.000002706127
       5       -0.000300498751    -0.001832873023     0.001020878278
       6       -0.000012177205    -0.000000561026    -0.000002731306
       7        0.000006293773    -0.000002646977    -0.000000722059
       8        0.000414785291     0.003037470411    -0.000848622663
       9        0.000006594856     0.000015167205     0.000029281042
      10       -0.000000725522    -0.000005607755     0.000014391126
      11        0.000766556800    -0.002222112342    -0.002626967526
      12        0.000046226944    -0.000022134246    -0.000016646515
      13       -0.000910173766     0.001004550392     0.002378230877
      14       -0.000009490063     0.000029084660     0.000016165002

  **** Optimization is complete! (in 4 steps) ****
    Final optimized geometry and variables:
    Molecular point group: c1

    Geometry (in Angstrom), charge = 0, multiplicity = 1:

    H           -2.447317469378     1.075601471781    -1.197825962860
    N           -1.476294836164     0.945505877067    -0.990214430774
    C           -1.185160849528    -0.456253308687    -0.746353665645
    H           -1.273473862819     1.476742546808    -0.165755015396
    C            0.278601298989    -0.628447255476    -0.399238613808
    H           -1.781866215675    -0.895526976407     0.054266053858
    H           -1.393028042946    -1.016666749463    -1.652770108920
    O            0.517838173353     0.029877040495     0.812842084514
    H            0.520224368334    -1.686144073785    -0.303633751389
    H            0.891942106042    -0.206215579533    -1.191749272742
    C            1.845631832565     0.036168348506     1.244843236529
    H            2.421297817136    -0.770551254362     0.801027480012
    H            2.321193533137     0.984630541761     1.011553710866
    H            1.853344938470    -0.088536616257     2.321115119703

  Mulliken Charges: (a.u.)
   Center  Symbol    Alpha    Beta     Spin     Total
       1     H     0.33291  0.33291  0.00000  0.33417
       2     N     3.92526  3.92526  0.00000 -0.85052
       3     C     3.06895  3.06895  0.00000 -0.13789
       4     H     0.32367  0.32367  0.00000  0.35266
       5     C     2.99005  2.99005  0.00000  0.01990
       6     H     0.42670  0.42670  0.00000  0.14659
       7     H     0.42066  0.42066  0.00000  0.15868
       8     O     4.31322  4.31322  0.00000 -0.62645
       9     H     0.43067  0.43067  0.00000  0.13866
      10     H     0.42254  0.42254  0.00000  0.15493
      11     C     3.07645  3.07645  0.00000 -0.15290
      12     H     0.42902  0.42902  0.00000  0.14197
      13     H     0.42305  0.42305  0.00000  0.15390
      14     H     0.41685  0.41685  0.00000  0.16631

   Total alpha = 21.00000, Total beta = 21.00000, Total charge = -0.00000
