                              Psi4 1.0.54 Driver

  ==> Input File <==

--------------------------------------------------------------------------
set {
	reference rhf
	basis cc-pvtz
}

set_num_threads( 4 )
memory 2 gb

molecule MOL {
0 1

H	 0.726336	 0.067622	 1.994703
C	 0.413276	 -0.484980	 1.134960
C	 0.410675	 -1.865080	 1.127793
C	 0.000000	 0.179985	 0.000046
H	 0.728445	 -2.400841	 2.000430
C	 -0.000003	 -2.552036	 -0.000009
N	 0.000000	 1.644631	 0.000076
C	 -0.413275	 -0.484933	 -1.134896
H	 -0.000000	 -3.625035	 -0.000032
C	 -0.410677	 -1.865033	 -1.127784
O	 1.050559	 2.194174	 -0.000073
O	 -1.050559	 2.194174	 -0.000074
H	 -0.726343	 0.067703	 -1.994613
H	 -0.728443	 -2.400759	 -2.000445

	symmetry c1
}
set optking {
	frozen_dihedral = ("
		2 4 7 11
	")
}

ee,wfn = optimize('scf', return_wfn=True)
oeprop( wfn, 'DIPOLE', 'QUADRUPOLE', 'MULLIKEN_CHARGES')
f=open( 'psi4out.xyz', 'w' )
f.write( "14  " )
f.write( str(ee) + "\n" )
f.write( MOL.save_string_xyz() )
f.close()
--------------------------------------------------------------------------

    Molecular point group: c1
  Charge       = 0
  Multiplicity = 1
  Basis Set: CC-PVTZ
  Basis Set:
  @DF-RHF Final Energy:  -434.32124814916540
    Total Energy =                       -434.3212481491655126
    Molecular point group: c1
  Basis Set: CC-PVTZ
  Basis Set:
  Basis Set: CC-PVTZ
  Basis Set:
  @DF-RHF Final Energy:  -434.31463740370555
    Total Energy =                       -434.3146374037055466
  Basis Set: CC-PVTZ
  Basis Set:
  Basis Set: CC-PVTZ
  Basis Set:
  @DF-RHF Final Energy:  -434.32033133018092
    Total Energy =                       -434.3203313301811477
  Basis Set: CC-PVTZ
  Basis Set:
  Basis Set: CC-PVTZ
  Basis Set:
  @DF-RHF Final Energy:  -434.32151541440902
    Total Energy =                       -434.3215154144088501
  Basis Set: CC-PVTZ
  Basis Set:
  Basis Set: CC-PVTZ
  Basis Set:
  @DF-RHF Final Energy:  -434.32154009949596
    Total Energy =                       -434.3215400994963602
  Basis Set: CC-PVTZ
  Basis Set:
  Basis Set: CC-PVTZ
  Basis Set:
  @DF-RHF Final Energy:  -434.32164916176572
    Total Energy =                       -434.3216491617656629
  Basis Set: CC-PVTZ
  Basis Set:
  Charge       = 0
  Multiplicity = 1
  Basis Set: CC-PVTZ
  Basis Set:

    Orbital Energies (a.u.)
    -----------------------

    Doubly Occupied:

       1A    -20.597666     2A    -20.597599     3A    -15.848094
       4A    -11.307402     5A    -11.267625     6A    -11.267440
       7A    -11.260857     8A    -11.260359     9A    -11.258707
      10A     -1.645000    11A     -1.428141    12A     -1.206460
      13A     -1.096767    14A     -1.056810    15A     -0.959309
      16A     -0.874313    17A     -0.831158    18A     -0.786446
      19A     -0.740635    20A     -0.737949    21A     -0.717755
      22A     -0.652815    23A     -0.650683    24A     -0.625956
      25A     -0.561246    26A     -0.551781    27A     -0.533750
      28A     -0.499881    29A     -0.486604    30A     -0.458722
      31A     -0.372229    32A     -0.370511

  @DF-RHF Final Energy:  -434.32164943212649

   => Energetics <=

    Nuclear Repulsion Energy =            417.4852467623846906
    One-Electron Energy =               -1418.5924547341487596
    Two-Electron Energy =                 566.7855585396368951
    DFT Exchange-Correlation Energy =       0.0000000000000000
    Empirical Dispersion Energy =           0.0000000000000000
    PCM Polarization Energy =               0.0000000000000000
    EFP Energy =                            0.0000000000000000
    Total Energy =                       -434.3216494321271739
    Molecular point group: c1
  Basis Set: CC-PVTZ
  Basis Set:

  -Total Gradient:
     Atom            X                  Y                   Z
    ------   -----------------  -----------------  -----------------
       1       -0.000006883472    -0.000000547370    -0.000003320039
       2       -0.003720391681    -0.000115499341     0.001204286925
       3       -0.000002184711     0.000019246650     0.000022269325
       4        0.005509278881     0.000166941060    -0.003413823433
       5       -0.000007629001    -0.000002012973     0.000002557616
       6        0.000008194073    -0.000002584657    -0.000024372344
       7       -0.001933610412    -0.000086209778     0.006702956382
       8        0.000058419571     0.000018615242    -0.000020493949
       9        0.000004306399     0.000000634646     0.000000185667
      10       -0.000039465713    -0.000016662263     0.000026378525
      11        0.000205816117    -0.000000587754    -0.004503089391
      12       -0.000067064535     0.000018503306     0.000002176894
      13       -0.000004393355    -0.000002702249     0.000004585313
      14       -0.000004392159     0.000002865480    -0.000000297489

  **** Optimization is complete! (in 7 steps) ****
    Final optimized geometry and variables:
    Molecular point group: c1

    Geometry (in Angstrom), charge = 0, multiplicity = 1:

    H            0.710801383689     0.070543452546     2.008073498807
    C            0.403692418776    -0.480116099882     1.141469653479
    C            0.383205018994    -1.861447883326     1.137660203629
    C            0.026727376332     0.178404376136    -0.004062824435
    H            0.668907284554    -2.398540536444     2.020680598685
    C           -0.003165237250    -2.546761215609     0.001113636625
    N           -0.002143401098     1.642681598231     0.007215283971
    C           -0.388763570816    -0.475566071011    -1.139297456878
    H           -0.011198765058    -3.619373657012     0.001553774914
    C           -0.384715278365    -1.856620353420    -1.134705599621
    O            1.040086467465     2.203826369324     0.056424184551
    O           -1.064397932380     2.161732688498    -0.065404422710
    H           -0.704700664867     0.078499222007    -2.000356523049
    H           -0.688510671074    -2.390547678483    -2.013608598275

  Mulliken Charges: (a.u.)
   Center  Symbol    Alpha    Beta     Spin     Total
       1     H     0.41268  0.41268  0.00000  0.17465
       2     C     3.08688  3.08688  0.00000 -0.17376
       3     C     3.06517  3.06517  0.00000 -0.13035
       4     C     2.92583  2.92583  0.00000  0.14835
       5     H     0.41735  0.41735  0.00000  0.16530
       6     C     3.07594  3.07594  0.00000 -0.15189
       7     N     3.28885  3.28885  0.00000  0.42230
       8     C     3.08588  3.08588  0.00000 -0.17175
       9     H     0.41789  0.41789  0.00000  0.16421
      10     C     3.06485  3.06485  0.00000 -0.12969
      11     O     4.16450  4.16450  0.00000 -0.32900
      12     O     4.16421  4.16421  0.00000 -0.32841
      13     H     0.41265  0.41265  0.00000  0.17471
      14     H     0.41733  0.41733  0.00000  0.16533

   Total alpha = 32.00000, Total beta = 32.00000, Total charge =  0.00000

*** Psi4 exiting successfully. Buy a developer a beer!
