  ==> Input File <==

--------------------------------------------------------------------------
set {
	reference rhf
	basis 6-31G*
}

set_num_threads( 1 )
memory 2 gb

molecule MOL {
0 1

O	 3.225979	 0.970355	 -0.599647
C	 2.701189	 0.057885	 -0.047330
C	 1.245376	 -0.013843	 0.345420
O	 3.347903	 -1.046386	 0.304773
C	 0.455112	 1.231400	 -0.050772
H	 0.838542	 -0.913825	 -0.103701
H	 1.208210	 -0.175333	 1.419774
C	 -0.998893	 1.219485	 0.433193
H	 0.482531	 1.345121	 -1.130325
H	 0.957290	 2.103070	 0.354729
C	 -1.883438	 0.145884	 -0.207175
H	 -1.431207	 2.195402	 0.224832
H	 -1.019646	 1.105716	 1.516076
C	 -2.609510	 0.642231	 -1.459157
H	 -1.269815	 -0.715872	 -0.465367
H	 -2.621193	 -0.208092	 0.509338
C	 -3.500478	 -0.420665	 -2.104570
H	 -1.876900	 0.986227	 -2.187295
H	 -3.214963	 1.510535	 -1.203864
C	 -4.218952	 0.081853	 -3.356358
H	 -2.897230	 -1.289456	 -2.359395
H	 -4.236210	 -0.762614	 -1.379622
H	 -4.842297	 -0.693666	 -3.790660
H	 -3.509065	 0.399014	 -4.115085
H	 -4.857847	 0.930284	 -3.127774
C	 4.728119	 -1.109107	 -0.004993
H	 4.882018	 -1.033965	 -1.071845
H	 5.068212	 -2.067527	 0.355250
H	 5.265056	 -0.311663	 0.488280

	symmetry c1
}
set optking {
	frozen_dihedral = ("
		21 17 14 11,
		17 14 11 15,
		6 3 5 9,
		11 8 5 9,
		2 4 26 27,
		1 2 4 26,
		6 3 2 1
	")
}

ee = energy('scf')
oeprop('DIPOLE', 'QUADRUPOLE', 'MULLIKEN_CHARGES')
f=open( 'psi4out.xyz', 'w' )
f.write( "29  " )
f.write( str(ee) + "\n" )
f.write( MOL.save_string_xyz() )
f.close()
--------------------------------------------------------------------------

    Molecular point group: c1

    Geometry (in Angstrom), charge = 0, multiplicity = 1:

       Center              X                  Y                   Z               Mass
    ------------   -----------------  -----------------  -----------------  -----------------
           O          2.954088947623     0.823466812260     0.022178977416    15.994914619560
           C          2.429298947623    -0.089003187740     0.574495977416    12.000000000000
           C          0.973485947623    -0.160731187740     0.967245977416    12.000000000000
           O          3.076012947623    -1.193274187740     0.926598977416    15.994914619560
           C          0.183221947623     1.084511812260     0.571053977416    12.000000000000
           H          0.566651947623    -1.060713187740     0.518124977416     1.007825032070
           H          0.936319947623    -0.322221187740     2.041599977416     1.007825032070
           C         -1.270783052377     1.072596812260     1.055018977416    12.000000000000
           H          0.210640947623     1.198232812260    -0.508499022584     1.007825032070
           H          0.685399947623     1.956181812260     0.976554977416     1.007825032070
           C         -2.155328052377    -0.001004187740     0.414650977416    12.000000000000
           H         -1.703097052377     2.048513812260     0.846657977416     1.007825032070
           H         -1.291536052377     0.958827812260     2.137901977416     1.007825032070
           C         -2.881400052377     0.495342812260    -0.837331022584    12.000000000000
           H         -1.541705052377    -0.862760187740     0.156458977416     1.007825032070
           H         -2.893083052377    -0.354980187740     1.131163977416     1.007825032070
           C         -3.772368052377    -0.567553187740    -1.482744022584    12.000000000000
           H         -2.148790052377     0.839338812260    -1.565469022584     1.007825032070
           H         -3.486853052377     1.363646812260    -0.582038022584     1.007825032070
           C         -4.490842052377    -0.065035187740    -2.734532022584    12.000000000000
           H         -3.169120052377    -1.436344187740    -1.737569022584     1.007825032070
           H         -4.508100052377    -0.909502187740    -0.757796022584     1.007825032070
           H         -5.114187052377    -0.840554187740    -3.168834022584     1.007825032070
           H         -3.780955052377     0.252125812260    -3.493259022584     1.007825032070
           H         -5.129737052377     0.783395812260    -2.505948022584     1.007825032070
           C          4.456228947623    -1.255995187740     0.616832977416    12.000000000000
           H          4.610127947623    -1.180853187740    -0.450019022584     1.007825032070
           H          4.796321947623    -2.214415187740     0.977075977416     1.007825032070
           H          4.993165947623    -0.458551187740     1.110105977416     1.007825032070

  Charge       = 0
  Multiplicity = 1
  Basis Set: 6-31G*
  Basis Set:

    Orbital Energies (a.u.)
    -----------------------

    Doubly Occupied:

       1A    -20.603584     2A    -20.545374     3A    -11.372345
       4A    -11.280821     5A    -11.234989     6A    -11.219343
       7A    -11.216658     8A    -11.215247     9A    -11.214892
      10A    -11.213758    11A    -11.208457    12A     -1.469297
      13A     -1.362732    14A     -1.098969    15A     -1.065796
      16A     -1.019258    17A     -0.976469    18A     -0.927989
      19A     -0.864485    20A     -0.803134    21A     -0.786260
      22A     -0.761388    23A     -0.701282    24A     -0.683043
      25A     -0.671592    26A     -0.649824    27A     -0.629514
      28A     -0.606159    29A     -0.594319    30A     -0.575201
      31A     -0.564692    32A     -0.560049    33A     -0.531569
      34A     -0.526244    35A     -0.523603    36A     -0.510703
      37A     -0.492858    38A     -0.479059    39A     -0.472402
      40A     -0.458853    41A     -0.456550    42A     -0.453511
      43A     -0.440190    44A     -0.436314

  @DF-RHF Final Energy:  -501.04004727165875

   => Energetics <=

    Nuclear Repulsion Energy =            617.5922954236580154
    One-Electron Energy =               -1906.3071677712980545
    Two-Electron Energy =                 787.6748250759791290
    DFT Exchange-Correlation Energy =       0.0000000000000000
    Empirical Dispersion Energy =           0.0000000000000000
    PCM Polarization Energy =               0.0000000000000000
    EFP Energy =                            0.0000000000000000
    Total Energy =                       -501.0400472716609102

  Mulliken Charges: (a.u.)
   Center  Symbol    Alpha    Beta     Spin     Total
       1     O     4.28582  4.28582  0.00000 -0.57164
       2     C     2.60506  2.60506  0.00000  0.78988
       3     C     3.20917  3.20917  0.00000 -0.41834
       4     O     4.30734  4.30734  0.00000 -0.61468
       5     C     3.15494  3.15494  0.00000 -0.30988
       6     H     0.39940  0.39940  0.00000  0.20121
       7     H     0.40089  0.40089  0.00000  0.19822
       8     C     3.16035  3.16035  0.00000 -0.32070
       9     H     0.41280  0.41280  0.00000  0.17439
      10     H     0.40847  0.40847  0.00000  0.18306
      11     C     3.15622  3.15622  0.00000 -0.31244
      12     H     0.41697  0.41697  0.00000  0.16607
      13     H     0.42163  0.42163  0.00000  0.15675
      14     C     3.15220  3.15220  0.00000 -0.30439
      15     H     0.42391  0.42391  0.00000  0.15219
      16     H     0.41999  0.41999  0.00000  0.16003
      17     C     3.15145  3.15145  0.00000 -0.30290
      18     H     0.42271  0.42271  0.00000  0.15458
      19     H     0.42304  0.42304  0.00000  0.15391
      20     C     3.23931  3.23931  0.00000 -0.47863
      21     H     0.42355  0.42355  0.00000  0.15289
      22     H     0.42319  0.42319  0.00000  0.15363
      23     H     0.41942  0.41942  0.00000  0.16115
      24     H     0.42142  0.42142  0.00000  0.15715
      25     H     0.42170  0.42170  0.00000  0.15660
      26     C     3.09241  3.09241  0.00000 -0.18483
      27     H     0.40910  0.40910  0.00000  0.18179
      28     H     0.40846  0.40846  0.00000  0.18308
      29     H     0.40907  0.40907  0.00000  0.18186

   Total alpha = 44.00000, Total beta = 44.00000, Total charge =  0.00000
