                              Psi4 1.0.54 Driver

  ==> Input File <==

--------------------------------------------------------------------------
set {
	reference rhf
	basis cc-pvtz
}

set_num_threads( 4 )
memory 2 gb

molecule MOL {
0 1

H	 2.884018	 0.847261	 -1.164007
N	 2.070096	 0.270104	 -1.167251
C	 1.263552	 0.494993	 0.021953
H	 2.381285	 -0.677749	 -1.212787
C	 -0.016533	 -0.325589	 -0.026925
H	 1.011109	 1.549541	 0.056540
H	 1.798210	 0.270832	 0.946007
C	 -1.280353	 0.525521	 0.047747
H	 -0.016686	 -0.912532	 -0.939714
H	 -0.014099	 -1.037598	 0.796369
C	 -2.560681	 -0.301323	 -0.007747
H	 -1.279957	 1.241025	 -0.770189
H	 -1.270445	 1.110526	 0.963468
H	 -2.617064	 -0.872870	 -0.928010
H	 -3.439525	 0.331102	 0.043462
H	 -2.609427	 -1.002736	 0.818585

	symmetry c1
}
set optking {
	frozen_dihedral = ("
		6 3 5 9
	")
}

ee,wfn = optimize('scf', return_wfn=True)
oeprop( wfn, 'DIPOLE', 'QUADRUPOLE', 'MULLIKEN_CHARGES')
f=open( 'psi4out.xyz', 'w' )
f.write( "16  " )
f.write( str(ee) + "\n" )
f.write( MOL.save_string_xyz() )
f.close()
--------------------------------------------------------------------------

    Molecular point group: c1
  Charge       = 0
  Multiplicity = 1
  Basis Set: CC-PVTZ
  Basis Set:
  @DF-RHF Final Energy:  -212.39427830546586
    Total Energy =                       -212.3942783054660026
    Molecular point group: c1
  Basis Set: CC-PVTZ
  Basis Set:
  Basis Set: CC-PVTZ
  Basis Set:
  @DF-RHF Final Energy:  -212.39455316410900
    Total Energy =                       -212.3945531641090270
  Basis Set: CC-PVTZ
  Basis Set:
  Basis Set: CC-PVTZ
  Basis Set:
  @DF-RHF Final Energy:  -212.39463564240296
    Total Energy =                       -212.3946356424028181
  Basis Set: CC-PVTZ
  Basis Set:
  Charge       = 0
  Multiplicity = 1
  Basis Set: CC-PVTZ
  Basis Set:

    Orbital Energies (a.u.)
    -----------------------

    Doubly Occupied:

       1A    -15.527155     2A    -11.238151     3A    -11.211225
       4A    -11.207735     5A    -11.204216     6A     -1.177369
       7A     -1.058361     8A     -0.957145     9A     -0.845181
      10A     -0.792106    11A     -0.657436    12A     -0.645789
      13A     -0.597000    14A     -0.576995    15A     -0.571468
      16A     -0.515608    17A     -0.504738    18A     -0.466788
      19A     -0.465261    20A     -0.462367    21A     -0.382015

  @DF-RHF Final Energy:  -212.39463641504696

   => Energetics <=

    Nuclear Repulsion Energy =            186.7940736678986298
    One-Electron Energy =                -656.2491957072285231
    Two-Electron Energy =                 257.0604856242829328
    DFT Exchange-Correlation Energy =       0.0000000000000000
    Empirical Dispersion Energy =           0.0000000000000000
    PCM Polarization Energy =               0.0000000000000000
    EFP Energy =                            0.0000000000000000
    Total Energy =                       -212.3946364150469890
    Molecular point group: c1
  Basis Set: CC-PVTZ
  Basis Set:

  -Total Gradient:
     Atom            X                  Y                   Z
    ------   -----------------  -----------------  -----------------
       1        0.000012110102     0.000005242532    -0.000015594923
       2       -0.000009995082     0.000048292287     0.000068754590
       3        0.000070969462    -0.000135530458    -0.000451673138
       4       -0.000027966965     0.000018021939     0.000027755035
       5       -0.000221501196     0.000346076008    -0.000093655401
       6        0.000013962922    -0.000011568590     0.000285187898
       7        0.000010196205     0.000014395052     0.000022468364
       8        0.000030208899    -0.000039946061     0.000019956389
       9        0.000148721668    -0.000248240917     0.000133793707
      10        0.000001075410    -0.000003399894    -0.000004078813
      11       -0.000026222791    -0.000004185970    -0.000000738919
      12        0.000006935604    -0.000000020153     0.000007601248
      13       -0.000006278489     0.000006501195     0.000006127575
      14        0.000002515023     0.000000311214     0.000004137477
      15       -0.000005327960    -0.000000251427    -0.000002814338
      16        0.000000597184     0.000004303243    -0.000007226750

  **** Optimization is complete! (in 4 steps) ****
    Final optimized geometry and variables:
    Molecular point group: c1

    Geometry (in Angstrom), charge = 0, multiplicity = 1:

    H            2.972828265090     0.721896959093    -0.919226675587
    N            2.152605051873     0.152942960586    -0.934821652525
    C            1.349212854783     0.365671403092     0.261701463313
    H            2.456995262918    -0.796660850748    -0.992703637412
    C            0.050102024110    -0.456956454400     0.218539793770
    H            1.109072689908     1.421570001115     0.304978563725
    H            1.895556477105     0.138893303743     1.176237841014
    C           -1.215948639827     0.393774419224     0.280116064105
    H            0.040664025219    -1.037279898221    -0.697926452103
    H            0.035959481518    -1.171631878144     1.036162974273
    C           -2.495920315694    -0.432686170180     0.229617284146
    H           -1.206294795468     1.099201765496    -0.545698091729
    H           -1.206207867163     0.987608086397     1.190553223839
    H           -2.550204546391    -1.012244047729    -0.685925460681
    H           -3.374668400598     0.200597488166     0.272666095018
    H           -2.547563960058    -1.126762974905     1.062163071326

  Mulliken Charges: (a.u.)
   Center  Symbol    Alpha    Beta     Spin     Total
       1     H     0.42991  0.42991  0.00000  0.14018
       2     N     3.68759  3.68759  0.00000 -0.37517
       3     C     3.03278  3.03278  0.00000 -0.06556
       4     H     0.43080  0.43080  0.00000  0.13841
       5     C     3.08392  3.08392  0.00000 -0.16784
       6     H     0.45895  0.45895  0.00000  0.08210
       7     H     0.46395  0.46395  0.00000  0.07209
       8     C     3.08639  3.08639  0.00000 -0.17278
       9     H     0.45464  0.45464  0.00000  0.09071
      10     H     0.45441  0.45441  0.00000  0.09118
      11     C     3.15071  3.15071  0.00000 -0.30142
      12     H     0.45083  0.45083  0.00000  0.09834
      13     H     0.45564  0.45564  0.00000  0.08872
      14     H     0.45429  0.45429  0.00000  0.09142
      15     H     0.44900  0.44900  0.00000  0.10200
      16     H     0.45619  0.45619  0.00000  0.08763

   Total alpha = 21.00000, Total beta = 21.00000, Total charge = -0.00000

*** Psi4 exiting successfully. Buy a developer a beer!
