  ==> Input File <==

--------------------------------------------------------------------------
set {
	reference rhf
	basis 6-31G*
}

set_num_threads( 1 )
memory 2 gb

molecule MOL {
0 1

H	 -2.798360	 -0.862255	 -0.071053
N	 -1.863561	 -0.715187	 0.256814
C	 -1.344686	 0.554728	 -0.219830
H	 -1.300452	 -1.461917	 -0.101532
C	 -0.985101	 1.439996	 0.954961
H	 -0.465962	 0.457792	 -0.858930
H	 -2.117152	 1.048968	 -0.801041
O	 0.064255	 0.835046	 1.654944
H	 -0.681722	 2.426239	 0.604357
H	 -1.851352	 1.558657	 1.602080
C	 0.441214	 1.504212	 2.815844
H	 1.253101	 0.949004	 3.265599
H	 0.784036	 2.514466	 2.599410
H	 -0.381428	 1.563565	 3.525453

	symmetry c1
}
set optking {
	frozen_dihedral = ("
		8 5 3 6,
		5 8 11 13,
		11 8 5 3
	")
}

ee = energy('scf')
oeprop('DIPOLE', 'QUADRUPOLE', 'MULLIKEN_CHARGES')
f=open( 'psi4out.xyz', 'w' )
f.write( "14  " )
f.write( str(ee) + "\n" )
f.write( MOL.save_string_xyz() )
f.close()
--------------------------------------------------------------------------

    Molecular point group: c1

    Geometry (in Angstrom), charge = 0, multiplicity = 1:

       Center              X                  Y                   Z               Mass
    ------------   -----------------  -----------------  -----------------  -----------------
           H         -2.061043928354    -1.576104454995    -1.170307911931     1.007825032070
           N         -1.126244928354    -1.429036454995    -0.842440911931    14.003074004780
           C         -0.607369928354    -0.159121454995    -1.319084911931    12.000000000000
           H         -0.563135928354    -2.175766454995    -1.200786911931     1.007825032070
           C         -0.247784928354     0.726146545005    -0.144293911931    12.000000000000
           H          0.271354071646    -0.256057454995    -1.958184911931     1.007825032070
           H         -1.379835928354     0.335118545005    -1.900295911931     1.007825032070
           O          0.801571071646     0.121196545005     0.555689088069    15.994914619560
           H          0.055594071646     1.712389545005    -0.494897911931     1.007825032070
           H         -1.114035928354     0.844807545005     0.502825088069     1.007825032070
           C          1.178530071646     0.790362545005     1.716589088069    12.000000000000
           H          1.990417071646     0.235154545005     2.166344088069     1.007825032070
           H          1.521352071646     1.800616545005     1.500155088069     1.007825032070
           H          0.355888071646     0.849715545005     2.426198088069     1.007825032070

  Charge       = 0
  Multiplicity = 1
  Basis Set: 6-31G*
  Basis Set:

    Orbital Energies (a.u.)
    -----------------------

    Doubly Occupied:

       1A    -20.545511     2A    -15.530411     3A    -11.257978
       4A    -11.257648     5A    -11.242196     6A     -1.369567
       7A     -1.175660     8A     -0.995086     9A     -0.900297
      10A     -0.811189    11A     -0.681488    12A     -0.667742
      13A     -0.632253    14A     -0.626067    15A     -0.596200
      16A     -0.530820    17A     -0.515863    18A     -0.505849
      19A     -0.463617    20A     -0.407866    21A     -0.380227

  @DF-RHF Final Energy:  -248.11774517365524

   => Energetics <=

    Nuclear Repulsion Energy =            194.0005769346590228
    One-Electron Energy =                -722.0494737599678956
    Two-Electron Energy =                 279.9311516516534084
    DFT Exchange-Correlation Energy =       0.0000000000000000
    Empirical Dispersion Energy =           0.0000000000000000
    PCM Polarization Energy =               0.0000000000000000
    EFP Energy =                            0.0000000000000000
    Total Energy =                       -248.1177451736555213

  Mulliken Charges: (a.u.)
   Center  Symbol    Alpha    Beta     Spin     Total
       1     H     0.33304  0.33304  0.00000  0.33393
       2     N     3.91524  3.91524  0.00000 -0.83049
       3     C     3.08277  3.08277  0.00000 -0.16553
       4     H     0.32935  0.32935  0.00000  0.34131
       5     C     2.97292  2.97292  0.00000  0.05416
       6     H     0.41684  0.41684  0.00000  0.16633
       7     H     0.42619  0.42619  0.00000  0.14763
       8     O     4.30333  4.30333  0.00000 -0.60665
       9     H     0.43690  0.43690  0.00000  0.12621
      10     H     0.43055  0.43055  0.00000  0.13889
      11     C     3.07691  3.07691  0.00000 -0.15382
      12     H     0.41355  0.41355  0.00000  0.17291
      13     H     0.43313  0.43313  0.00000  0.13373
      14     H     0.42930  0.42930  0.00000  0.14140

   Total alpha = 21.00000, Total beta = 21.00000, Total charge = -0.00000
