  ==> Input File <==

--------------------------------------------------------------------------
set {
	reference rhf
	basis cc-pvtz
}

set_num_threads( 4 )
memory 2 gb

molecule MOL {
0 1

O	 -2.817697	 1.304178	 0.001046
C	 -2.664672	 0.129869	 0.003507
C	 -3.797908	 -0.860100	 -0.001145
O	 -1.481217	 -0.452708	 0.001092
H	 -4.408836	 -0.679689	 -0.875387
H	 -3.443486	 -1.878443	 -0.002770
H	 -4.412123	 -0.683688	 0.871605
C	 -0.332055	 0.384012	 -0.000250
C	 0.892252	 -0.506059	 -0.000295
H	 -0.360822	 1.020205	 -0.874146
H	 -0.359817	 1.021310	 0.872861
C	 2.145699	 0.241037	 -0.446477
H	 0.712094	 -1.352175	 -0.655506
H	 1.035508	 -0.907516	 0.997691
C	 3.393990	 -0.636938	 -0.453951
H	 1.989785	 0.648426	 -1.442319
H	 2.312306	 1.092906	 0.208149
C	 4.646996	 0.109555	 -0.898622
H	 3.229375	 -1.487632	 -1.109144
H	 3.550909	 -1.044486	 0.540719
H	 4.533736	 0.500137	 -1.904337
H	 5.513738	 -0.541005	 -0.892615
H	 4.857573	 0.946923	 -0.241868

	symmetry c1
}
set optking {
	frozen_dihedral = ("
		13 9 8 10
	")
}

ee = optimize('scf')
oeprop('DIPOLE', 'QUADRUPOLE', 'MULLIKEN_CHARGES')
f=open( 'psi4out.xyz', 'w' )
f.write( "23  " )
f.write( str(ee) + "\n" )
f.write( MOL.save_string_xyz() )
f.close()
--------------------------------------------------------------------------

    Molecular point group: c1
  Charge       = 0
  Multiplicity = 1
  Basis Set: CC-PVTZ
  Basis Set:
  @DF-RHF Final Energy:  -423.13350407388032
    Total Energy =                       -423.1335040738797488
    Molecular point group: c1
  Basis Set: CC-PVTZ
  Basis Set:
  Basis Set: CC-PVTZ
  Basis Set:
  @DF-RHF Final Energy:  -423.13350814879107
    Total Energy =                       -423.1335081487907246
  Basis Set: CC-PVTZ
  Basis Set:
  Basis Set: CC-PVTZ
  Basis Set:
  @DF-RHF Final Energy:  -423.13355914600783
    Total Energy =                       -423.1335591460078831
  Basis Set: CC-PVTZ
  Basis Set:
  Basis Set: CC-PVTZ
  Basis Set:
  @DF-RHF Final Energy:  -423.13366104597532
    Total Energy =                       -423.1336610459746908
  Basis Set: CC-PVTZ
  Basis Set:
  Basis Set: CC-PVTZ
  Basis Set:
  @DF-RHF Final Energy:  -423.13370177048256
    Total Energy =                       -423.1337017704826167
  Basis Set: CC-PVTZ
  Basis Set:
  Charge       = 0
  Multiplicity = 1
  Basis Set: CC-PVTZ
  Basis Set:

    Orbital Energies (a.u.)
    -----------------------

    Doubly Occupied:

       1A    -20.596593     2A    -20.529900     3A    -11.366728
       4A    -11.279194     5A    -11.230919     6A    -11.222087
       7A    -11.221328     8A    -11.219361     9A    -11.210858
      10A     -1.471724    11A     -1.364552    12A     -1.094938
      13A     -1.043189    14A     -1.004301    15A     -0.931790
      16A     -0.842648    17A     -0.803284    18A     -0.777573
      19A     -0.693478    20A     -0.688239    21A     -0.671687
      22A     -0.647823    23A     -0.606908    24A     -0.588805
      25A     -0.584383    26A     -0.567424    27A     -0.559829
      28A     -0.539071    29A     -0.524211    30A     -0.505900
      31A     -0.491687    32A     -0.478213    33A     -0.471053
      34A     -0.466623    35A     -0.453905    36A     -0.439288

  @DF-RHF Final Energy:  -423.13370264098467

   => Energetics <=

    Nuclear Repulsion Energy =            450.4450637397312676
    One-Electron Energy =               -1468.7785458443504467
    Two-Electron Energy =                 595.1997794636342860
    DFT Exchange-Correlation Energy =       0.0000000000000000
    Empirical Dispersion Energy =           0.0000000000000000
    PCM Polarization Energy =               0.0000000000000000
    EFP Energy =                            0.0000000000000000
    Total Energy =                       -423.1337026409848932
    Molecular point group: c1
  Basis Set: CC-PVTZ
  Basis Set:

  -Total Gradient:
     Atom            X                  Y                   Z
    ------   -----------------  -----------------  -----------------
       1        0.000024876958    -0.000003872406     0.000053124187
       2        0.000019433665    -0.000011592430    -0.000055578980
       3       -0.000000693786    -0.000004071116    -0.000020701635
       4        0.000029011378     0.000007448823     0.000142092190
       5       -0.000009215727    -0.000005839949    -0.000000323042
       6       -0.000001463137    -0.000001447308    -0.000001112463
       7        0.000015356186     0.000008574822    -0.000001618022
       8       -0.002503560059    -0.003449558696    -0.001901399092
       9        0.001960857079     0.002867776756    -0.002608903221
      10        0.001825322317     0.002412060567     0.001761977909
      11       -0.000041158842    -0.000026888129     0.000085002338
      12       -0.000037782144     0.000002071259    -0.000053705473
      13       -0.001258518734    -0.001782838029     0.002557024435
      14       -0.000000423191    -0.000010190316     0.000041755015
      15       -0.000005856243    -0.000010703823    -0.000010013898
      16        0.000003634095     0.000014857516    -0.000001858518
      17       -0.000007037598    -0.000013505671     0.000001759146
      18       -0.000007145731     0.000006859470     0.000006284195
      19       -0.000003700208    -0.000000198279     0.000000048559
      20        0.000002333954     0.000001998193    -0.000000169877
      21       -0.000001868358    -0.000003914581     0.000002472585
      22       -0.000004370302    -0.000001043095     0.000004844473
      23        0.000001968434     0.000004016428    -0.000001000810

  **** Optimization is complete! (in 6 steps) ****
    Final optimized geometry and variables:
    Molecular point group: c1

    Geometry (in Angstrom), charge = 0, multiplicity = 1:

    O           -2.794324442787     1.334668345443     0.255271871645
    C           -2.650928057264     0.159637202068     0.225653714690
    C           -3.791025854391    -0.822310548153     0.248299302021
    O           -1.472642555130    -0.431257872549     0.168768455504
    H           -4.434852171682    -0.621562238923    -0.597496366991
    H           -3.444777811773    -1.842923339583     0.214125125498
    H           -4.368545544421    -0.657642732213     1.148042939083
    C           -0.319658199959     0.395846778517     0.143566035063
    C            0.907116502174    -0.495278624889     0.121587943394
    H           -0.354102686530     1.049509837536    -0.717677049911
    H           -0.324966735099     1.031948576180     1.018386130532
    C            2.168745350083     0.260641488234    -0.280202984249
    H            0.723477452400    -1.328269567603    -0.548712839818
    H            1.039630884983    -0.933333703508     1.106547776480
    C            3.425079733435    -0.604197576607    -0.235245759630
    H            2.044679638501     0.661240683890    -1.282989808195
    H            2.302204996453     1.118119675967     0.375491201567
    C            4.684299443960     0.149561756573    -0.649001404800
    H            3.290000258554    -1.464978507283    -0.884214720592
    H            3.553868240447    -0.997289122352     0.769224766658
    H            4.600537760952     0.524830926240    -1.663436447896
    H            5.556964499493    -0.491602679568    -0.604977605070
    H            4.864352248998     0.998285637459     0.002347248977

  Mulliken Charges: (a.u.)
   Center  Symbol    Alpha    Beta     Spin     Total
       1     O     4.20209  4.20209  0.00000 -0.40418
       2     C     2.81355  2.81355  0.00000  0.37289
       3     C     3.13978  3.13978  0.00000 -0.27956
       4     O     4.14475  4.14475  0.00000 -0.28950
       5     H     0.44210  0.44210  0.00000  0.11580
       6     H     0.44187  0.44187  0.00000  0.11625
       7     H     0.44209  0.44209  0.00000  0.11582
       8     C     2.97905  2.97905  0.00000  0.04189
       9     C     3.08336  3.08336  0.00000 -0.16671
      10     H     0.45600  0.45600  0.00000  0.08800
      11     H     0.45322  0.45322  0.00000  0.09356
      12     C     3.09669  3.09669  0.00000 -0.19339
      13     H     0.44951  0.44951  0.00000  0.10098
      14     H     0.45212  0.45212  0.00000  0.09577
      15     C     3.08523  3.08523  0.00000 -0.17047
      16     H     0.45240  0.45240  0.00000  0.09520
      17     H     0.45302  0.45302  0.00000  0.09396
      18     C     3.14952  3.14952  0.00000 -0.29903
      19     H     0.45342  0.45342  0.00000  0.09317
      20     H     0.45336  0.45336  0.00000  0.09328
      21     H     0.45455  0.45455  0.00000  0.09089
      22     H     0.44771  0.44771  0.00000  0.10458
      23     H     0.45460  0.45460  0.00000  0.09080

   Total alpha = 36.00000, Total beta = 36.00000, Total charge =  0.00000
