                              Psi4 1.0.54 Driver

  ==> Input File <==

--------------------------------------------------------------------------
set {
	reference rhf
	basis cc-pvtz
}

set_num_threads( 4 )
memory 2 gb

molecule MOL {
0 1

H	 1.036645	 2.503278	 0.322390
O	 1.292714	 1.677759	 0.693065
C	 0.706474	 0.636793	 -0.025501
C	 -0.793473	 0.591216	 0.050087
H	 1.112066	 -0.282504	 0.380321
H	 1.004714	 0.671627	 -1.071703
C	 -1.534243	 -0.493009	 -0.013340
H	 -1.266611	 1.552628	 0.164437
H	 -1.101195	 -1.466332	 -0.144046
H	 -2.604242	 -0.437780	 0.050785

	symmetry c1
}
set optking {
	frozen_dihedral = ("
		5 3 4 7
	")
}

ee,wfn = optimize('scf', return_wfn=True)
oeprop( wfn, 'DIPOLE', 'QUADRUPOLE', 'MULLIKEN_CHARGES')
f=open( 'psi4out.xyz', 'w' )
f.write( "10  " )
f.write( str(ee) + "\n" )
f.write( MOL.save_string_xyz() )
f.close()
--------------------------------------------------------------------------

    Molecular point group: c1
  Charge       = 0
  Multiplicity = 1
  Basis Set: CC-PVTZ
  Basis Set:
  @DF-RHF Final Energy:  -191.99513182659678
    Total Energy =                       -191.9951318265966620
    Molecular point group: c1
  Basis Set: CC-PVTZ
  Basis Set:
  Basis Set: CC-PVTZ
  Basis Set:
  @DF-RHF Final Energy:  -191.99569635607139
    Total Energy =                       -191.9956963560713916
  Basis Set: CC-PVTZ
  Basis Set:
  Basis Set: CC-PVTZ
  Basis Set:
  @DF-RHF Final Energy:  -191.99576142719980
    Total Energy =                       -191.9957614271998239
  Basis Set: CC-PVTZ
  Basis Set:
  Basis Set: CC-PVTZ
  Basis Set:
  @DF-RHF Final Energy:  -191.99576994845208
    Total Energy =                       -191.9957699484520788
  Basis Set: CC-PVTZ
  Basis Set:
  Basis Set: CC-PVTZ
  Basis Set:
  @DF-RHF Final Energy:  -191.99577161327511
    Total Energy =                       -191.9957716132750818
  Basis Set: CC-PVTZ
  Basis Set:
  Charge       = 0
  Multiplicity = 1
  Basis Set: CC-PVTZ
  Basis Set:

    Orbital Energies (a.u.)
    -----------------------

    Doubly Occupied:

       1A    -20.552677     2A    -11.277080     3A    -11.230879
       4A    -11.219667     5A     -1.371373     6A     -1.066156
       7A     -0.923289     8A     -0.780643     9A     -0.697652
      10A     -0.652369    11A     -0.625034    12A     -0.574286
      13A     -0.535416    14A     -0.504737    15A     -0.447998
      16A     -0.371010

  @DF-RHF Final Energy:  -191.99577198419047

   => Energetics <=

    Nuclear Repulsion Energy =            117.2225790002283361
    One-Electron Energy =                -492.7761683962556845
    Two-Electron Energy =                 183.5578174118369361
    DFT Exchange-Correlation Energy =       0.0000000000000000
    Empirical Dispersion Energy =           0.0000000000000000
    PCM Polarization Energy =               0.0000000000000000
    EFP Energy =                            0.0000000000000000
    Total Energy =                       -191.9957719841904122
    Molecular point group: c1
  Basis Set: CC-PVTZ
  Basis Set:

  -Total Gradient:
     Atom            X                  Y                   Z
    ------   -----------------  -----------------  -----------------
       1       -0.000004469974    -0.000014894721     0.000005966206
       2        0.000051325462     0.000078527055     0.000059397476
       3       -0.000125305868    -0.000862798604    -0.003383949054
       4        0.000098931840    -0.000216833401     0.003329865804
       5        0.000022587150     0.000765030788     0.001890714591
       6        0.000021247674    -0.000012364270     0.000003463798
       7       -0.000062426692     0.000269430861    -0.001911131849
       8        0.000001847639    -0.000004127338    -0.000001529395
       9       -0.000002432298     0.000005180054     0.000005173015
      10       -0.000001304935    -0.000007150421     0.000002029408

  **** Optimization is complete! (in 6 steps) ****
    Final optimized geometry and variables:
    Molecular point group: c1

    Geometry (in Angstrom), charge = 0, multiplicity = 1:

    H            1.072281981009     1.847163249802     0.243938580048
    O            1.254272905897     1.001472728665     0.610985898113
    C            0.728264636085    -0.006614575358    -0.209515528889
    C           -0.775828347570    -0.061271274840    -0.168351007276
    H            1.142527666337    -0.934630783017     0.157539534764
    H            1.063611601732     0.127259069237    -1.234784675871
    C           -1.490689754968    -1.155910914865    -0.301316341473
    H           -1.274110720892     0.889030326431    -0.066765700129
    H           -1.031193896403    -2.123369322054    -0.400791962321
    H           -2.563617354636    -1.128013069908    -0.309011192154

  Mulliken Charges: (a.u.)
   Center  Symbol    Alpha    Beta     Spin     Total
       1     H     0.39298  0.39298  0.00000  0.21404
       2     O     4.20227  4.20227  0.00000 -0.40454
       3     C     2.95305  2.95305  0.00000  0.09389
       4     C     3.06884  3.06884  0.00000 -0.13767
       5     H     0.45296  0.45296  0.00000  0.09409
       6     H     0.46721  0.46721  0.00000  0.06557
       7     C     3.17134  3.17134  0.00000 -0.34269
       8     H     0.43056  0.43056  0.00000  0.13889
       9     H     0.43201  0.43201  0.00000  0.13597
      10     H     0.42877  0.42877  0.00000  0.14245

   Total alpha = 16.00000, Total beta = 16.00000, Total charge =  0.00000

*** Psi4 exiting successfully. Buy a developer a beer!
