  ==> Input File <==

--------------------------------------------------------------------------
set {
	reference rhf
	basis 6-31G*
}

set_num_threads( 4 )
memory 2 gb

molecule MOL {
0 1

H	 2.591676	 2.013956	 0.335017
O	 3.341076	 1.666752	 -0.126416
C	 3.569581	 0.339145	 0.272707
C	 2.539767	 -0.640285	 -0.279495
H	 4.553106	 0.084646	 -0.100901
H	 3.608576	 0.269204	 1.359154
C	 2.443101	 -0.646242	 -1.807071
H	 2.787942	 -1.637555	 0.074383
H	 1.569230	 -0.385987	 0.143301
C	 1.363579	 -1.599422	 -2.327551
H	 3.406229	 -0.926098	 -2.224720
H	 2.229199	 0.362633	 -2.160281
C	 1.166522	 -1.580575	 -3.847799
H	 1.596717	 -2.613345	 -2.007465
H	 0.417978	 -1.342658	 -1.854675
C	 2.353758	 -2.108128	 -4.658129
H	 0.290370	 -2.180004	 -4.086249
H	 0.933919	 -0.565922	 -4.167503
C	 2.070328	 -2.168267	 -6.160623
H	 2.616796	 -3.103540	 -4.303055
H	 3.228187	 -1.483947	 -4.490570
C	 3.256043	 -2.688479	 -6.972487
H	 1.205191	 -2.803384	 -6.338530
H	 1.797861	 -1.176390	 -6.515346
H	 3.532400	 -3.692644	 -6.663451
H	 3.023472	 -2.721166	 -8.032429
H	 4.128000	 -2.053021	 -6.845015

	symmetry c1
}
set optking {
	frozen_dihedral = ("
		8 4 3 2
	")
}

ee = optimize('scf')
oeprop('DIPOLE', 'QUADRUPOLE', 'MULLIKEN_CHARGES')
f=open( 'psi4out.xyz', 'w' )
f.write( "27  " )
f.write( str(ee) + "\n" )
f.write( MOL.save_string_xyz() )
f.close()
--------------------------------------------------------------------------

    Molecular point group: c1
  Charge       = 0
  Multiplicity = 1
  Basis Set: 6-31G*
  Basis Set:
  @DF-RHF Final Energy:  -388.28199920690486
    Total Energy =                       -388.2819992069049704
    Molecular point group: c1
  Basis Set: 6-31G*
  Basis Set:
  Basis Set: 6-31G*
  Basis Set:
  @DF-RHF Final Energy:  -388.28219071964202
    Total Energy =                       -388.2821907196412212
  Basis Set: 6-31G*
  Basis Set:
  Basis Set: 6-31G*
  Basis Set:
  @DF-RHF Final Energy:  -388.28221871959033
    Total Energy =                       -388.2822187195905599
  Basis Set: 6-31G*
  Basis Set:
  Basis Set: 6-31G*
  Basis Set:
  @DF-RHF Final Energy:  -388.28222092810751
    Total Energy =                       -388.2822209281075629
  Basis Set: 6-31G*
  Basis Set:
  Basis Set: 6-31G*
  Basis Set:
  @DF-RHF Final Energy:  -388.28222389633976
    Total Energy =                       -388.2822238963394739
  Basis Set: 6-31G*
  Basis Set:
  Basis Set: 6-31G*
  Basis Set:
  @DF-RHF Final Energy:  -388.28222970453731
    Total Energy =                       -388.2822297045372579
  Basis Set: 6-31G*
  Basis Set:
  Charge       = 0
  Multiplicity = 1
  Basis Set: 6-31G*
  Basis Set:

    Orbital Energies (a.u.)
    -----------------------

    Doubly Occupied:

       1A    -20.553714     2A    -11.267698     3A    -11.217328
       4A    -11.212895     5A    -11.212724     6A    -11.211550
       7A    -11.210451     8A    -11.210195     9A    -11.206504
      10A     -1.360258    11A     -1.090992    12A     -1.058485
      13A     -1.009312    14A     -0.944769    15A     -0.883579
      16A     -0.820315    17A     -0.800925    18A     -0.774494
      19A     -0.679990    20A     -0.651238    21A     -0.639179
      22A     -0.612143    23A     -0.605697    24A     -0.584030
      25A     -0.570144    26A     -0.556789    27A     -0.537703
      28A     -0.517209    29A     -0.510531    30A     -0.490207
      31A     -0.479074    32A     -0.470269    33A     -0.464400
      34A     -0.456341    35A     -0.454802    36A     -0.439594
      37A     -0.420142

  @DF-RHF Final Energy:  -388.28222989858688

   => Energetics <=

    Nuclear Repulsion Energy =            458.9515127176582041
    One-Electron Energy =               -1436.0961429342896736
    Two-Electron Energy =                 588.8624003180441377
    DFT Exchange-Correlation Energy =       0.0000000000000000
    Empirical Dispersion Energy =           0.0000000000000000
    PCM Polarization Energy =               0.0000000000000000
    EFP Energy =                            0.0000000000000000
    Total Energy =                       -388.2822298985872749
    Molecular point group: c1
  Basis Set: 6-31G*
  Basis Set:

  -Total Gradient:
     Atom            X                  Y                   Z
    ------   -----------------  -----------------  -----------------
       1        0.000016179708    -0.000019360425     0.000003631823
       2        0.000339474073    -0.000129476773    -0.000559233885
       3       -0.000359678262     0.000116355873     0.000566434814
       4       -0.000460116757     0.000160151501     0.000607649583
       5        0.000025314528     0.000028913531     0.000006350527
       6       -0.000016479385    -0.000029907420    -0.000016539663
       7        0.000052958635     0.000039101036     0.000018859160
       8        0.000474415312    -0.000123602194    -0.000653227233
       9       -0.000032307177    -0.000032077524    -0.000030091608
      10       -0.000052157210    -0.000016913131     0.000027573487
      11        0.000006592978     0.000019263351     0.000006688680
      12        0.000033195350     0.000001401713     0.000018530089
      13        0.000005751326    -0.000031308033     0.000006943575
      14       -0.000017578076    -0.000009065848     0.000002261263
      15       -0.000018714621    -0.000010659789    -0.000013244351
      16        0.000005788211     0.000038637772     0.000003448749
      17       -0.000000079314    -0.000001528803    -0.000016554047
      18        0.000010222335    -0.000001526749     0.000010702131
      19       -0.000006827136    -0.000008935118     0.000001587755
      20       -0.000001073933     0.000012257863     0.000008376879
      21        0.000001123015     0.000011412636    -0.000000229972
      22       -0.000004872525    -0.000011269807     0.000001255801
      23       -0.000009635975     0.000003151951    -0.000004577454
      24        0.000010373089    -0.000002672075     0.000003123599
      25        0.000002503707    -0.000001434812    -0.000000739911
      26       -0.000000654806    -0.000001989517    -0.000000439056
      27       -0.000003717090     0.000001080784     0.000001459257

  **** Optimization is complete! (in 7 steps) ****
    Final optimized geometry and variables:
    Molecular point group: c1

    Geometry (in Angstrom), charge = 0, multiplicity = 1:

    H            0.100395124401     2.985109729157     3.072843410258
    O            0.906258700696     2.658833932612     2.696588745781
    C            1.102413713955     1.327914631350     3.101391250305
    C            0.040877025530     0.374166303672     2.564301371995
    H            2.078183162016     1.049007285405     2.723098364230
    H            1.145544193867     1.262657196682     4.187196262417
    C           -0.050365806458     0.360475365463     1.037285286491
    H            0.270561441759    -0.626970972230     2.925325797127
    H           -0.927896610831     0.638801157396     2.988539834309
    C           -1.123740876884    -0.600908815025     0.519469831175
    H            0.921550734238     0.088461670171     0.633434026296
    H           -0.257968754406     1.365320090356     0.682089664440
    C           -1.321015255779    -0.582798919020    -1.000830374378
    H           -0.887319608704    -1.615067393700     0.838425154345
    H           -2.072342127883    -0.350451330696     0.990850745972
    C           -0.127469783683    -1.096618497844    -1.810472940073
    H           -2.191157235069    -1.190436038776    -1.241353648039
    H           -1.562186821825     0.430258412212    -1.318649063575
    C           -0.409605662655    -1.160469548362    -3.313051375619
    H            0.146557992914    -2.089282939967    -1.455296713601
    H            0.738803158943    -0.461892345168    -1.642063831110
    C            0.781175945535    -1.670682545961    -4.123868049463
    H           -1.269158548058    -1.803198898444    -3.491389045216
    H           -0.690104878766    -0.171153420917    -3.668476521554
    H            1.065947449618    -2.672417545949    -3.814275068859
    H            0.549864304375    -1.705817872491    -5.184074212175
    H            1.647303465431    -1.027558531550    -3.995660861796

  Mulliken Charges: (a.u.)
   Center  Symbol    Alpha    Beta     Spin     Total
       1     H     0.28341  0.28341  0.00000  0.43318
       2     O     4.36817  4.36817  0.00000 -0.73633
       3     C     2.99580  2.99580  0.00000  0.00841
       4     C     3.16989  3.16989  0.00000 -0.33977
       5     H     0.41648  0.41648  0.00000  0.16705
       6     H     0.42811  0.42811  0.00000  0.14378
       7     C     3.15318  3.15318  0.00000 -0.30635
       8     H     0.42219  0.42219  0.00000  0.15562
       9     H     0.42802  0.42802  0.00000  0.14396
      10     C     3.15305  3.15305  0.00000 -0.30610
      11     H     0.42115  0.42115  0.00000  0.15769
      12     H     0.41327  0.41327  0.00000  0.17346
      13     C     3.15279  3.15279  0.00000 -0.30558
      14     H     0.42508  0.42508  0.00000  0.14984
      15     H     0.42369  0.42369  0.00000  0.15262
      16     C     3.15280  3.15280  0.00000 -0.30560
      17     H     0.42272  0.42272  0.00000  0.15456
      18     H     0.42351  0.42351  0.00000  0.15298
      19     C     3.15111  3.15111  0.00000 -0.30222
      20     H     0.42538  0.42538  0.00000  0.14924
      21     H     0.42084  0.42084  0.00000  0.15833
      22     C     3.23914  3.23914  0.00000 -0.47828
      23     H     0.42370  0.42370  0.00000  0.15260
      24     H     0.42289  0.42289  0.00000  0.15422
      25     H     0.42228  0.42228  0.00000  0.15544
      26     H     0.41975  0.41975  0.00000  0.16050
      27     H     0.42161  0.42161  0.00000  0.15678

   Total alpha = 37.00000, Total beta = 37.00000, Total charge =  0.00000
