  ==> Input File <==

--------------------------------------------------------------------------
set {
	reference rhf
	basis cc-pvtz
}

set_num_threads( 4 )
memory 2 gb

molecule MOL {
0 1

H	 1.440351	 1.019655	 -0.719055
C	 0.848385	 0.440008	 0.000011
C	 -0.623497	 0.751021	 0.000090
O	 1.374627	 -0.355517	 0.698189
C	 -1.523725	 -0.474323	 -0.000013
H	 -0.813143	 1.382932	 -0.864897
H	 -0.813071	 1.382716	 0.865253
H	 -1.342980	 -1.087348	 -0.873016
H	 -2.565269	 -0.177464	 0.000070
H	 -1.342898	 -1.087564	 0.872820

	symmetry c1
}
set optking {
	frozen_dihedral = ("
		4 2 3 6
	")
}

ee = optimize('scf')
oeprop('DIPOLE', 'QUADRUPOLE', 'MULLIKEN_CHARGES')
f=open( 'psi4out.xyz', 'w' )
f.write( "10  " )
f.write( str(ee) + "\n" )
f.write( MOL.save_string_xyz() )
f.close()
--------------------------------------------------------------------------

    Molecular point group: c1
  Charge       = 0
  Multiplicity = 1
  Basis Set: CC-PVTZ
  Basis Set:
  @DF-RHF Final Energy:  -192.02149303514159
    Total Energy =                       -192.0214930351415319
    Molecular point group: c1
  Basis Set: CC-PVTZ
  Basis Set:
  Basis Set: CC-PVTZ
  Basis Set:
  @DF-RHF Final Energy:  -192.02094542740059
    Total Energy =                       -192.0209454274005623
  Basis Set: CC-PVTZ
  Basis Set:
  Basis Set: CC-PVTZ
  Basis Set:
  @DF-RHF Final Energy:  -192.02175328859133
    Total Energy =                       -192.0217532885911282
  Basis Set: CC-PVTZ
  Basis Set:
  Basis Set: CC-PVTZ
  Basis Set:
  @DF-RHF Final Energy:  -192.02202103900822
    Total Energy =                       -192.0220210390081377
  Basis Set: CC-PVTZ
  Basis Set:
  Charge       = 0
  Multiplicity = 1
  Basis Set: CC-PVTZ
  Basis Set:

    Orbital Energies (a.u.)
    -----------------------

    Doubly Occupied:

       1A    -20.553372     2A    -11.323692     3A    -11.238372
       4A    -11.222324     5A     -1.409121     6A     -1.060892
       7A     -0.908551     8A     -0.780115     9A     -0.686400
      10A     -0.640838    11A     -0.618718    12A     -0.560744
      13A     -0.537326    14A     -0.515496    15A     -0.493552
      16A     -0.414889

  @DF-RHF Final Energy:  -192.02202185631023

   => Energetics <=

    Nuclear Repulsion Energy =            118.9806337005208405
    One-Electron Energy =                -496.0765017484750388
    Two-Electron Energy =                 185.0738461916438951
    DFT Exchange-Correlation Energy =       0.0000000000000000
    Empirical Dispersion Energy =           0.0000000000000000
    PCM Polarization Energy =               0.0000000000000000
    EFP Energy =                            0.0000000000000000
    Total Energy =                       -192.0220218563102890
    Molecular point group: c1
  Basis Set: CC-PVTZ
  Basis Set:

  -Total Gradient:
     Atom            X                  Y                   Z
    ------   -----------------  -----------------  -----------------
       1       -0.000037356126     0.000019875259    -0.000012331287
       2       -0.000343308534    -0.001768084703    -0.001787756070
       3       -0.000339713454    -0.001586836370    -0.000849254169
       4        0.000267520574     0.001522379372     0.001457606476
       5        0.000066477626     0.000092033815     0.000012031519
       6        0.000360909180     0.001708474314     0.001133675525
       7        0.000020241274     0.000018697102     0.000019781027
       8        0.000008209995     0.000008675107     0.000006380153
       9        0.000002967166     0.000015779987     0.000004014521
      10       -0.000005947700    -0.000030993885     0.000015852306

  **** Optimization is complete! (in 5 steps) ****
    Final optimized geometry and variables:
    Molecular point group: c1

    Geometry (in Angstrom), charge = 0, multiplicity = 1:

    H            1.479525453563     0.950228119306    -0.855212183129
    C            0.842928031948     0.363715354027    -0.182476871307
    C           -0.632563622227     0.687821333114    -0.209719819189
    O            1.327524137834    -0.439016136790     0.537708851709
    C           -1.523957993354    -0.549501329550    -0.176776617030
    H           -0.846035344256     1.317707201895    -1.065680399135
    H           -0.817340551415     1.300111699583     0.669986923852
    H           -1.381383117718    -1.156383053866    -1.063212621389
    H           -2.566996516175    -0.262699688358    -0.131047301401
    H           -1.295807591629    -1.159108597537     0.686003597184

  Mulliken Charges: (a.u.)
   Center  Symbol    Alpha    Beta     Spin     Total
       1     H     0.45514  0.45514  0.00000  0.08972
       2     C     2.91278  2.91278  0.00000  0.17444
       3     C     3.08399  3.08399  0.00000 -0.16799
       4     O     4.16716  4.16716  0.00000 -0.33432
       5     C     3.14253  3.14253  0.00000 -0.28505
       6     H     0.44879  0.44879  0.00000  0.10242
       7     H     0.44621  0.44621  0.00000  0.10759
       8     H     0.45312  0.45312  0.00000  0.09375
       9     H     0.44878  0.44878  0.00000  0.10244
      10     H     0.44150  0.44150  0.00000  0.11700

   Total alpha = 16.00000, Total beta = 16.00000, Total charge =  0.00000
