  ==> Input File <==

--------------------------------------------------------------------------
set {
	reference rhf
	basis 6-31G*
}

set_num_threads( 1 )
memory 2 gb

molecule MOL {
0 1

H	 3.883498	 0.352401	 -0.210468
N	 3.092854	 -0.246221	 -0.068770
C	 1.865559	 0.531981	 0.018834
H	 3.255486	 -0.742805	 0.786675
C	 0.645745	 -0.382037	 -0.029944
H	 1.841966	 1.207024	 -0.831236
H	 1.815756	 1.155410	 0.915079
C	 -0.679275	 0.379305	 0.025956
H	 0.698998	 -0.976915	 -0.937203
H	 0.693479	 -1.083846	 0.802235
C	 -1.903357	 -0.536963	 -0.023547
H	 -0.726309	 1.082987	 -0.803784
H	 -0.717680	 0.977832	 0.934877
C	 -3.225172	 0.228290	 0.028445
H	 -1.867824	 -1.134999	 -0.931459
H	 -1.860449	 -1.239604	 0.805977
H	 -3.313397	 0.915643	 -0.808262
H	 -4.073500	 -0.448134	 -0.008893
H	 -3.306061	 0.809945	 0.942516

	symmetry c1
}
set optking {
	frozen_dihedral = ("
		6 3 5 9,
		12 8 5 9,
		12 8 11 15
	")
}

ee = energy('scf')
oeprop('DIPOLE', 'QUADRUPOLE', 'MULLIKEN_CHARGES')
f=open( 'psi4out.xyz', 'w' )
f.write( "19  " )
f.write( str(ee) + "\n" )
f.write( MOL.save_string_xyz() )
f.close()
--------------------------------------------------------------------------

    Molecular point group: c1

    Geometry (in Angstrom), charge = 0, multiplicity = 1:

       Center              X                  Y                   Z               Mass
    ------------   -----------------  -----------------  -----------------  -----------------
           H          3.882962308042     0.351472847456    -0.209723198839     1.007825032070
           N          3.092318308042    -0.247149152544    -0.068025198839    14.003074004780
           C          1.865023308042     0.531052847456     0.019578801161    12.000000000000
           H          3.254950308042    -0.743733152544     0.787419801161     1.007825032070
           C          0.645209308042    -0.382965152544    -0.029199198839    12.000000000000
           H          1.841430308042     1.206095847456    -0.830491198839     1.007825032070
           H          1.815220308042     1.154481847456     0.915823801161     1.007825032070
           C         -0.679810691958     0.378376847456     0.026700801161    12.000000000000
           H          0.698462308042    -0.977843152544    -0.936458198839     1.007825032070
           H          0.692943308042    -1.084774152544     0.802979801161     1.007825032070
           C         -1.903892691958    -0.537891152544    -0.022802198839    12.000000000000
           H         -0.726844691958     1.082058847456    -0.803039198839     1.007825032070
           H         -0.718215691958     0.976903847456     0.935621801161     1.007825032070
           C         -3.225707691958     0.227361847456     0.029189801161    12.000000000000
           H         -1.868359691958    -1.135927152544    -0.930714198839     1.007825032070
           H         -1.860984691958    -1.240532152544     0.806721801161     1.007825032070
           H         -3.313932691958     0.914714847456    -0.807517198839     1.007825032070
           H         -4.074035691958    -0.449062152544    -0.008148198839     1.007825032070
           H         -3.306596691958     0.809016847456     0.943260801161     1.007825032070

  Charge       = 0
  Multiplicity = 1
  Basis Set: 6-31G*
  Basis Set:

    Orbital Energies (a.u.)
    -----------------------

    Doubly Occupied:

       1A    -15.532677     2A    -11.239864     3A    -11.213445
       4A    -11.212035     5A    -11.208102     6A    -11.207138
       7A     -1.176601     8A     -1.072406     9A     -0.997967
      10A     -0.899947    11A     -0.812217    12A     -0.788352
      13A     -0.667146    14A     -0.640229    15A     -0.616644
      16A     -0.586913    17A     -0.564954    18A     -0.549293
      19A     -0.527821    20A     -0.499363    21A     -0.478995
      22A     -0.464289    23A     -0.460332    24A     -0.450484
      25A     -0.380861

  @DF-RHF Final Energy:  -251.35161789820634

   => Energetics <=

    Nuclear Repulsion Energy =            245.5987139700850150
    One-Electron Energy =                -825.4044197589920486
    Two-Electron Energy =                 328.4540878907008619
    DFT Exchange-Correlation Energy =       0.0000000000000000
    Empirical Dispersion Energy =           0.0000000000000000
    PCM Polarization Energy =               0.0000000000000000
    EFP Energy =                            0.0000000000000000
    Total Energy =                       -251.3516178982062002

  Mulliken Charges: (a.u.)
   Center  Symbol    Alpha    Beta     Spin     Total
       1     H     0.33226  0.33226  0.00000  0.33548
       2     N     3.92177  3.92177  0.00000 -0.84354
       3     C     3.06223  3.06223  0.00000 -0.12446
       4     H     0.33502  0.33502  0.00000  0.32995
       5     C     3.14898  3.14898  0.00000 -0.29795
       6     H     0.42131  0.42131  0.00000  0.15738
       7     H     0.43420  0.43420  0.00000  0.13160
       8     C     3.15522  3.15522  0.00000 -0.31043
       9     H     0.41355  0.41355  0.00000  0.17290
      10     H     0.42745  0.42745  0.00000  0.14511
      11     C     3.15072  3.15072  0.00000 -0.30145
      12     H     0.42402  0.42402  0.00000  0.15196
      13     H     0.42512  0.42512  0.00000  0.14976
      14     C     3.23926  3.23926  0.00000 -0.47851
      15     H     0.42194  0.42194  0.00000  0.15612
      16     H     0.42328  0.42328  0.00000  0.15344
      17     H     0.42189  0.42189  0.00000  0.15623
      18     H     0.41945  0.41945  0.00000  0.16111
      19     H     0.42234  0.42234  0.00000  0.15531

   Total alpha = 25.00000, Total beta = 25.00000, Total charge =  0.00000
