  ==> Input File <==

--------------------------------------------------------------------------
set {
	reference rhf
	basis cc-pvtz
}

set_num_threads( 4 )
memory 2 gb

molecule MOL {
0 1

H	 2.708001	 -0.788647	 -0.565490
N	 2.326826	 -0.066186	 0.000000
C	 0.934676	 -0.005420	 0.000000
H	 2.739795	 -0.060246	 0.903573
C	 0.226436	 -0.001077	 -1.195129
C	 0.226436	 -0.001077	 1.195129
H	 0.759091	 -0.011439	 -2.128123
C	 -1.153391	 0.009141	 -1.189028
H	 0.759091	 -0.011439	 2.128123
C	 -1.153391	 0.009141	 1.189028
H	 -1.680905	 0.012964	 -2.124348
C	 -1.857876	 0.014675	 0.000000
H	 -1.680905	 0.012964	 2.124348
H	 -2.930222	 0.022904	 0.000000

	symmetry c1
}
set optking {
	frozen_dihedral = ("
		1 2 3 5
	")
}

ee = optimize('scf')
oeprop('DIPOLE', 'QUADRUPOLE', 'MULLIKEN_CHARGES')
f=open( 'psi4out.xyz', 'w' )
f.write( "14  " )
f.write( str(ee) + "\n" )
f.write( MOL.save_string_xyz() )
f.close()
--------------------------------------------------------------------------

    Molecular point group: c1
  Charge       = 0
  Multiplicity = 1
  Basis Set: CC-PVTZ
  Basis Set:
  @DF-RHF Final Energy:  -285.83165667307372
    Total Energy =                       -285.8316566730736099
    Molecular point group: c1
  Basis Set: CC-PVTZ
  Basis Set:
  Basis Set: CC-PVTZ
  Basis Set:
  @DF-RHF Final Energy:  -285.83252981276377
    Total Energy =                       -285.8325298127637666
  Basis Set: CC-PVTZ
  Basis Set:
  Basis Set: CC-PVTZ
  Basis Set:
  @DF-RHF Final Energy:  -285.83270210302993
    Total Energy =                       -285.8327021030298738
  Basis Set: CC-PVTZ
  Basis Set:
  Basis Set: CC-PVTZ
  Basis Set:
  @DF-RHF Final Energy:  -285.83271710970075
    Total Energy =                       -285.8327171097005817
  Basis Set: CC-PVTZ
  Basis Set:
  Charge       = 0
  Multiplicity = 1
  Basis Set: CC-PVTZ
  Basis Set:

    Orbital Energies (a.u.)
    -----------------------

    Doubly Occupied:

       1A    -15.554764     2A    -11.269097     3A    -11.227760
       4A    -11.227409     5A    -11.217830     6A    -11.216366
       7A    -11.213733     8A     -1.224602     9A     -1.131418
      10A     -1.014295    11A     -0.988769    12A     -0.832852
      13A     -0.813049    14A     -0.707503    15A     -0.683184
      16A     -0.653559    17A     -0.603403    18A     -0.594820
      19A     -0.582994    20A     -0.529194    21A     -0.506311
      22A     -0.488869    23A     -0.447047    24A     -0.336607
      25A     -0.299975

  @DF-RHF Final Energy:  -285.83271783527817

   => Energetics <=

    Nuclear Repulsion Energy =            273.5959616541870787
    One-Electron Energy =                -928.1265374756362689
    Two-Electron Energy =                 368.6978579861710728
    DFT Exchange-Correlation Energy =       0.0000000000000000
    Empirical Dispersion Energy =           0.0000000000000000
    PCM Polarization Energy =               0.0000000000000000
    EFP Energy =                            0.0000000000000000
    Total Energy =                       -285.8327178352781743
    Molecular point group: c1
  Basis Set: CC-PVTZ
  Basis Set:

  -Total Gradient:
     Atom            X                  Y                   Z
    ------   -----------------  -----------------  -----------------
       1        0.000106270975    -0.001791590886     0.001938128000
       2       -0.000162845136     0.003284211066    -0.002493317957
       3        0.000092835845    -0.003485022509     0.000326457850
       4        0.000045867425    -0.000022203509     0.000048326292
       5        0.000019421692     0.001999301737     0.000114878223
       6       -0.000129459086     0.000039882294     0.000051648565
       7        0.000001538656     0.000012716488    -0.000011664697
       8       -0.000079514346    -0.000068741135     0.000064551406
       9        0.000005048116     0.000020930180    -0.000000410976
      10        0.000099071205    -0.000113172015     0.000063840297
      11        0.000012757400     0.000011027616    -0.000003578966
      12       -0.000002090443     0.000089486479    -0.000112202804
      13       -0.000010714713     0.000012870399    -0.000002290106
      14        0.000001812408     0.000010303796     0.000015634869

  **** Optimization is complete! (in 5 steps) ****
    Final optimized geometry and variables:
    Molecular point group: c1

    Geometry (in Angstrom), charge = 0, multiplicity = 1:

    H            2.734759495678    -0.678970124723    -0.621647686373
    N            2.334326133791    -0.002162272551    -0.010563505900
    C            0.932380771785    -0.029821972046     0.004244196654
    H            2.732712811165    -0.103903067161     0.895668517622
    C            0.229185287255    -0.010827119889    -1.194197319510
    C            0.222062943500     0.001190888687     1.194754497492
    H            0.769633261563    -0.006792411242    -2.122195494877
    C           -1.149206978380     0.012607925457    -1.194096924189
    H            0.750356487732    -0.005331643852     2.130435654531
    C           -1.159477981000     0.041175336012     1.185313271394
    H           -1.674349288484     0.020944732474    -2.130632756881
    C           -1.857174669445     0.041934123803    -0.005541581254
    H           -1.690171404070     0.066054619310     2.118422278155
    H           -2.929342881292     0.068172825139    -0.009878498700

  Mulliken Charges: (a.u.)
   Center  Symbol    Alpha    Beta     Spin     Total
       1     H     0.42038  0.42038  0.00000  0.15924
       2     N     3.67257  3.67257  0.00000 -0.34514
       3     C     2.88927  2.88927  0.00000  0.22147
       4     H     0.42693  0.42693  0.00000  0.14613
       5     C     3.11462  3.11462  0.00000 -0.22923
       6     C     3.11758  3.11758  0.00000 -0.23516
       7     H     0.42897  0.42897  0.00000  0.14207
       8     C     3.05963  3.05963  0.00000 -0.11927
       9     H     0.43457  0.43457  0.00000  0.13087
      10     C     3.06072  3.06072  0.00000 -0.12144
      11     H     0.42442  0.42442  0.00000  0.15116
      12     C     3.10081  3.10081  0.00000 -0.20163
      13     H     0.42455  0.42455  0.00000  0.15090
      14     H     0.42499  0.42499  0.00000  0.15002

   Total alpha = 25.00000, Total beta = 25.00000, Total charge = -0.00000
