  ==> Input File <==

--------------------------------------------------------------------------
set {
	reference rhf
	basis cc-pvtz
}

set_num_threads( 4 )
memory 2 gb

molecule MOL {
0 1

H	 -0.459197	 -0.261142	 -2.190597
C	 -0.695917	 -0.939299	 -1.373927
O	 -1.401606	 -0.295183	 -0.366624
H	 -1.316465	 -1.737686	 -1.753910
H	 0.233429	 -1.366252	 -1.001219
C	 -0.718530	 0.758693	 0.228682
C	 0.718529	 0.758687	 -0.228709
H	 -1.176498	 1.708665	 -0.046615
H	 -0.748705	 0.673525	 1.312779
O	 1.401606	 -0.295166	 0.366636
H	 0.748705	 0.673477	 -1.312803
H	 1.176496	 1.708671	 0.046552
C	 2.714315	 -0.441627	 -0.061017
H	 2.765292	 -0.641548	 -1.128869
H	 3.305661	 0.447341	 0.150952
H	 3.143725	 -1.278506	 0.470147

	symmetry c1
}
set optking {
	frozen_dihedral = ("
		2 3 6 7
	")
}

ee = optimize('scf')
oeprop('DIPOLE', 'QUADRUPOLE', 'MULLIKEN_CHARGES')
f=open( 'psi4out.xyz', 'w' )
f.write( "16  " )
f.write( str(ee) + "\n" )
f.write( MOL.save_string_xyz() )
f.close()
--------------------------------------------------------------------------

    Molecular point group: c1
  Charge       = 0
  Multiplicity = 1
  Basis Set: CC-PVTZ
  Basis Set:
  @DF-RHF Final Energy:  -307.07229406750332
    Total Energy =                       -307.0722940675030941
    Molecular point group: c1
  Basis Set: CC-PVTZ
  Basis Set:
  Basis Set: CC-PVTZ
  Basis Set:
  @DF-RHF Final Energy:  -307.08328694606240
    Total Energy =                       -307.0832869460620032
  Basis Set: CC-PVTZ
  Basis Set:
  Basis Set: CC-PVTZ
  Basis Set:
  @DF-RHF Final Energy:  -307.08631952080623
    Total Energy =                       -307.0863195208063985
  Basis Set: CC-PVTZ
  Basis Set:
  Basis Set: CC-PVTZ
  Basis Set:
  @DF-RHF Final Energy:  -307.08824067606628
    Total Energy =                       -307.0882406760661070
  Basis Set: CC-PVTZ
  Basis Set:
  Basis Set: CC-PVTZ
  Basis Set:
  @DF-RHF Final Energy:  -307.08882235636094
    Total Energy =                       -307.0888223563606516
  Basis Set: CC-PVTZ
  Basis Set:
  Basis Set: CC-PVTZ
  Basis Set:
  @DF-RHF Final Energy:  -307.08908409973060
    Total Energy =                       -307.0890840997308828
  Basis Set: CC-PVTZ
  Basis Set:
  Basis Set: CC-PVTZ
  Basis Set:
  @DF-RHF Final Energy:  -307.08911937260524
    Total Energy =                       -307.0891193726052393
  Basis Set: CC-PVTZ
  Basis Set:
  Charge       = 0
  Multiplicity = 1
  Basis Set: CC-PVTZ
  Basis Set:

    Orbital Energies (a.u.)
    -----------------------

    Doubly Occupied:

       1A    -20.557331     2A    -20.540109     3A    -11.275113
       4A    -11.269468     5A    -11.267092     6A    -11.255628
       7A     -1.394527     8A     -1.366845     9A     -1.031061
      10A     -0.951843    11A     -0.899745    12A     -0.810896
      13A     -0.695720    14A     -0.684116    15A     -0.658745
      16A     -0.637575    17A     -0.628110    18A     -0.592383
      19A     -0.559973    20A     -0.544359    21A     -0.517959
      22A     -0.494832    23A     -0.447568    24A     -0.427692
      25A     -0.406970

  @DF-RHF Final Energy:  -307.08912094454718

   => Energetics <=

    Nuclear Repulsion Energy =            264.3589797208705932
    One-Electron Energy =                -943.0648771674414093
    Two-Electron Energy =                 371.6167765020237539
    DFT Exchange-Correlation Energy =       0.0000000000000000
    Empirical Dispersion Energy =           0.0000000000000000
    PCM Polarization Energy =               0.0000000000000000
    EFP Energy =                            0.0000000000000000
    Total Energy =                       -307.0891209445470622
    Molecular point group: c1
  Basis Set: CC-PVTZ
  Basis Set:

  -Total Gradient:
     Atom            X                  Y                   Z
    ------   -----------------  -----------------  -----------------
       1        0.000007588698    -0.000019659167    -0.000016371798
       2        0.000738958650    -0.001472113543     0.001383675136
       3       -0.001385915364     0.002810333049    -0.002957604280
       4        0.000000766845    -0.000023277700    -0.000012369995
       5       -0.000013828557     0.000022367937     0.000038430865
       6        0.001033316825    -0.002575854361     0.003047962751
       7       -0.000393404189     0.001174202464    -0.001503343883
       8        0.000013962178     0.000018257274     0.000004291080
       9        0.000015340630     0.000014241499     0.000003115084
      10       -0.000093184948     0.000006768899     0.000037519124
      11       -0.000000648253     0.000017909039     0.000000637298
      12        0.000004492025    -0.000010652057     0.000010120050
      13        0.000123329472     0.000050075748    -0.000054785102
      14       -0.000014075952    -0.000007246503     0.000013736366
      15       -0.000000141452    -0.000012671350     0.000001675122
      16       -0.000036556608     0.000007318769     0.000003312183

  **** Optimization is complete! (in 8 steps) ****
    Final optimized geometry and variables:
    Molecular point group: c1

    Geometry (in Angstrom), charge = 0, multiplicity = 1:

    H           -1.162863602034    -0.384981055157    -2.078090194607
    C           -1.350061907755    -0.966505099191    -1.178292309101
    O           -1.817440960007    -0.178622497507    -0.129251226177
    H           -2.133194587006    -1.677566654706    -1.398932108963
    H           -0.450956447766    -1.507758441538    -0.913999619314
    C           -1.010676772407     0.814264652408     0.438696149380
    C            0.451464870261     0.861033401148     0.048252572685
    H           -1.435045419330     1.782560821400     0.182714752230
    H           -1.070907068520     0.702508815260     1.514192093363
    O            1.136677852286    -0.227618651995     0.580756361390
    H            0.573300108562     0.897505753436    -1.031769044937
    H            0.856836888058     1.790054122943     0.447418289632
    C            2.499011838070    -0.238540343034     0.305131370392
    H            2.689297885769    -0.282501253844    -0.765056173726
    H            2.992378129583     0.644195994929     0.705911765963
    H            2.923448980179    -1.115893539342     0.770458794466

  Mulliken Charges: (a.u.)
   Center  Symbol    Alpha    Beta     Spin     Total
       1     H     0.47445  0.47445  0.00000  0.05110
       2     C     3.03805  3.03805  0.00000 -0.07610
       3     O     4.18254  4.18254  0.00000 -0.36507
       4     H     0.44268  0.44268  0.00000  0.11464
       5     H     0.46116  0.46116  0.00000  0.07768
       6     C     2.95247  2.95247  0.00000  0.09507
       7     C     3.00385  3.00385  0.00000 -0.00771
       8     H     0.47058  0.47058  0.00000  0.05883
       9     H     0.46079  0.46079  0.00000  0.07841
      10     O     4.17520  4.17520  0.00000 -0.35040
      11     H     0.46296  0.46296  0.00000  0.07408
      12     H     0.45616  0.45616  0.00000  0.08769
      13     C     3.03842  3.03842  0.00000 -0.07685
      14     H     0.46992  0.46992  0.00000  0.06016
      15     H     0.46658  0.46658  0.00000  0.06685
      16     H     0.44418  0.44418  0.00000  0.11163

   Total alpha = 25.00000, Total beta = 25.00000, Total charge = -0.00000
