                              Psi4 1.0.54 Driver

  ==> Input File <==

--------------------------------------------------------------------------
set {
	reference rhf
	basis cc-pvtz
}

set_num_threads( 4 )
memory 2 gb

molecule MOL {
0 1

H	 3.072026	 0.191054	 0.692932
O	 2.373631	 0.737453	 0.383502
C	 1.135873	 0.113391	 0.608264
C	 0.027642	 1.012027	 0.090274
H	 0.986083	 -0.057674	 1.671310
H	 1.104553	 -0.854869	 0.116378
C	 -1.138737	 0.285728	 -0.581921
H	 0.464661	 1.708096	 -0.618252
H	 -0.340737	 1.603071	 0.925246
C	 -1.933983	 -0.631436	 0.343653
H	 -0.763151	 -0.285569	 -1.422081
H	 -1.808359	 1.035291	 -0.992333
H	 -2.789188	 -1.049673	 -0.174718
H	 -1.335629	 -1.461368	 0.700418
H	 -2.305435	 -0.092167	 1.209725

	symmetry c1
}
set optking {
	frozen_dihedral = ("
		2 3 4 8
	")
}

ee,wfn = optimize('scf', return_wfn=True)
oeprop( wfn, 'DIPOLE', 'QUADRUPOLE', 'MULLIKEN_CHARGES')
f=open( 'psi4out.xyz', 'w' )
f.write( "15  " )
f.write( str(ee) + "\n" )
f.write( MOL.save_string_xyz() )
f.close()
--------------------------------------------------------------------------

    Molecular point group: c1
  Charge       = 0
  Multiplicity = 1
  Basis Set: CC-PVTZ
  Basis Set:
  @DF-RHF Final Energy:  -232.23354051884030
    Total Energy =                       -232.2335405188404138
    Molecular point group: c1
  Basis Set: CC-PVTZ
  Basis Set:
  Basis Set: CC-PVTZ
  Basis Set:
  @DF-RHF Final Energy:  -232.23406726001247
    Total Energy =                       -232.2340672600124662
  Basis Set: CC-PVTZ
  Basis Set:
  Basis Set: CC-PVTZ
  Basis Set:
  @DF-RHF Final Energy:  -232.23412321384120
    Total Energy =                       -232.2341232138414284
  Basis Set: CC-PVTZ
  Basis Set:
  Basis Set: CC-PVTZ
  Basis Set:
  @DF-RHF Final Energy:  -232.23411808331574
    Total Energy =                       -232.2341180833155363
  Basis Set: CC-PVTZ
  Basis Set:
  Basis Set: CC-PVTZ
  Basis Set:
  @DF-RHF Final Energy:  -232.23412806825752
    Total Energy =                       -232.2341280682572915
  Basis Set: CC-PVTZ
  Basis Set:
  Charge       = 0
  Multiplicity = 1
  Basis Set: CC-PVTZ
  Basis Set:

    Orbital Energies (a.u.)
    -----------------------

    Doubly Occupied:

       1A    -20.545647     2A    -11.265614     3A    -11.215633
       4A    -11.209280     5A    -11.209169     6A     -1.362997
       7A     -1.070239     8A     -0.970263     9A     -0.870861
      10A     -0.784820    11A     -0.703376    12A     -0.648784
      13A     -0.608812    14A     -0.592535    15A     -0.557865
      16A     -0.536880    17A     -0.511218    18A     -0.475714
      19A     -0.473026    20A     -0.456394    21A     -0.433752

  @DF-RHF Final Energy:  -232.23412858189809

   => Energetics <=

    Nuclear Repulsion Energy =            188.4082682957310624
    One-Electron Energy =                -688.2790311398352969
    Two-Electron Energy =                 267.6366342622060870
    DFT Exchange-Correlation Energy =       0.0000000000000000
    Empirical Dispersion Energy =           0.0000000000000000
    PCM Polarization Energy =               0.0000000000000000
    EFP Energy =                            0.0000000000000000
    Total Energy =                       -232.2341285818981191
    Molecular point group: c1
  Basis Set: CC-PVTZ
  Basis Set:

  -Total Gradient:
     Atom            X                  Y                   Z
    ------   -----------------  -----------------  -----------------
       1       -0.000000676321     0.000000547708    -0.000001330414
       2        0.000228631678    -0.001266772020    -0.002928293011
       3       -0.000174439525     0.002150452692     0.004445583206
       4       -0.000737923753    -0.003415239381    -0.004705529184
       5       -0.000013920963     0.000007239421    -0.000002451304
       6        0.000014330961     0.000008846182     0.000002211895
       7        0.000024278911     0.000012606706    -0.000010101795
       8        0.000675991258     0.002509614385     0.003168515332
       9       -0.000000499129    -0.000009032385     0.000015710934
      10        0.000011267893    -0.000006206982    -0.000000488093
      11       -0.000012077227     0.000008589266     0.000011095133
      12       -0.000001223086     0.000002843493     0.000000326515
      13       -0.000003814527    -0.000011972258     0.000000048227
      14       -0.000001401040     0.000001703679     0.000002437659
      15       -0.000008525123     0.000006779494     0.000002264899

  **** Optimization is complete! (in 6 steps) ****
    Final optimized geometry and variables:
    Molecular point group: c1

    Geometry (in Angstrom), charge = 0, multiplicity = 1:

    H            2.908963684720    -0.057540180002     0.580572666880
    O            2.212363271973     0.456586399070     0.215976956176
    C            0.983472301305    -0.198536254419     0.401871221341
    C           -0.135690673096     0.720566600442    -0.084963621343
    H            0.844820023247    -0.460907008386     1.446442159924
    H            0.974912895988    -1.124257655707    -0.169779321948
    C           -1.293929994977     0.001235075925    -0.770633889077
    H            0.313441759644     1.447401314266    -0.750489165633
    H           -0.517867325406     1.295302411548     0.754376744393
    C           -2.067847444546    -0.942056383460     0.147499543439
    H           -0.916416577376    -0.553620346693    -1.625076314510
    H           -1.977372698858     0.744637154782    -1.167873217606
    H           -2.891903363828    -1.408633502812    -0.379704798356
    H           -1.437380896175    -1.735890334042     0.533163586142
    H           -2.479290663791    -0.406377109776     0.996846034289

  Mulliken Charges: (a.u.)
   Center  Symbol    Alpha    Beta     Spin     Total
       1     H     0.39571  0.39571  0.00000  0.20858
       2     O     4.19780  4.19780  0.00000 -0.39559
       3     C     2.96468  2.96468  0.00000  0.07064
       4     C     3.09279  3.09279  0.00000 -0.18559
       5     H     0.47146  0.47146  0.00000  0.05708
       6     H     0.47532  0.47532  0.00000  0.04936
       7     C     3.09723  3.09723  0.00000 -0.19446
       8     H     0.44078  0.44078  0.00000  0.11843
       9     H     0.45561  0.45561  0.00000  0.08879
      10     C     3.14916  3.14916  0.00000 -0.29833
      11     H     0.45352  0.45352  0.00000  0.09296
      12     H     0.44850  0.44850  0.00000  0.10300
      13     H     0.44707  0.44707  0.00000  0.10586
      14     H     0.45613  0.45613  0.00000  0.08775
      15     H     0.45425  0.45425  0.00000  0.09151

   Total alpha = 21.00000, Total beta = 21.00000, Total charge = -0.00000

*** Psi4 exiting successfully. Buy a developer a beer!
