  ==> Input File <==

--------------------------------------------------------------------------
set {
	reference rhf
	basis 6-31G*
}

set_num_threads( 1 )
memory 2 gb

molecule MOL {
0 1

H	 0.825165	 0.620884	 2.365083
C	 1.424834	 0.428938	 1.467111
C	 0.692068	 0.589600	 0.160137
O	 2.567601	 0.118940	 1.567686
C	 -0.558097	 -0.297372	 0.091132
H	 1.381117	 0.364981	 -0.645617
H	 0.398075	 1.634774	 0.070639
C	 -1.850991	 0.512573	 -0.019058
H	 -0.476753	 -0.965681	 -0.762987
H	 -0.604799	 -0.930658	 0.975228
C	 -3.096943	 -0.368295	 -0.099594
H	 -1.800724	 1.150330	 -0.898172
H	 -1.931651	 1.177355	 0.838044
H	 -3.060452	 -1.020287	 -0.967456
H	 -3.996858	 0.233488	 -0.175704
H	 -3.191959	 -0.995686	 0.782074

	symmetry c1
}
set optking {
	frozen_dihedral = ("
		9 5 8 12,
		4 2 3 6
	")
}

ee = energy('scf')
oeprop('DIPOLE', 'QUADRUPOLE', 'MULLIKEN_CHARGES')
f=open( 'psi4out.xyz', 'w' )
f.write( "16  " )
f.write( str(ee) + "\n" )
f.write( MOL.save_string_xyz() )
f.close()
--------------------------------------------------------------------------

    Molecular point group: c1

    Geometry (in Angstrom), charge = 0, multiplicity = 1:

       Center              X                  Y                   Z               Mass
    ------------   -----------------  -----------------  -----------------  -----------------
           H          0.966409010849     0.463259994510     1.832219544117     1.007825032070
           C          1.566078010849     0.271313994510     0.934247544117    12.000000000000
           C          0.833312010849     0.431975994510    -0.372726455883    12.000000000000
           O          2.708845010849    -0.038684005490     1.034822544117    15.994914619560
           C         -0.416852989151    -0.454996005490    -0.441731455883    12.000000000000
           H          1.522361010849     0.207356994510    -1.178480455883     1.007825032070
           H          0.539319010849     1.477149994510    -0.462224455883     1.007825032070
           C         -1.709746989151     0.354948994510    -0.551921455883    12.000000000000
           H         -0.335508989151    -1.123305005490    -1.295850455883     1.007825032070
           H         -0.463554989151    -1.088282005490     0.442364544117     1.007825032070
           C         -2.955698989151    -0.525919005490    -0.632457455883    12.000000000000
           H         -1.659479989151     0.992705994510    -1.431035455883     1.007825032070
           H         -1.790406989151     1.019730994510     0.305180544117     1.007825032070
           H         -2.919207989151    -1.177911005490    -1.500319455883     1.007825032070
           H         -3.855613989151     0.075863994510    -0.708567455883     1.007825032070
           H         -3.050714989151    -1.153310005490     0.249210544117     1.007825032070

  Charge       = 0
  Multiplicity = 1
  Basis Set: 6-31G*
  Basis Set:

    Orbital Energies (a.u.)
    -----------------------

    Doubly Occupied:

       1A    -20.562082     2A    -11.326828     3A    -11.235666
       4A    -11.233712     5A    -11.230378     6A    -11.218757
       7A     -1.402103     8A     -1.097635     9A     -1.018276
      10A     -0.905473    11A     -0.817783    12A     -0.792659
      13A     -0.671025    14A     -0.657203    15A     -0.617786
      16A     -0.606741    17A     -0.583151    18A     -0.553578
      19A     -0.535459    20A     -0.507288    21A     -0.485350
      22A     -0.482093    23A     -0.474261    24A     -0.409664

  @DF-RHF Final Energy:  -270.01474046661309

   => Energetics <=

    Nuclear Repulsion Energy =            229.9417916201329604
    One-Electron Energy =                -821.0631535217974033
    Two-Electron Energy =                 321.1066214350512382
    DFT Exchange-Correlation Energy =       0.0000000000000000
    Empirical Dispersion Energy =           0.0000000000000000
    PCM Polarization Energy =               0.0000000000000000
    EFP Energy =                            0.0000000000000000
    Total Energy =                       -270.0147404666131479

  Mulliken Charges: (a.u.)
   Center  Symbol    Alpha    Beta     Spin     Total
       1     H     0.43185  0.43185  0.00000  0.13630
       2     C     2.83279  2.83279  0.00000  0.33441
       3     C     3.20919  3.20919  0.00000 -0.41839
       4     O     4.23776  4.23776  0.00000 -0.47552
       5     C     3.16575  3.16575  0.00000 -0.33150
       6     H     0.39693  0.39693  0.00000  0.20614
       7     H     0.40666  0.40666  0.00000  0.18668
       8     C     3.15531  3.15531  0.00000 -0.31062
       9     H     0.41001  0.41001  0.00000  0.17998
      10     H     0.41586  0.41586  0.00000  0.16828
      11     C     3.24094  3.24094  0.00000 -0.48189
      12     H     0.41883  0.41883  0.00000  0.16235
      13     H     0.42207  0.42207  0.00000  0.15587
      14     H     0.41946  0.41946  0.00000  0.16109
      15     H     0.41668  0.41668  0.00000  0.16663
      16     H     0.41991  0.41991  0.00000  0.16018

   Total alpha = 24.00000, Total beta = 24.00000, Total charge = -0.00000
