  ==> Input File <==

--------------------------------------------------------------------------
set {
	reference rhf
	basis 6-31G*
}

set_num_threads( 4 )
memory 2 gb

molecule MOL {
0 1

H	 -3.261111	 -0.295142	 1.469456
C	 -3.306842	 -0.277400	 0.373456
C	 -2.660244	 0.921717	 -0.272021
O	 -3.838538	 -1.161155	 -0.216482
C	 -1.220012	 1.144545	 0.209990
H	 -2.705793	 0.797307	 -1.347733
H	 -3.263782	 1.790044	 -0.010477
C	 -0.252658	 0.041456	 -0.226725
H	 -0.873521	 2.100229	 -0.171974
H	 -1.211708	 1.231594	 1.295398
C	 1.180775	 0.282413	 0.250794
H	 -0.266029	 -0.034465	 -1.312038
H	 -0.597733	 -0.921000	 0.146291
C	 2.148627	 -0.814315	 -0.201312
H	 1.516199	 1.249228	 -0.115937
H	 1.192670	 0.346017	 1.338083
C	 3.580890	 -0.659131	 0.322722
H	 2.166869	 -0.852443	 -1.289387
H	 1.762857	 -1.776509	 0.128956
C	 4.654674	 -1.288955	 -0.566058
H	 3.636102	 -1.112473	 1.309323
H	 3.800917	 0.397298	 0.462248
H	 4.451343	 -2.342968	 -0.736298
H	 4.717185	 -0.803429	 -1.534216
H	 5.632789	 -1.212834	 -0.100772

	symmetry c1
}
set optking {
	frozen_dihedral = ("
		20 17 14 18
	")
}

ee = optimize('scf')
oeprop('DIPOLE', 'QUADRUPOLE', 'MULLIKEN_CHARGES')
f=open( 'psi4out.xyz', 'w' )
f.write( "25  " )
f.write( str(ee) + "\n" )
f.write( MOL.save_string_xyz() )
f.close()
--------------------------------------------------------------------------

    Molecular point group: c1
  Charge       = 0
  Multiplicity = 1
  Basis Set: 6-31G*
  Basis Set:
  @DF-RHF Final Energy:  -387.12086776084487
    Total Energy =                       -387.1208677608448170
    Molecular point group: c1
  Basis Set: 6-31G*
  Basis Set:
  Basis Set: 6-31G*
  Basis Set:
  @DF-RHF Final Energy:  -387.12107111439178
    Total Energy =                       -387.1210711143917251
  Basis Set: 6-31G*
  Basis Set:
  Basis Set: 6-31G*
  Basis Set:
  @DF-RHF Final Energy:  -387.12120742633141
    Total Energy =                       -387.1212074263314662
  Basis Set: 6-31G*
  Basis Set:
  Basis Set: 6-31G*
  Basis Set:
  @DF-RHF Final Energy:  -387.12130417397213
    Total Energy =                       -387.1213041739721348
  Basis Set: 6-31G*
  Basis Set:
  Basis Set: 6-31G*
  Basis Set:
  @DF-RHF Final Energy:  -387.12132278517345
    Total Energy =                       -387.1213227851731062
  Basis Set: 6-31G*
  Basis Set:
  Basis Set: 6-31G*
  Basis Set:
  @DF-RHF Final Energy:  -387.12132783105142
    Total Energy =                       -387.1213278310517580
  Basis Set: 6-31G*
  Basis Set:
  Charge       = 0
  Multiplicity = 1
  Basis Set: 6-31G*
  Basis Set:

    Orbital Energies (a.u.)
    -----------------------

    Doubly Occupied:

       1A    -20.562073     2A    -11.326227     3A    -11.235458
       4A    -11.234754     5A    -11.224003     6A    -11.220721
       7A    -11.217563     8A    -11.216475     9A    -11.210463
      10A     -1.402010    11A     -1.103838    12A     -1.069352
      13A     -1.015192    14A     -0.943526    15A     -0.868220
      16A     -0.815010    17A     -0.794586    18A     -0.787084
      19A     -0.664634    20A     -0.663400    21A     -0.638040
      22A     -0.613915    23A     -0.608711    24A     -0.591471
      25A     -0.566911    26A     -0.556664    27A     -0.535543
      28A     -0.519545    29A     -0.509903    30A     -0.499728
      31A     -0.485587    32A     -0.479204    33A     -0.466946
      34A     -0.461477    35A     -0.440405    36A     -0.409602

  @DF-RHF Final Energy:  -387.12132879506686

   => Energetics <=

    Nuclear Repulsion Energy =            435.3354389080510032
    One-Electron Energy =               -1386.9970513747398400
    Two-Electron Energy =                 564.5402836716216370
    DFT Exchange-Correlation Energy =       0.0000000000000000
    Empirical Dispersion Energy =           0.0000000000000000
    PCM Polarization Energy =               0.0000000000000000
    EFP Energy =                            0.0000000000000000
    Total Energy =                       -387.1213287950672566
    Molecular point group: c1
  Basis Set: 6-31G*
  Basis Set:

  -Total Gradient:
     Atom            X                  Y                   Z
    ------   -----------------  -----------------  -----------------
       1        0.000019468789    -0.000021968950    -0.000000274818
       2       -0.000073674844     0.000050000555    -0.000007721358
       3        0.000028874237    -0.000009028059     0.000000625684
       4        0.000015776725    -0.000026670179     0.000008008828
       5       -0.000001650429     0.000022145788    -0.000023348705
       6       -0.000003585295     0.000004282548    -0.000000256929
       7       -0.000011186639    -0.000016924803     0.000004599786
       8        0.000002568017     0.000014318329     0.000016159761
       9        0.000018187283    -0.000002760873     0.000008991510
      10        0.000001090330     0.000001041009     0.000000051871
      11       -0.000022148655    -0.000010132866     0.000052425649
      12        0.000004083357     0.000003921950    -0.000001116175
      13        0.000003013558     0.000002881537     0.000006091257
      14       -0.000408412037     0.006281535375    -0.000888502578
      15        0.000011083909     0.000017606196    -0.000007629731
      16       -0.000001143583     0.000009344042    -0.000010547200
      17       -0.000347199748    -0.004643449995     0.002277232339
      18        0.000487328697    -0.004250099541     0.000274980564
      19       -0.000011538069    -0.000060045971    -0.000059131388
      20        0.000300318404     0.002580906236    -0.001585337944
      21       -0.000024441238     0.000040010686    -0.000028301546
      22        0.000001974787     0.000037555759    -0.000012077326
      23        0.000037975815    -0.000018185217    -0.000042999522
      24       -0.000034729091     0.000014406615     0.000017984994
      25        0.000007965726    -0.000020690167     0.000000092978

  **** Optimization is complete! (in 7 steps) ****
    Final optimized geometry and variables:
    Molecular point group: c1

    Geometry (in Angstrom), charge = 0, multiplicity = 1:

    H           -3.312389692926    -0.081661968806     1.498829685749
    C           -3.349769150261    -0.053935732693     0.402626230727
    C           -2.691073372374     1.146981890999    -0.227290404446
    O           -3.887342124103    -0.926604876466    -0.198467856313
    C           -1.251150571244     1.353543950167     0.263103740998
    H           -2.732788668381     1.034048920341    -1.304474564450
    H           -3.289176091249     2.017032773551     0.040610633768
    C           -0.289296271121     0.249885032367    -0.184394278716
    H           -0.896402136633     2.312195436343    -0.104042113464
    H           -1.246593192579     1.425417947155     1.349481330397
    C            1.144540783299     0.478091893803     0.296062328700
    H           -0.301804502485     0.186149321322    -1.270534751815
    H           -0.639607172824    -0.714838741992     0.177849325426
    C            2.115335631117    -0.609578192120    -0.162670337718
    H            1.494844729423     1.444805593958    -0.061473595071
    H            1.156391967370     0.533788744573     1.383583692390
    C            3.542699097533    -0.429379200075     0.374957707026
    H            2.136693660539    -0.663846530177    -1.249331409720
    H            1.739306463309    -1.580423778553     0.156775269872
    C            4.606696717793    -1.069791466446    -0.516279864177
    H            3.607638622450    -0.831178072554     1.382626608713
    H            3.763311653183     0.632990054643     0.460118293212
    H            4.428370334020    -2.133982816659    -0.645927271040
    H            4.608728269983    -0.613946388164    -1.501934700080
    H            5.599280066389    -0.951173114490    -0.092778128455

  Mulliken Charges: (a.u.)
   Center  Symbol    Alpha    Beta     Spin     Total
       1     H     0.43261  0.43261  0.00000  0.13479
       2     C     2.83085  2.83085  0.00000  0.33830
       3     C     3.20812  3.20812  0.00000 -0.41625
       4     O     4.23774  4.23774  0.00000 -0.47548
       5     C     3.16668  3.16668  0.00000 -0.33336
       6     H     0.39969  0.39969  0.00000  0.20062
       7     H     0.40659  0.40659  0.00000  0.18682
       8     C     3.15544  3.15544  0.00000 -0.31087
       9     H     0.41278  0.41278  0.00000  0.17445
      10     H     0.41958  0.41958  0.00000  0.16084
      11     C     3.15308  3.15308  0.00000 -0.30617
      12     H     0.41791  0.41791  0.00000  0.16418
      13     H     0.41821  0.41821  0.00000  0.16357
      14     C     3.15356  3.15356  0.00000 -0.30712
      15     H     0.42253  0.42253  0.00000  0.15494
      16     H     0.42293  0.42293  0.00000  0.15414
      17     C     3.15266  3.15266  0.00000 -0.30531
      18     H     0.42161  0.42161  0.00000  0.15677
      19     H     0.42145  0.42145  0.00000  0.15709
      20     C     3.24003  3.24003  0.00000 -0.48006
      21     H     0.42081  0.42081  0.00000  0.15838
      22     H     0.42316  0.42316  0.00000  0.15367
      23     H     0.42118  0.42118  0.00000  0.15764
      24     H     0.42127  0.42127  0.00000  0.15746
      25     H     0.41952  0.41952  0.00000  0.16097

   Total alpha = 36.00000, Total beta = 36.00000, Total charge =  0.00000
