  ==> Input File <==

--------------------------------------------------------------------------
set {
	reference rhf
	basis 6-31G*
}

set_num_threads( 4 )
memory 2 gb

molecule MOL {
0 1

O	 0.096868	 1.228463	 0.278581
C	 0.028650	 0.075053	 -0.000277
C	 -1.233602	 -0.752807	 0.000328
O	 1.080376	 -0.650989	 -0.356135
C	 -2.501530	 0.091881	 0.000126
H	 -1.193807	 -1.406641	 -0.865785
H	 -1.193516	 -1.405779	 0.867015
H	 -2.545121	 0.729328	 -0.874513
H	 -3.377167	 -0.548497	 0.000561
H	 -2.544818	 0.730135	 0.874258
C	 2.332834	 0.008803	 -0.396269
H	 2.311011	 0.822032	 -1.107322
H	 3.049480	 -0.737035	 -0.702876
H	 2.589495	 0.396381	 0.579118

	symmetry c1
}
set optking {
	frozen_dihedral = ("
		4 2 3 6
	")
}

ee = optimize('scf')
oeprop('DIPOLE', 'QUADRUPOLE', 'MULLIKEN_CHARGES')
f=open( 'psi4out.xyz', 'w' )
f.write( "14  " )
f.write( str(ee) + "\n" )
f.write( MOL.save_string_xyz() )
f.close()
--------------------------------------------------------------------------

    Molecular point group: c1
  Charge       = 0
  Multiplicity = 1
  Basis Set: 6-31G*
  Basis Set:
  @DF-RHF Final Energy:  -305.87187520960981
    Total Energy =                       -305.8718752096098683
    Molecular point group: c1
  Basis Set: 6-31G*
  Basis Set:
  Basis Set: 6-31G*
  Basis Set:
  @DF-RHF Final Energy:  -305.87188061932625
    Total Energy =                       -305.8718806193264754
  Basis Set: 6-31G*
  Basis Set:
  Basis Set: 6-31G*
  Basis Set:
  @DF-RHF Final Energy:  -305.87186072231930
    Total Energy =                       -305.8718607223191839
  Basis Set: 6-31G*
  Basis Set:
  Basis Set: 6-31G*
  Basis Set:
  @DF-RHF Final Energy:  -305.87196368927812
    Total Energy =                       -305.8719636892782319
  Basis Set: 6-31G*
  Basis Set:
  Charge       = 0
  Multiplicity = 1
  Basis Set: 6-31G*
  Basis Set:

    Orbital Energies (a.u.)
    -----------------------

    Doubly Occupied:

       1A    -20.605024     2A    -20.545841     3A    -11.372947
       4A    -11.281510     5A    -11.238611     6A    -11.217283
       7A     -1.470379     8A     -1.363594     9A     -1.064425
      10A     -0.980410    11A     -0.878689    12A     -0.769331
      13A     -0.700574    14A     -0.682653    15A     -0.671809
      16A     -0.620735    17A     -0.602509    18A     -0.546535
      19A     -0.537594    20A     -0.521050    21A     -0.514336
      22A     -0.496065    23A     -0.457321    24A     -0.438969

  @DF-RHF Final Energy:  -305.87196425339084

   => Energetics <=

    Nuclear Repulsion Energy =            247.1262581870407757
    One-Electron Energy =                -906.8400545874847012
    Two-Electron Energy =                 353.8418321470529690
    DFT Exchange-Correlation Energy =       0.0000000000000000
    Empirical Dispersion Energy =           0.0000000000000000
    PCM Polarization Energy =               0.0000000000000000
    EFP Energy =                            0.0000000000000000
    Total Energy =                       -305.8719642533909564
    Molecular point group: c1
  Basis Set: 6-31G*
  Basis Set:

  -Total Gradient:
     Atom            X                  Y                   Z
    ------   -----------------  -----------------  -----------------
       1        0.000002752963    -0.000030368537    -0.000028032767
       2        0.000198683243    -0.000275142341     0.000985527954
       3       -0.000497835250     0.000763874251    -0.000719786016
       4       -0.000096414473     0.000146389161    -0.000712167756
       5        0.000012720683    -0.000012333716    -0.000022696865
       6        0.000370566839    -0.000554127443     0.000444772740
       7        0.000005785222    -0.000015271185     0.000007933024
       8       -0.000003664915     0.000005377974    -0.000003369176
       9        0.000000843219    -0.000000776582    -0.000005760796
      10        0.000014044429    -0.000013521843     0.000001810511
      11       -0.000005569455    -0.000032052849     0.000106315770
      12       -0.000024248994     0.000004910243    -0.000016648456
      13        0.000000006966     0.000004673068    -0.000016833224
      14        0.000022329526     0.000008369801    -0.000021064943

  **** Optimization is complete! (in 5 steps) ****
    Final optimized geometry and variables:
    Molecular point group: c1

    Geometry (in Angstrom), charge = 0, multiplicity = 1:

    O            0.099292330933     1.218668808681     0.347990045424
    C            0.033989210644     0.065708296659     0.065838967358
    C           -1.227417331803    -0.763791743003     0.073417718736
    O            1.088801142890    -0.658249664752    -0.283913415206
    C           -2.495791390091     0.080513020695     0.101059709243
    H           -1.201384263184    -1.429524036428    -0.781749906610
    H           -1.172547151302    -1.404798637418     0.950252599960
    H           -2.568264809679     0.705735112957    -0.781568872998
    H           -3.370705962702    -0.559711334313     0.135499291859
    H           -2.510221154302     0.729718673799     0.967086263290
    C            2.343949466437    -0.002329559103    -0.291749396864
    H            2.337084542638     0.821014415796    -0.991313578430
    H            3.063616077676    -0.746121909710    -0.596253371030
    H            2.584417069995     0.370472134486     0.693508890991

  Mulliken Charges: (a.u.)
   Center  Symbol    Alpha    Beta     Spin     Total
       1     O     4.28546  4.28546  0.00000 -0.57092
       2     C     2.60742  2.60742  0.00000  0.78516
       3     C     3.20592  3.20592  0.00000 -0.41184
       4     O     4.30583  4.30583  0.00000 -0.61167
       5     C     3.24009  3.24009  0.00000 -0.48019
       6     H     0.40031  0.40031  0.00000  0.19939
       7     H     0.39989  0.39989  0.00000  0.20022
       8     H     0.41295  0.41295  0.00000  0.17410
       9     H     0.41745  0.41745  0.00000  0.16511
      10     H     0.40610  0.40610  0.00000  0.18780
      11     C     3.09259  3.09259  0.00000 -0.18518
      12     H     0.40849  0.40849  0.00000  0.18301
      13     H     0.40835  0.40835  0.00000  0.18330
      14     H     0.40915  0.40915  0.00000  0.18170

   Total alpha = 24.00000, Total beta = 24.00000, Total charge = -0.00000
