  ==> Input File <==

--------------------------------------------------------------------------
set {
	reference rhf
	basis 6-31G*
}

set_num_threads( 4 )
memory 2 gb

molecule MOL {
0 1

H	 -3.269016	 -0.876744	 0.468090
C	 -2.809304	 0.000122	 0.025886
N	 -1.391456	 0.000019	 0.300661
H	 -3.037557	 -0.000063	 -1.044252
H	 -3.269223	 0.876956	 0.468000
C	 -1.102565	 0.233174	 1.702078
C	 -0.668560	 0.937463	 -0.536255
H	 -1.455848	 1.216532	 2.027200
H	 -1.619847	 -0.514764	 2.294168
C	 0.392679	 0.132274	 1.960211
H	 -0.869345	 0.703172	 -1.576616
H	 -0.993112	 1.967445	 -0.359304
C	 0.826684	 0.836563	 -0.278122
H	 0.593464	 0.366564	 3.000571
H	 0.717231	 -0.897708	 1.783259
N	 1.115575	 1.069718	 1.123295
H	 1.343966	 1.584501	 -0.870212
H	 1.179967	 -0.146795	 -0.603244
C	 2.533423	 1.069616	 1.398070
H	 2.705163	 1.309153	 2.441574
H	 3.024333	 1.826669	 0.796651
H	 3.009742	 0.107218	 1.187818

	symmetry c1
}
set optking {
	frozen_dihedral = ("
		6 3 2 4
	")
}

ee = optimize('scf')
oeprop('DIPOLE', 'QUADRUPOLE', 'MULLIKEN_CHARGES')
f=open( 'psi4out.xyz', 'w' )
f.write( "22  " )
f.write( str(ee) + "\n" )
f.write( MOL.save_string_xyz() )
f.close()
--------------------------------------------------------------------------

    Molecular point group: c1
  Charge       = 0
  Multiplicity = 1
  Basis Set: 6-31G*
  Basis Set:
  @DF-RHF Final Energy:  -344.22909651648865
    Total Energy =                       -344.2290965164886529
    Molecular point group: c1
  Basis Set: 6-31G*
  Basis Set:
  Basis Set: 6-31G*
  Basis Set:
  @DF-RHF Final Energy:  -344.22982737724061
    Total Energy =                       -344.2298273772408947
  Basis Set: 6-31G*
  Basis Set:
  Basis Set: 6-31G*
  Basis Set:
  @DF-RHF Final Energy:  -344.22994499235250
    Total Energy =                       -344.2299449923524435
  Basis Set: 6-31G*
  Basis Set:
  Basis Set: 6-31G*
  Basis Set:
  @DF-RHF Final Energy:  -344.22994646492072
    Total Energy =                       -344.2299464649204310
  Basis Set: 6-31G*
  Basis Set:
  Charge       = 0
  Multiplicity = 1
  Basis Set: 6-31G*
  Basis Set:

    Orbital Energies (a.u.)
    -----------------------

    Doubly Occupied:

       1A    -15.542332     2A    -15.541885     3A    -11.238863
       4A    -11.238744     5A    -11.238221     6A    -11.238117
       7A    -11.235991     8A    -11.235932     9A     -1.255271
      10A     -1.204230    11A     -1.024505    12A     -0.991701
      13A     -0.911372    14A     -0.866656    15A     -0.835486
      16A     -0.755539    17A     -0.665499    18A     -0.636295
      19A     -0.630160    20A     -0.626504    21A     -0.621164
      22A     -0.581047    23A     -0.550579    24A     -0.545370
      25A     -0.541886    26A     -0.517828    27A     -0.496679
      28A     -0.490329    29A     -0.464313    30A     -0.455544
      31A     -0.350755    32A     -0.345473

  @DF-RHF Final Energy:  -344.22994675582731

   => Energetics <=

    Nuclear Repulsion Energy =            421.4414508504037258
    One-Electron Energy =               -1301.5942510466272779
    Two-Electron Energy =                 535.9228534403958975
    DFT Exchange-Correlation Energy =       0.0000000000000000
    Empirical Dispersion Energy =           0.0000000000000000
    PCM Polarization Energy =               0.0000000000000000
    EFP Energy =                            0.0000000000000000
    Total Energy =                       -344.2299467558276547
    Molecular point group: c1
  Basis Set: 6-31G*
  Basis Set:

  -Total Gradient:
     Atom            X                  Y                   Z
    ------   -----------------  -----------------  -----------------
       1        0.000012211696     0.000006989327     0.000000506925
       2        0.000019550694    -0.003014270447    -0.000124859492
       3       -0.000117878226    -0.002343173441     0.000571422119
       4        0.000019589142     0.003083646389    -0.000026605761
       5       -0.000004855729    -0.000000898790     0.000004039175
       6        0.000077687626     0.002273241278    -0.000437800073
       7       -0.000014712890    -0.000018834705     0.000017351855
       8        0.000003660360     0.000000390540     0.000001192657
       9       -0.000004998813     0.000000358795     0.000000577590
      10        0.000000852525     0.000009650966     0.000002665391
      11        0.000003603021     0.000001919933     0.000000747142
      12       -0.000005074704     0.000003084228     0.000001091728
      13        0.000012858250    -0.000007970748    -0.000009496088
      14        0.000000336522    -0.000000165770     0.000002450897
      15       -0.000003137696     0.000003591463    -0.000001114823
      16        0.000000031711     0.000002179146     0.000001460812
      17       -0.000000696756     0.000001090329     0.000000246764
      18        0.000001684388    -0.000000779840    -0.000000025511
      19        0.000001195571    -0.000000186038    -0.000003729350
      20       -0.000000887981     0.000000384411     0.000000707306
      21       -0.000001139834    -0.000000543358    -0.000000152568
      22        0.000000121126     0.000000296332    -0.000000676691

  **** Optimization is complete! (in 5 steps) ****
    Final optimized geometry and variables:
    Molecular point group: c1

    Geometry (in Angstrom), charge = 0, multiplicity = 1:

    H           -3.140350241989    -1.412296798378    -0.239563715319
    C           -2.674751410960    -0.535483692351    -0.675934361393
    N           -1.252393999421    -0.542767741230    -0.414762853035
    H           -2.853322627703    -0.541327424986    -1.744831003636
    H           -3.172446251549     0.351100876710    -0.271483863368
    C           -0.962292200686    -0.301467242432     0.985864516308
    C           -0.533182324562     0.405132036883    -1.246092377089
    H           -1.315718777135     0.684606431263     1.301456953932
    H           -1.482428181601    -1.043712396763     1.583314595026
    C            0.532058447869    -0.402195148536     1.247473532491
    H           -0.732499157419     0.177526602683    -2.287933361239
    H           -0.859352133984     1.433202723901    -1.061517772838
    C            0.962642106547     0.305423411328    -0.990496772947
    H            0.730819719174    -0.166448426690     2.287949578384
    H            0.857463998444    -1.432176857453     1.072488444285
    N            1.255191133520     0.535236152307     0.410742532566
    H            1.477970579356     1.055238954565    -1.581999760491
    H            1.315630705045    -0.676863682736    -1.319162505519
    C            2.673441594152     0.532473980231     0.682553140524
    H            2.847927977621     0.769350290263     1.726249889531
    H            3.164146336528     1.290233765677     0.081832373051
    H            3.148104996730    -0.430025848591     0.468961525263

  Mulliken Charges: (a.u.)
   Center  Symbol    Alpha    Beta     Spin     Total
       1     H     0.41542  0.41542  0.00000  0.16916
       2     C     3.14058  3.14058  0.00000 -0.28116
       3     N     3.78593  3.78593  0.00000 -0.57185
       4     H     0.41782  0.41782  0.00000  0.16436
       5     H     0.43314  0.43314  0.00000  0.13373
       6     C     3.05810  3.05810  0.00000 -0.11620
       7     C     3.05788  3.05788  0.00000 -0.11575
       8     H     0.42790  0.42790  0.00000  0.14421
       9     H     0.41775  0.41775  0.00000  0.16450
      10     C     3.05603  3.05603  0.00000 -0.11205
      11     H     0.41768  0.41768  0.00000  0.16464
      12     H     0.42847  0.42847  0.00000  0.14306
      13     C     3.05637  3.05637  0.00000 -0.11274
      14     H     0.41795  0.41795  0.00000  0.16409
      15     H     0.42836  0.42836  0.00000  0.14327
      16     N     3.78704  3.78704  0.00000 -0.57407
      17     H     0.41797  0.41797  0.00000  0.16405
      18     H     0.42836  0.42836  0.00000  0.14328
      19     C     3.14030  3.14030  0.00000 -0.28061
      20     H     0.41678  0.41678  0.00000  0.16643
      21     H     0.41678  0.41678  0.00000  0.16643
      22     H     0.43340  0.43340  0.00000  0.13321

   Total alpha = 32.00000, Total beta = 32.00000, Total charge =  0.00000
