                              Psi4 1.0.54 Driver

  ==> Input File <==

--------------------------------------------------------------------------
set {
	reference rhf
	basis cc-pvtz
}

set_num_threads( 4 )
memory 2 gb

molecule MOL {
0 1

O	 -2.374409	 1.338660	 -0.336961
C	 -2.104891	 0.204655	 -0.107126
C	 -0.881910	 -0.448129	 -0.720509
C	 -2.949910	 -0.638219	 0.818225
C	 -1.275278	 -1.656621	 -1.579375
H	 -0.241775	 -0.771764	 0.090416
H	 -0.334258	 0.269427	 -1.322219
C	 -0.062157	 -2.346171	 -2.200153
H	 -1.828541	 -2.349280	 -0.957803
H	 -1.949246	 -1.339490	 -2.371520
C	 -0.399567	 -3.524701	 -3.115100
H	 0.599570	 -2.685684	 -1.407167
H	 0.500321	 -1.613957	 -2.772939
C	 -1.024742	 -4.723533	 -2.405990
H	 0.513491	 -3.847397	 -3.605507
H	 -1.063601	 -3.186040	 -3.906112
H	 -0.384218	 -5.079646	 -1.605677
H	 -1.173193	 -5.543705	 -3.098848
H	 -1.989191	 -4.483848	 -1.975098
H	 -3.440322	 -1.417144	 0.243099
H	 -3.694377	 -0.025850	 1.303346
H	 -2.331085	 -1.129829	 1.560495

	symmetry c1
}
set optking {
	frozen_dihedral = ("
		6 3 2 1
	")
}

ee,wfn = optimize('scf', return_wfn=True)
oeprop( wfn, 'DIPOLE', 'QUADRUPOLE', 'MULLIKEN_CHARGES')
f=open( 'psi4out.xyz', 'w' )
f.write( "22  " )
f.write( str(ee) + "\n" )
f.write( MOL.save_string_xyz() )
f.close()
--------------------------------------------------------------------------

    Molecular point group: c1
  Charge       = 0
  Multiplicity = 1
  Basis Set: CC-PVTZ
  Basis Set:
  @DF-RHF Final Energy:  -348.22183499712219
    Total Energy =                       -348.2218349971225280
    Molecular point group: c1
  Basis Set: CC-PVTZ
  Basis Set:
  Basis Set: CC-PVTZ
  Basis Set:
  @DF-RHF Final Energy:  -348.22243024880441
    Total Energy =                       -348.2224302488044714
  Basis Set: CC-PVTZ
  Basis Set:
  Basis Set: CC-PVTZ
  Basis Set:
  @DF-RHF Final Energy:  -348.22246568786932
    Total Energy =                       -348.2224656878692031
  Basis Set: CC-PVTZ
  Basis Set:
  Basis Set: CC-PVTZ
  Basis Set:
  @DF-RHF Final Energy:  -348.22287808312836
    Total Energy =                       -348.2228780831277959
  Basis Set: CC-PVTZ
  Basis Set:
  @DF-RHF Final Energy:  -348.22293825691514
    Total Energy =                       -348.2229382569151994
  Basis Set: CC-PVTZ
  Basis Set:
  @DF-RHF Final Energy:  -348.22294154855405
    Total Energy =                       -348.2229415485541040
  Basis Set: CC-PVTZ
  Basis Set:
  Basis Set: CC-PVTZ
  Basis Set:
  @DF-RHF Final Energy:  -348.22294432211828
    Total Energy =                       -348.2229443221181100
  Basis Set: CC-PVTZ
  Basis Set:
  Basis Set: CC-PVTZ
  Basis Set:
  @DF-RHF Final Energy:  -348.22294597210174
    Total Energy =                       -348.2229459721014564
  Basis Set: CC-PVTZ
  Basis Set:
  Charge       = 0
  Multiplicity = 1
  Basis Set: CC-PVTZ
  Basis Set:

    Orbital Energies (a.u.)
    -----------------------

    Doubly Occupied:

       1A    -20.537141     2A    -11.319117     3A    -11.230072
       4A    -11.228012     5A    -11.226149     6A    -11.222462
       7A    -11.220949     8A    -11.213287     9A     -1.396744
      10A     -1.099848    11A     -1.047162    12A     -0.998082
      13A     -0.941321    14A     -0.862945    15A     -0.789489
      16A     -0.733968    17A     -0.663165    18A     -0.650043
      19A     -0.628962    20A     -0.623933    21A     -0.598606
      22A     -0.589812    23A     -0.554372    24A     -0.549089
      25A     -0.538692    26A     -0.517893    27A     -0.499878
      28A     -0.494411    29A     -0.473893    30A     -0.467704
      31A     -0.465194    32A     -0.398856

  @DF-RHF Final Energy:  -348.22294683679894

   => Energetics <=

    Nuclear Repulsion Energy =            373.6103363066103498
    One-Electron Energy =               -1212.1040636865441229
    Two-Electron Energy =                 490.2707805431355155
    DFT Exchange-Correlation Energy =       0.0000000000000000
    Empirical Dispersion Energy =           0.0000000000000000
    PCM Polarization Energy =               0.0000000000000000
    EFP Energy =                            0.0000000000000000
    Total Energy =                       -348.2229468367982008
    Molecular point group: c1
  Basis Set: CC-PVTZ
  Basis Set:

  -Total Gradient:
     Atom            X                  Y                   Z
    ------   -----------------  -----------------  -----------------
       1        0.000074882683     0.000075965054     0.000015611932
       2       -0.000124074013    -0.000093855624     0.000001937291
       3       -0.000015825304    -0.000080947869     0.000025784115
       4        0.000041013534     0.000118446308    -0.000070904036
       5        0.000016823815     0.000041125625     0.000004062828
       6        0.000028397048     0.000089078346     0.000014953041
       7        0.000051826267    -0.000012706568    -0.000048854075
       8       -0.000023158283     0.000015807188    -0.000000882391
       9       -0.000026065431    -0.000020331270     0.000019870010
      10       -0.000021360489     0.000007158353    -0.000011448144
      11        0.000037079036    -0.000017374723    -0.000029397187
      12        0.000019857641    -0.000000059942    -0.000008013208
      13        0.000010129438     0.000013086759    -0.000025646918
      14       -0.000010271734     0.000005653205     0.000026866793
      15        0.000017365221    -0.000013603664    -0.000006622902
      16        0.000009236447     0.000016482583    -0.000017621077
      17        0.000008742404    -0.000018296902     0.000003084927
      18       -0.000010448632    -0.000004762568    -0.000001884139
      19       -0.000024971046     0.000009557095     0.000021102611
      20       -0.000069831235    -0.000110155534    -0.000075101167
      21       -0.000084195324     0.000076495735     0.000065798169
      22        0.000094847954    -0.000096761588     0.000097303526

  **** Optimization is complete! (in 9 steps) ****
    Final optimized geometry and variables:
    Molecular point group: c1

    Geometry (in Angstrom), charge = 0, multiplicity = 1:

    O           -0.930610978160     2.854058564119     0.813395765903
    C           -0.693101089127     1.724274222201     1.094337926996
    C            0.488461812159     0.995966718479     0.486082955437
    C           -1.564504845512     0.965360097266     2.070939186245
    C            0.097238352051    -0.228017260160    -0.348710750006
    H            1.147635721029     0.685915291177     1.293164216996
    H            1.023750935791     1.711574859607    -0.122943381288
    C            1.308809547736    -0.878690910250    -1.014030950438
    H           -0.410623783271    -0.951036661608     0.278510049480
    H           -0.612128853401     0.074901309540    -1.114422190088
    C            0.977334392866    -2.060749888835    -1.926413147156
    H            2.007780362948    -1.203080931086    -0.246442724579
    H            1.828318225888    -0.125735286473    -1.599082600164
    C            0.408471285909    -3.282418243724    -1.208702754844
    H            1.883971491317    -2.353837137679    -2.446206860030
    H            0.280595833820    -1.735817333299    -2.694382429014
    H            1.081834467650    -3.625431271934    -0.429626157191
    H            0.264184388770    -4.102048393159    -1.902942696069
    H           -0.550800257977    -3.075016739384    -0.749639824063
    H           -2.185553686820     0.259137133574     1.530665511312
    H           -2.201657840747     1.658708374462     2.598524210032
    H           -0.965061740604     0.399538249623     2.774744918738

  Mulliken Charges: (a.u.)
   Center  Symbol    Alpha    Beta     Spin     Total
       1     O     4.17294  4.17294  0.00000 -0.34587
       2     C     2.85721  2.85721  0.00000  0.28559
       3     C     3.09602  3.09602  0.00000 -0.19204
       4     C     3.16451  3.16451  0.00000 -0.32901
       5     C     3.10847  3.10847  0.00000 -0.21694
       6     H     0.44832  0.44832  0.00000  0.10337
       7     H     0.43828  0.43828  0.00000  0.12343
       8     C     3.09695  3.09695  0.00000 -0.19389
       9     H     0.44840  0.44840  0.00000  0.10319
      10     H     0.44537  0.44537  0.00000  0.10925
      11     C     3.09025  3.09025  0.00000 -0.18050
      12     H     0.45285  0.45285  0.00000  0.09429
      13     H     0.44496  0.44496  0.00000  0.11009
      14     C     3.15307  3.15307  0.00000 -0.30615
      15     H     0.44690  0.44690  0.00000  0.10620
      16     H     0.45276  0.45276  0.00000  0.09449
      17     H     0.45440  0.45440  0.00000  0.09121
      18     H     0.44459  0.44459  0.00000  0.11082
      19     H     0.45478  0.45478  0.00000  0.09045
      20     H     0.44774  0.44774  0.00000  0.10451
      21     H     0.43207  0.43207  0.00000  0.13586
      22     H     0.44917  0.44917  0.00000  0.10166

   Total alpha = 32.00000, Total beta = 32.00000, Total charge = -0.00000

*** Psi4 exiting successfully. Buy a developer a beer!
