  ==> Input File <==

--------------------------------------------------------------------------
set {
	reference rhf
	basis 6-31G*
}

set_num_threads( 4 )
memory 2 gb

molecule MOL {
0 1

O	 1.846825	 1.296220	 0.000415
C	 1.705091	 0.115954	 0.001797
C	 0.381791	 -0.609817	 0.001258
O	 2.721346	 -0.737485	 -0.000216
C	 -0.823008	 0.326187	 0.001381
H	 0.371250	 -1.265087	 -0.865474
H	 0.370908	 -1.265746	 0.867490
C	 -2.149452	 -0.435131	 -0.000098
H	 -0.770201	 0.977095	 -0.865636
H	 -0.771220	 0.975655	 0.869608
C	 -3.368779	 0.488503	 -0.000883
H	 -2.193746	 -1.087250	 -0.871175
H	 -2.195311	 -1.087803	 0.870418
C	 -4.051470	 0.574083	 -1.365383
H	 -3.065321	 1.484296	 0.314475
H	 -4.084444	 0.139155	 0.740006
H	 -3.370330	 0.953660	 -2.121812
H	 -4.911649	 1.235546	 -1.333608
H	 -4.397167	 -0.402336	 -1.693119
C	 4.024888	 -0.184556	 -0.001949
H	 4.179030	 0.422472	 -0.882452
H	 4.701782	 -1.024608	 -0.003642
H	 4.181981	 0.421185	 0.878906

	symmetry c1
}
set optking {
	frozen_dihedral = ("
		15 11 8 12
	")
}

ee = optimize('scf')
oeprop('DIPOLE', 'QUADRUPOLE', 'MULLIKEN_CHARGES')
f=open( 'psi4out.xyz', 'w' )
f.write( "23  " )
f.write( str(ee) + "\n" )
f.write( MOL.save_string_xyz() )
f.close()
--------------------------------------------------------------------------

    Molecular point group: c1
  Charge       = 0
  Multiplicity = 1
  Basis Set: 6-31G*
  Basis Set:
  @DF-RHF Final Energy:  -422.97123310510756
    Total Energy =                       -422.9712331051074443
    Molecular point group: c1
  Basis Set: 6-31G*
  Basis Set:
  Basis Set: 6-31G*
  Basis Set:
  @DF-RHF Final Energy:  -422.97149034233178
    Total Energy =                       -422.9714903423315491
  Basis Set: 6-31G*
  Basis Set:
  Basis Set: 6-31G*
  Basis Set:
  @DF-RHF Final Energy:  -422.97074550554737
    Total Energy =                       -422.9707455055477112
  Basis Set: 6-31G*
  Basis Set:
  Basis Set: 6-31G*
  Basis Set:
  @DF-RHF Final Energy:  -422.97161303853972
    Total Energy =                       -422.9716130385396582
  Basis Set: 6-31G*
  Basis Set:
  Basis Set: 6-31G*
  Basis Set:
  @DF-RHF Final Energy:  -422.97162660973032
    Total Energy =                       -422.9716266097311745
  Basis Set: 6-31G*
  Basis Set:
  Basis Set: 6-31G*
  Basis Set:
  @DF-RHF Final Energy:  -422.97162923146936
    Total Energy =                       -422.9716292314693646
  Basis Set: 6-31G*
  Basis Set:
  Charge       = 0
  Multiplicity = 1
  Basis Set: 6-31G*
  Basis Set:

    Orbital Energies (a.u.)
    -----------------------

    Doubly Occupied:

       1A    -20.603646     2A    -20.545450     3A    -11.372304
       4A    -11.280858     5A    -11.235349     6A    -11.219506
       7A    -11.217704     8A    -11.216238     9A    -11.209359
      10A     -1.469340    11A     -1.362790    12A     -1.092293
      13A     -1.041954    14A     -0.986165    15A     -0.931178
      16A     -0.847396    17A     -0.791902    18A     -0.767607
      19A     -0.696627    20A     -0.683483    21A     -0.672039
      22A     -0.643482    23A     -0.615062    24A     -0.597486
      25A     -0.583383    26A     -0.564287    27A     -0.537285
      28A     -0.528171    29A     -0.521686    30A     -0.503343
      31A     -0.494188    32A     -0.468237    33A     -0.460995
      34A     -0.459466    35A     -0.454530    36A     -0.435360

  @DF-RHF Final Energy:  -422.97162945144203

   => Energetics <=

    Nuclear Repulsion Energy =            454.8301264155410308
    One-Electron Energy =               -1477.3832125721637567
    Two-Electron Energy =                 599.5814567051809263
    DFT Exchange-Correlation Energy =       0.0000000000000000
    Empirical Dispersion Energy =           0.0000000000000000
    PCM Polarization Energy =               0.0000000000000000
    EFP Energy =                            0.0000000000000000
    Total Energy =                       -422.9716294514417996
    Molecular point group: c1
  Basis Set: 6-31G*
  Basis Set:

  -Total Gradient:
     Atom            X                  Y                   Z
    ------   -----------------  -----------------  -----------------
       1       -0.000012116610     0.000008461245     0.000000380565
       2        0.000005653999     0.000007939755     0.000007723412
       3       -0.000004253652    -0.000008801438    -0.000030933803
       4       -0.000006149439    -0.000015502999    -0.000002609730
       5       -0.000004941880     0.000022165920     0.000028985558
       6        0.000005045544    -0.000007759705     0.000001430995
       7       -0.000001328638     0.000005903674     0.000004080541
       8       -0.001812952556    -0.002318872609     0.001278085319
       9        0.000001127303    -0.000004184559     0.000001856340
      10        0.000003553473     0.000005436501     0.000005339188
      11       -0.000376155040    -0.000375824659     0.003139338058
      12        0.001571174127     0.002011959565    -0.001586982200
      13       -0.000008813295     0.000005217033     0.000007701283
      14        0.000001236729    -0.000025831887    -0.000003386373
      15        0.000637945477     0.000710426279    -0.002844377568
      16        0.000018312564    -0.000020975782    -0.000005575852
      17       -0.000000828983    -0.000006804059     0.000005314445
      18        0.000004383731     0.000004701409     0.000005019355
      19       -0.000011937026     0.000000242119    -0.000009694601
      20       -0.000004392724     0.000004631397    -0.000002977605
      21        0.000001175029     0.000000183421     0.000000410762
      22       -0.000003809375    -0.000002072029     0.000000457673
      23       -0.000001928764    -0.000000638589     0.000000414240

  **** Optimization is complete! (in 7 steps) ****
    Final optimized geometry and variables:
    Molecular point group: c1

    Geometry (in Angstrom), charge = 0, multiplicity = 1:

    O            1.763707744783     1.200287456653     0.169216235011
    C            1.626119575831     0.019612884538     0.155590864785
    C            0.305335754413    -0.710737326001     0.160626002279
    O            2.645193842204    -0.830143285287     0.133001475239
    C           -0.902359543809     0.220499190278     0.190563649871
    H            0.286333713033    -1.352954897149    -0.715738198284
    H            0.307351122909    -1.379938805470     1.016842280328
    C           -2.228312889503    -0.546267855626     0.203380186833
    H           -0.865994786136     0.881344399765    -0.670295939626
    H           -0.839531530988     0.860744428227     1.064660408003
    C           -3.457649637358     0.384815892929     0.159412285705
    H           -2.247197417659    -1.209572363225    -0.658986503237
    H           -2.264986532100    -1.179888807072     1.085653569292
    C           -4.083076438302     0.483868624691    -1.233880396879
    H           -3.164809246572     1.384311262600     0.470085921327
    H           -4.211561278590     0.046238347928     0.863393455105
    H           -3.357345647487     0.826990972669    -1.966250377705
    H           -4.914908496573     1.181560903858    -1.242929222783
    H           -4.455492398179    -0.481110995526    -1.565682944138
    C            3.946771803681    -0.272596320306     0.125247013806
    H            4.090270954462     0.345533101336    -0.749305076922
    H            4.626484013222    -1.110219852243     0.106743938859
    H            4.110390298412     0.322957664352     1.011845465774

  Mulliken Charges: (a.u.)
   Center  Symbol    Alpha    Beta     Spin     Total
       1     O     4.28611  4.28611  0.00000 -0.57222
       2     C     2.60518  2.60518  0.00000  0.78964
       3     C     3.20838  3.20838  0.00000 -0.41676
       4     O     4.30722  4.30722  0.00000 -0.61443
       5     C     3.15448  3.15448  0.00000 -0.30896
       6     H     0.40066  0.40066  0.00000  0.19868
       7     H     0.40073  0.40073  0.00000  0.19854
       8     C     3.15688  3.15688  0.00000 -0.31375
       9     H     0.41183  0.41183  0.00000  0.17634
      10     H     0.41118  0.41118  0.00000  0.17764
      11     C     3.15538  3.15538  0.00000 -0.31076
      12     H     0.42208  0.42208  0.00000  0.15583
      13     H     0.42068  0.42068  0.00000  0.15863
      14     C     3.24040  3.24040  0.00000 -0.48081
      15     H     0.41804  0.41804  0.00000  0.16393
      16     H     0.41924  0.41924  0.00000  0.16152
      17     H     0.42140  0.42140  0.00000  0.15719
      18     H     0.41938  0.41938  0.00000  0.16124
      19     H     0.42173  0.42173  0.00000  0.15654
      20     C     3.09244  3.09244  0.00000 -0.18487
      21     H     0.40909  0.40909  0.00000  0.18183
      22     H     0.40843  0.40843  0.00000  0.18314
      23     H     0.40907  0.40907  0.00000  0.18186

   Total alpha = 36.00000, Total beta = 36.00000, Total charge =  0.00000
