  ==> Input File <==

--------------------------------------------------------------------------
set {
	reference rhf
	basis 6-31G*
}

set_num_threads( 1 )
memory 2 gb

molecule MOL {
0 1

H	 3.481769	 -1.573176	 -2.329685
C	 3.081811	 -1.444006	 -1.329136
C	 1.812262	 -0.593837	 -1.349664
H	 2.885905	 -2.432195	 -0.922528
H	 3.856018	 -0.984316	 -0.721241
C	 1.217350	 -0.386724	 0.039429
H	 1.061149	 -1.056991	 -1.981889
H	 2.035317	 0.375427	 -1.792569
N	 0.000003	 0.397874	 -0.023260
H	 0.970432	 -1.352891	 0.471305
H	 1.969351	 0.062620	 0.696668
C	 -1.217365	 -0.386708	 0.039277
H	 -0.000031	 1.072115	 0.718656
C	 -2.452633	 0.504241	 -0.042481
H	 -1.215291	 -1.074557	 -0.802042
H	 -1.269739	 -1.003477	 0.942735
C	 -3.758029	 -0.289423	 -0.010781
H	 -2.394220	 1.093569	 -0.952170
H	 -2.440793	 1.210787	 0.785871
H	 -3.816659	 -0.981993	 -0.845726
H	 -4.617837	 0.370165	 -0.069296
H	 -3.847478	 -0.867502	 0.904682

	symmetry c1
}
set optking {
	frozen_dihedral = ("
		15 12 14 18
	")
}

ee = energy('scf')
oeprop('DIPOLE', 'QUADRUPOLE', 'MULLIKEN_CHARGES')
f=open( 'psi4out.xyz', 'w' )
f.write( "22  " )
f.write( str(ee) + "\n" )
f.write( MOL.save_string_xyz() )
f.close()
--------------------------------------------------------------------------

    Molecular point group: c1

    Geometry (in Angstrom), charge = 0, multiplicity = 1:

       Center              X                  Y                   Z               Mass
    ------------   -----------------  -----------------  -----------------  -----------------
           H          3.671319829557    -1.248965321284    -1.952814063397     1.007825032070
           C          3.271361829557    -1.119795321284    -0.952265063397    12.000000000000
           C          2.001812829557    -0.269626321284    -0.972793063397    12.000000000000
           H          3.075455829557    -2.107984321284    -0.545657063397     1.007825032070
           H          4.045568829557    -0.660105321284    -0.344370063397     1.007825032070
           C          1.406900829557    -0.062513321284     0.416299936603    12.000000000000
           H          1.250699829557    -0.732780321284    -1.605018063397     1.007825032070
           H          2.224867829557     0.699637678716    -1.415698063397     1.007825032070
           N          0.189553829557     0.722084678716     0.353610936603    14.003074004780
           H          1.159982829557    -1.028680321284     0.848175936603     1.007825032070
           H          2.158901829557     0.386830678716     1.073538936603     1.007825032070
           C         -1.027814170443    -0.062497321284     0.416147936603    12.000000000000
           H          0.189519829557     1.396325678716     1.095526936603     1.007825032070
           C         -2.263082170443     0.828451678716     0.334389936603    12.000000000000
           H         -1.025740170443    -0.750346321284    -0.425171063397     1.007825032070
           H         -1.080188170443    -0.679266321284     1.319605936603     1.007825032070
           C         -3.568478170443     0.034787678716     0.366089936603    12.000000000000
           H         -2.204669170443     1.417779678716    -0.575299063397     1.007825032070
           H         -2.251242170443     1.534997678716     1.162741936603     1.007825032070
           H         -3.627108170443    -0.657782321284    -0.468855063397     1.007825032070
           H         -4.428286170443     0.694375678716     0.307574936603     1.007825032070
           H         -3.657927170443    -0.543291321284     1.281552936603     1.007825032070

  Charge       = 0
  Multiplicity = 1
  Basis Set: 6-31G*
  Basis Set:

    Orbital Energies (a.u.)
    -----------------------

    Doubly Occupied:

       1A    -15.532487     2A    -11.239272     3A    -11.237817
       4A    -11.214080     5A    -11.210210     6A    -11.206340
       7A    -11.205537     8A     -1.205656     9A     -1.056465
      10A     -1.024975    11A     -0.927459    12A     -0.871489
      13A     -0.805830    14A     -0.791523    15A     -0.666808
      16A     -0.637105    17A     -0.613945    18A     -0.599438
      19A     -0.581773    20A     -0.555805    21A     -0.545618
      22A     -0.521857    23A     -0.500067    24A     -0.489869
      25A     -0.480758    26A     -0.472715    27A     -0.461032
      28A     -0.454048    29A     -0.356797

  @DF-RHF Final Energy:  -290.37890686469962

   => Energetics <=

    Nuclear Repulsion Energy =            316.1690872846514822
    One-Electron Energy =               -1018.1630866418095138
    Two-Electron Energy =                 411.6150924924575065
    DFT Exchange-Correlation Energy =       0.0000000000000000
    Empirical Dispersion Energy =           0.0000000000000000
    PCM Polarization Energy =               0.0000000000000000
    EFP Energy =                            0.0000000000000000
    Total Energy =                       -290.3789068647005251

  Mulliken Charges: (a.u.)
   Center  Symbol    Alpha    Beta     Spin     Total
       1     H     0.41838  0.41838  0.00000  0.16324
       2     C     3.24567  3.24567  0.00000 -0.49133
       3     C     3.14155  3.14155  0.00000 -0.28309
       4     H     0.42291  0.42291  0.00000  0.15418
       5     H     0.42304  0.42304  0.00000  0.15392
       6     C     3.06053  3.06053  0.00000 -0.12106
       7     H     0.42252  0.42252  0.00000  0.15495
       8     H     0.41839  0.41839  0.00000  0.16323
       9     N     3.85497  3.85497  0.00000 -0.70993
      10     H     0.43005  0.43005  0.00000  0.13990
      11     H     0.42329  0.42329  0.00000  0.15343
      12     C     3.05182  3.05182  0.00000 -0.10364
      13     H     0.33265  0.33265  0.00000  0.33471
      14     C     3.15538  3.15538  0.00000 -0.31076
      15     H     0.42123  0.42123  0.00000  0.15754
      16     H     0.43523  0.43523  0.00000  0.12954
      17     C     3.24330  3.24330  0.00000 -0.48661
      18     H     0.41269  0.41269  0.00000  0.17462
      19     H     0.42651  0.42651  0.00000  0.14699
      20     H     0.42064  0.42064  0.00000  0.15872
      21     H     0.41757  0.41757  0.00000  0.16487
      22     H     0.42170  0.42170  0.00000  0.15660

   Total alpha = 29.00000, Total beta = 29.00000, Total charge = -0.00000
