  ==> Input File <==

--------------------------------------------------------------------------
set {
	reference rhf
	basis 6-31G*
}

set_num_threads( 4 )
memory 2 gb

molecule MOL {
0 1

H	 2.332609	 0.878551	 -1.051851
C	 2.357710	 0.000000	 -0.417167
C	 1.175432	 0.000000	 0.532082
H	 3.291263	 0.000000	 0.136880
H	 2.332609	 -0.878551	 -1.051851
O	 0.000000	 0.000000	 -0.221444
H	 1.206604	 0.877321	 1.177902
H	 1.206604	 -0.877321	 1.177902
C	 -1.175432	 0.000000	 0.532082
C	 -2.348132	 0.225158	 -0.402227
H	 -1.135938	 0.783946	 1.288134
H	 -1.284292	 -0.949029	 1.056715
H	 -2.245280	 1.174447	 -0.915625
H	 -3.281436	 0.231016	 0.152209
H	 -2.393842	 -0.560958	 -1.147370

	symmetry c1
}
set optking {
	frozen_dihedral = ("
		11 9 6 3
	")
}

ee = optimize('scf')
oeprop('DIPOLE', 'QUADRUPOLE', 'MULLIKEN_CHARGES')
f=open( 'psi4out.xyz', 'w' )
f.write( "15  " )
f.write( str(ee) + "\n" )
f.write( MOL.save_string_xyz() )
f.close()
--------------------------------------------------------------------------

    Molecular point group: c1
  Charge       = 0
  Multiplicity = 1
  Basis Set: 6-31G*
  Basis Set:
  @DF-RHF Final Energy:  -232.14455228564515
    Total Energy =                       -232.1445522856453181
    Molecular point group: c1
  Basis Set: 6-31G*
  Basis Set:
  Basis Set: 6-31G*
  Basis Set:
  @DF-RHF Final Energy:  -232.14456322356560
    Total Energy =                       -232.1445632235657968
  Basis Set: 6-31G*
  Basis Set:
  Charge       = 0
  Multiplicity = 1
  Basis Set: 6-31G*
  Basis Set:

    Orbital Energies (a.u.)
    -----------------------

    Doubly Occupied:

       1A    -20.551083     2A    -11.268145     3A    -11.268059
       4A    -11.209004     5A    -11.208867     6A     -1.377598
       7A     -1.043996     8A     -0.982363     9A     -0.846084
      10A     -0.826640    11A     -0.677124    12A     -0.667588
      13A     -0.607542    14A     -0.596694    15A     -0.549258
      16A     -0.530667    17A     -0.522854    18A     -0.492948
      19A     -0.487348    20A     -0.465040    21A     -0.410781

  @DF-RHF Final Energy:  -232.14456602033039

   => Energetics <=

    Nuclear Repulsion Energy =            191.0858867675286774
    One-Electron Energy =                -693.2815381523532778
    Two-Electron Energy =                 270.0510853644943268
    DFT Exchange-Correlation Energy =       0.0000000000000000
    Empirical Dispersion Energy =           0.0000000000000000
    PCM Polarization Energy =               0.0000000000000000
    EFP Energy =                            0.0000000000000000
    Total Energy =                       -232.1445660203302737
    Molecular point group: c1
  Basis Set: 6-31G*
  Basis Set:

  -Total Gradient:
     Atom            X                  Y                   Z
    ------   -----------------  -----------------  -----------------
       1       -0.000003566422     0.000002476193    -0.000000008912
       2       -0.000022804650    -0.000014079439    -0.000012842761
       3        0.000020776506     0.001085916209     0.000036578725
       4       -0.000008394334    -0.000004269751     0.000007797615
       5        0.000007970339    -0.000004259654    -0.000008630730
       6        0.000167869899    -0.001702781360     0.000206778409
       7       -0.000006924047    -0.000004748138    -0.000001518639
       8       -0.000000627168    -0.000002774785    -0.000006717572
       9       -0.000700331814     0.001485257443    -0.001040886323
      10       -0.000021475789     0.000005632571    -0.000038901115
      11        0.000541203123    -0.000893671862     0.000813547593
      12        0.000007812135     0.000028647155     0.000034103804
      13        0.000004521231     0.000023681437    -0.000014449716
      14        0.000015608847    -0.000009774222     0.000014537393
      15       -0.000001637857     0.000004748203     0.000010612230

  **** Optimization is complete! (in 3 steps) ****
    Final optimized geometry and variables:
    Molecular point group: c1

    Geometry (in Angstrom), charge = 0, multiplicity = 1:

    H            2.334494995811     0.823633545207    -1.057907006723
    C            2.356807347925    -0.052675421742    -0.419924820470
    C            1.174518325693    -0.044716497479     0.529279782540
    H            3.290485687917    -0.053689557896     0.134090390355
    H            2.328871303249    -0.933549329564    -1.051312261417
    O           -0.001106396002    -0.038382427872    -0.224042299702
    H            1.209707431919     0.833290370986     1.173628675998
    H            1.201954319477    -0.921229374743     1.176574176031
    C           -1.178154525126    -0.043344475919     0.527750755269
    C           -2.352451352119     0.176614188676    -0.405352266022
    H           -1.140593515741     0.734359177626     1.289928499185
    H           -1.280978681469    -0.994028095964     1.051026408288
    H           -2.261824974167     1.132411183898    -0.909041572788
    H           -3.286572446362     0.163299887615     0.147731608889
    H           -2.386555305282    -0.602531564570    -1.158453679742

  Mulliken Charges: (a.u.)
   Center  Symbol    Alpha    Beta     Spin     Total
       1     H     0.41342  0.41342  0.00000  0.17317
       2     C     3.24422  3.24422  0.00000 -0.48844
       3     C     2.98746  2.98746  0.00000  0.02508
       4     H     0.42254  0.42254  0.00000  0.15491
       5     H     0.41341  0.41341  0.00000  0.17318
       6     O     4.30914  4.30914  0.00000 -0.61827
       7     H     0.43196  0.43196  0.00000  0.13607
       8     H     0.43259  0.43259  0.00000  0.13482
       9     C     2.98724  2.98724  0.00000  0.02552
      10     C     3.24413  3.24413  0.00000 -0.48827
      11     H     0.43282  0.43282  0.00000  0.13437
      12     H     0.43169  0.43169  0.00000  0.13661
      13     H     0.41394  0.41394  0.00000  0.17213
      14     H     0.42252  0.42252  0.00000  0.15495
      15     H     0.41292  0.41292  0.00000  0.17416

   Total alpha = 21.00000, Total beta = 21.00000, Total charge = -0.00000
