                              Psi4 1.0.54 Driver

  ==> Input File <==

--------------------------------------------------------------------------
set {
	reference rhf
	basis cc-pvtz
}

set_num_threads( 4 )
memory 2 gb

molecule MOL {
0 1

O	 2.491174	 0.112069	 -0.884214
C	 1.704209	 0.119472	 -0.000093
C	 0.380337	 -0.600947	 -0.000234
O	 1.892138	 0.779016	 1.131322
C	 -0.824290	 0.329213	 -0.000115
H	 0.371455	 -1.255476	 -0.865660
H	 0.371410	 -1.255787	 0.864952
C	 -2.146151	 -0.432825	 -0.000068
H	 -0.773936	 0.979158	 -0.866319
H	 -0.773838	 0.979034	 0.866186
C	 -3.366283	 0.483552	 0.000557
H	 -2.189286	 -1.084450	 -0.869996
H	 -2.188867	 -1.085083	 0.869399
C	 -4.687436	 -0.278003	 0.000108
H	 -3.325150	 1.134819	 -0.867957
H	 -3.325087	 1.133730	 0.869885
H	 -4.773783	 -0.912098	 -0.876078
H	 -5.531922	 0.401392	 0.000363
H	 -4.773901	 -0.912898	 0.875703
C	 3.098432	 1.502543	 1.268029
H	 3.949486	 0.841247	 1.200153
H	 3.061024	 1.962142	 2.242307
H	 3.178156	 2.259200	 0.501656

	symmetry c1
}
set optking {
	frozen_dihedral = ("
		1 2 3 6
	")
}

ee,wfn = optimize('scf', return_wfn=True)
oeprop( wfn, 'DIPOLE', 'QUADRUPOLE', 'MULLIKEN_CHARGES')
f=open( 'psi4out.xyz', 'w' )
f.write( "23  " )
f.write( str(ee) + "\n" )
f.write( MOL.save_string_xyz() )
f.close()
--------------------------------------------------------------------------

    Molecular point group: c1
  Charge       = 0
  Multiplicity = 1
  Basis Set: CC-PVTZ
  Basis Set:
  @DF-RHF Final Energy:  -423.12954413302685
    Total Energy =                       -423.1295441330269114
    Molecular point group: c1
  Basis Set: CC-PVTZ
  Basis Set:
  Basis Set: CC-PVTZ
  Basis Set:
  @DF-RHF Final Energy:  -423.12989295705768
    Total Energy =                       -423.1298929570575638
  Basis Set: CC-PVTZ
  Basis Set:
  Basis Set: CC-PVTZ
  Basis Set:
  @DF-RHF Final Energy:  -423.12969215660848
    Total Energy =                       -423.1296921566083711
  Basis Set: CC-PVTZ
  Basis Set:
  Basis Set: CC-PVTZ
  Basis Set:
  @DF-RHF Final Energy:  -423.12991731531463
    Total Energy =                       -423.1299173153141737
  Basis Set: CC-PVTZ
  Basis Set:
  Basis Set: CC-PVTZ
  Basis Set:
  @DF-RHF Final Energy:  -423.12993524627478
    Total Energy =                       -423.1299352462748402
  Basis Set: CC-PVTZ
  Basis Set:
  Charge       = 0
  Multiplicity = 1
  Basis Set: CC-PVTZ
  Basis Set:

    Orbital Energies (a.u.)
    -----------------------

    Doubly Occupied:

       1A    -20.596753     2A    -20.532508     3A    -11.363191
       4A    -11.278440     5A    -11.232277     6A    -11.226659
       7A    -11.219650     8A    -11.218160     9A    -11.210289
      10A     -1.471595    11A     -1.364311    12A     -1.098520
      13A     -1.046796    14A     -0.985176    15A     -0.935536
      16A     -0.847852    17A     -0.799039    18A     -0.775342
      19A     -0.695893    20A     -0.683506    21A     -0.675966
      22A     -0.655323    23A     -0.609532    24A     -0.594730
      25A     -0.580169    26A     -0.572138    27A     -0.544708
      28A     -0.534468    29A     -0.525174    30A     -0.506696
      31A     -0.492464    32A     -0.478520    33A     -0.471336
      34A     -0.468933    35A     -0.457836    36A     -0.429952

  @DF-RHF Final Energy:  -423.12993536290361

   => Energetics <=

    Nuclear Repulsion Energy =            455.6486601109566550
    One-Electron Energy =               -1479.1983190772539274
    Two-Electron Energy =                 600.4197236033935496
    DFT Exchange-Correlation Energy =       0.0000000000000000
    Empirical Dispersion Energy =           0.0000000000000000
    PCM Polarization Energy =               0.0000000000000000
    EFP Energy =                            0.0000000000000000
    Total Energy =                       -423.1299353629037796
    Molecular point group: c1
  Basis Set: CC-PVTZ
  Basis Set:

  -Total Gradient:
     Atom            X                  Y                   Z
    ------   -----------------  -----------------  -----------------
       1        0.000154167816    -0.000251064217     0.000165522183
       2       -0.000244961532     0.000394166270    -0.000256121578
       3        0.000191571115    -0.000350248766     0.000244875590
       4        0.000014511970     0.000022700665     0.000007672947
       5        0.000008533546    -0.000048742823     0.000031605808
       6       -0.000135753739     0.000200861731    -0.000182782060
       7        0.000006175434    -0.000016691385     0.000004416561
       8        0.000000987236     0.000015935524    -0.000034842847
       9       -0.000012803862    -0.000022435911    -0.000003955409
      10       -0.000016273411     0.000025469883     0.000009674601
      11       -0.000005991440     0.000007432905     0.000004544682
      12        0.000010195061     0.000001395476    -0.000012974214
      13        0.000022160050     0.000003873927    -0.000006312223
      14       -0.000001832131     0.000003945877     0.000014275259
      15       -0.000001034331    -0.000004173328    -0.000006438551
      16       -0.000003317511     0.000013214094     0.000004867643
      17        0.000002018850     0.000000629854    -0.000005921596
      18       -0.000001695332     0.000000750871     0.000003242926
      19       -0.000004824885    -0.000007337228     0.000006958849
      20        0.000000840089     0.000000283340     0.000017907375
      21        0.000012653147    -0.000008920265    -0.000003974150
      22        0.000009549113     0.000011288332     0.000013822515
      23       -0.000004875261     0.000007665176    -0.000016064311

  **** Optimization is complete! (in 6 steps) ****
    Final optimized geometry and variables:
    Molecular point group: c1

    Geometry (in Angstrom), charge = 0, multiplicity = 1:

    O            2.585271580558    -0.114178429267    -1.078380659888
    C            1.826107313178    -0.128875638004    -0.169694256997
    C            0.511461913336    -0.863820073990    -0.159045931460
    O            2.044672668135     0.515282893327     0.965365190308
    C           -0.690902392113     0.085458523988    -0.153558623280
    H            0.492220971465    -1.494168999368    -1.036372348464
    H            0.482891273469    -1.495616483615     0.721507602039
    C           -2.019862466209    -0.663251746036    -0.178527785086
    H           -0.629652000823     0.741209118747    -1.017287241061
    H           -0.644571490105     0.718518460634     0.725030789448
    C           -3.231330333853     0.264622695116    -0.177028262394
    H           -2.057738827718    -1.301420609462    -1.057797715192
    H           -2.074385080915    -1.325753978703     0.682026660700
    C           -4.558780465744    -0.485672370105    -0.197788395681
    H           -3.177591414665     0.925453220226    -1.037695309517
    H           -3.192269198507     0.903768074832     0.700691870230
    H           -4.642769176872    -1.108061337688    -1.082409694606
    H           -5.397285196911     0.201014935042    -0.196235749498
    H           -4.657776221353    -1.130331622705     0.669218428950
    C            3.242108775710     1.258652341713     1.069232416552
    H            4.101330386382     0.613555631183     0.960903047411
    H            3.232197290487     1.704064669268     2.050835465563
    H            3.280680996522     2.026935495489     0.311281316102

  Mulliken Charges: (a.u.)
   Center  Symbol    Alpha    Beta     Spin     Total
       1     O     4.20096  4.20096  0.00000 -0.40191
       2     C     2.80892  2.80892  0.00000  0.38215
       3     C     3.07637  3.07637  0.00000 -0.15274
       4     O     4.15008  4.15008  0.00000 -0.30015
       5     C     3.10167  3.10167  0.00000 -0.20333
       6     H     0.43766  0.43766  0.00000  0.12468
       7     H     0.44628  0.44628  0.00000  0.10745
       8     C     3.09081  3.09081  0.00000 -0.18161
       9     H     0.44750  0.44750  0.00000  0.10499
      10     H     0.44380  0.44380  0.00000  0.11240
      11     C     3.08433  3.08433  0.00000 -0.16867
      12     H     0.45270  0.45270  0.00000  0.09459
      13     H     0.45416  0.45416  0.00000  0.09168
      14     C     3.15029  3.15029  0.00000 -0.30057
      15     H     0.45325  0.45325  0.00000  0.09349
      16     H     0.45384  0.45384  0.00000  0.09231
      17     H     0.45450  0.45450  0.00000  0.09101
      18     H     0.44763  0.44763  0.00000  0.10474
      19     H     0.45493  0.45493  0.00000  0.09014
      20     C     3.03772  3.03772  0.00000 -0.07544
      21     H     0.45260  0.45260  0.00000  0.09480
      22     H     0.44561  0.44561  0.00000  0.10878
      23     H     0.45440  0.45440  0.00000  0.09121

   Total alpha = 36.00000, Total beta = 36.00000, Total charge =  0.00000

*** Psi4 exiting successfully. Buy a developer a beer!
