                              Psi4 1.0.54 Driver

  ==> Input File <==

--------------------------------------------------------------------------
set {
	reference rhf
	basis cc-pvtz
}

set_num_threads( 4 )
memory 2 gb

molecule MOL {
0 1

H	 3.579485	 0.820046	 -1.041724
N	 2.806031	 0.189691	 -1.035579
C	 1.860978	 0.530248	 0.016256
H	 3.175251	 -0.728172	 -0.899373
C	 0.644130	 -0.381765	 -0.031064
H	 1.545385	 1.556152	 -0.141318
H	 2.302273	 0.488259	 1.012976
C	 -0.678115	 0.376691	 0.025731
H	 0.693998	 -0.977147	 -0.936845
H	 0.693309	 -1.082142	 0.800523
C	 -1.900706	 -0.535531	 -0.022488
H	 -0.725296	 1.079516	 -0.802982
H	 -0.715474	 0.974884	 0.933278
C	 -3.220513	 0.226854	 0.028039
H	 -1.865036	 -1.134397	 -0.928236
H	 -1.857948	 -1.236381	 0.806820
H	 -3.309098	 0.911849	 -0.808725
H	 -4.066838	 -0.449485	 -0.008086
H	 -3.301685	 0.809374	 0.939860

	symmetry c1
}
set optking {
	frozen_dihedral = ("
		6 3 5 9
	")
}

ee,wfn = optimize('scf', return_wfn=True)
oeprop( wfn, 'DIPOLE', 'QUADRUPOLE', 'MULLIKEN_CHARGES')
f=open( 'psi4out.xyz', 'w' )
f.write( "19  " )
f.write( str(ee) + "\n" )
f.write( MOL.save_string_xyz() )
f.close()
--------------------------------------------------------------------------

    Molecular point group: c1
  Charge       = 0
  Multiplicity = 1
  Basis Set: CC-PVTZ
  Basis Set:
  @DF-RHF Final Energy:  -251.44264371899297
    Total Energy =                       -251.4426437189930539
    Molecular point group: c1
  Basis Set: CC-PVTZ
  Basis Set:
  Basis Set: CC-PVTZ
  Basis Set:
  @DF-RHF Final Energy:  -251.44289977459667
    Total Energy =                       -251.4428997745965262
  Basis Set: CC-PVTZ
  Basis Set:
  Basis Set: CC-PVTZ
  Basis Set:
  @DF-RHF Final Energy:  -251.44298204746988
    Total Energy =                       -251.4429820474696271
  Basis Set: CC-PVTZ
  Basis Set:
  Basis Set: CC-PVTZ
  Basis Set:
  @DF-RHF Final Energy:  -251.44298331926507
    Total Energy =                       -251.4429833192648402
  Basis Set: CC-PVTZ
  Basis Set:
  Charge       = 0
  Multiplicity = 1
  Basis Set: CC-PVTZ
  Basis Set:

    Orbital Energies (a.u.)
    -----------------------

    Doubly Occupied:

       1A    -15.527235     2A    -11.237894     3A    -11.210903
       4A    -11.209806     5A    -11.207480     6A    -11.204710
       7A     -1.177549     8A     -1.073080     9A     -0.997615
      10A     -0.900272    11A     -0.814342    12A     -0.789740
      13A     -0.655657    14A     -0.651817    15A     -0.614227
      16A     -0.593241    17A     -0.554461    18A     -0.549823
      19A     -0.539817    20A     -0.490674    21A     -0.482861
      22A     -0.463395    23A     -0.459201    24A     -0.453004
      25A     -0.381889

  @DF-RHF Final Energy:  -251.44298348644222

   => Energetics <=

    Nuclear Repulsion Energy =            246.1136944931385813
    One-Electron Energy =                -826.6319737944083954
    Two-Electron Energy =                 329.0752958148274274
    DFT Exchange-Correlation Energy =       0.0000000000000000
    Empirical Dispersion Energy =           0.0000000000000000
    PCM Polarization Energy =               0.0000000000000000
    EFP Energy =                            0.0000000000000000
    Total Energy =                       -251.4429834864423583
    Molecular point group: c1
  Basis Set: CC-PVTZ
  Basis Set:

  -Total Gradient:
     Atom            X                  Y                   Z
    ------   -----------------  -----------------  -----------------
       1        0.000032803793     0.000020493001    -0.000013597752
       2       -0.000038337187     0.000021731834     0.000008999789
       3        0.000760084249    -0.000864553051    -0.003251114611
       4       -0.000004066526    -0.000021284214     0.000014612721
       5       -0.001892073295     0.002643679792    -0.001048758275
       6       -0.000377174569     0.000290395754     0.002883987786
       7        0.000014137407    -0.000012570972     0.000007279275
       8        0.000017659444     0.000007147246    -0.000017407387
       9        0.001474193748    -0.002084262464     0.001401246520
      10        0.000010973478     0.000012543011     0.000001201921
      11        0.000008481221    -0.000000538855     0.000018125646
      12        0.000004028132    -0.000004470363     0.000001796380
      13        0.000006012993    -0.000005296649    -0.000007639822
      14       -0.000011863878    -0.000006542598    -0.000004566270
      15       -0.000000870634     0.000005988422     0.000005692528
      16       -0.000002086049    -0.000004366863    -0.000000086931
      17        0.000001014551     0.000001342728     0.000001014938
      18       -0.000003857488     0.000003572900    -0.000001561391
      19        0.000000940606    -0.000003008659     0.000000774935

  **** Optimization is complete! (in 5 steps) ****
    Final optimized geometry and variables:
    Molecular point group: c1

    Geometry (in Angstrom), charge = 0, multiplicity = 1:

    H            3.681136702003     0.729773869129    -0.795438670616
    N            2.887785159750     0.125574890562    -0.843475340774
    C            1.915587291308     0.462231077421     0.186160824125
    H            3.224172297703    -0.807072116460    -0.720445039046
    C            0.681253520519    -0.449943010812     0.119400846391
    H            1.615146998281     1.493735714432     0.042284118286
    H            2.338965845487     0.417289597286     1.189617522441
    C           -0.643557802181     0.303086789577     0.185378457721
    H            0.732535051645    -1.032349230979    -0.794253773871
    H            0.718522389531    -1.170236134822     0.932382119900
    C           -1.863471272036    -0.612636386453     0.166045779607
    H           -0.699401288455     0.995386960405    -0.650858029568
    H           -0.667525440055     0.911701122808     1.087027303246
    C           -3.184722604236     0.147112174425     0.220749647554
    H           -1.836642242376    -1.224467828064    -0.731462629244
    H           -1.809250444085    -1.301096814672     1.005091993462
    H           -3.284804333785     0.819143173912    -0.625077873209
    H           -4.029682064706    -0.531777166534     0.204916660458
    H           -3.256498500227     0.742989996171     1.124711237486

  Mulliken Charges: (a.u.)
   Center  Symbol    Alpha    Beta     Spin     Total
       1     H     0.43058  0.43058  0.00000  0.13884
       2     N     3.68531  3.68531  0.00000 -0.37062
       3     C     3.03110  3.03110  0.00000 -0.06221
       4     H     0.43103  0.43103  0.00000  0.13795
       5     C     3.08744  3.08744  0.00000 -0.17488
       6     H     0.45909  0.45909  0.00000  0.08182
       7     H     0.46624  0.46624  0.00000  0.06751
       8     C     3.09021  3.09021  0.00000 -0.18042
       9     H     0.45218  0.45218  0.00000  0.09565
      10     H     0.45580  0.45580  0.00000  0.08839
      11     C     3.08478  3.08478  0.00000 -0.16957
      12     H     0.45180  0.45180  0.00000  0.09640
      13     H     0.45562  0.45562  0.00000  0.08877
      14     C     3.15006  3.15006  0.00000 -0.30012
      15     H     0.45385  0.45385  0.00000  0.09231
      16     H     0.45545  0.45545  0.00000  0.08910
      17     H     0.45483  0.45483  0.00000  0.09035
      18     H     0.44884  0.44884  0.00000  0.10231
      19     H     0.45579  0.45579  0.00000  0.08842

   Total alpha = 25.00000, Total beta = 25.00000, Total charge = -0.00000

*** Psi4 exiting successfully. Buy a developer a beer!
