  ==> Input File <==

--------------------------------------------------------------------------
set {
	reference rhf
	basis cc-pvtz
}

set_num_threads( 4 )
memory 2 gb

molecule MOL {
0 1

H	 -1.835082	 1.385983	 0.000069
C	 -1.300516	 0.441153	 -0.000028
O	 -0.006604	 0.654344	 -0.000106
O	 -1.828920	 -0.612308	 0.000113
C	 0.544458	 1.384198	 -1.092565
C	 2.033478	 1.497220	 -0.867291
H	 0.072671	 2.355482	 -1.137102
H	 0.318288	 0.861746	 -2.011180
H	 2.244968	 2.018806	 0.057474
H	 2.484493	 2.048933	 -1.683412
H	 2.491821	 0.517555	 -0.820971

	symmetry c1
}
set optking {
	frozen_dihedral = ("
		5 3 2 4
	")
}

ee = optimize('scf')
oeprop('DIPOLE', 'QUADRUPOLE', 'MULLIKEN_CHARGES')
f=open( 'psi4out.xyz', 'w' )
f.write( "11  " )
f.write( str(ee) + "\n" )
f.write( MOL.save_string_xyz() )
f.close()
--------------------------------------------------------------------------

    Molecular point group: c1
  Charge       = 0
  Multiplicity = 1
  Basis Set: CC-PVTZ
  Basis Set:
  @DF-RHF Final Energy:  -266.91465199998413
    Total Energy =                       -266.9146519999841303
    Molecular point group: c1
  Basis Set: CC-PVTZ
  Basis Set:
  Basis Set: CC-PVTZ
  Basis Set:
  @DF-RHF Final Energy:  -266.91569399578259
    Total Energy =                       -266.9156939957825330
  Basis Set: CC-PVTZ
  Basis Set:
  Basis Set: CC-PVTZ
  Basis Set:
  @DF-RHF Final Energy:  -266.91427995438380
    Total Energy =                       -266.9142799543838009
  Basis Set: CC-PVTZ
  Basis Set:
  Basis Set: CC-PVTZ
  Basis Set:
  @DF-RHF Final Energy:  -266.91599443310963
    Total Energy =                       -266.9159944331094607
  Basis Set: CC-PVTZ
  Basis Set:
  Basis Set: CC-PVTZ
  Basis Set:
  @DF-RHF Final Energy:  -266.91601187552573
    Total Energy =                       -266.9160118755257827
  Basis Set: CC-PVTZ
  Basis Set:
  Basis Set: CC-PVTZ
  Basis Set:
  @DF-RHF Final Energy:  -266.91602244957642
    Total Energy =                       -266.9160224495763032
  Basis Set: CC-PVTZ
  Basis Set:
  Charge       = 0
  Multiplicity = 1
  Basis Set: CC-PVTZ
  Basis Set:

    Orbital Energies (a.u.)
    -----------------------

    Doubly Occupied:

       1A    -20.592535     2A    -20.556376     3A    -11.373448
       4A    -11.302853     5A    -11.229622     6A     -1.472420
       7A     -1.384872     8A     -1.052321     9A     -0.887613
      10A     -0.839542    11A     -0.743720    12A     -0.693980
      13A     -0.658000    14A     -0.633342    15A     -0.567880
      16A     -0.547201    17A     -0.539153    18A     -0.510498
      19A     -0.467615    20A     -0.456568

  @DF-RHF Final Energy:  -266.91602303806224

   => Energetics <=

    Nuclear Repulsion Energy =            176.9390017287338139
    One-Electron Energy =                -714.6909309590536168
    Two-Electron Energy =                 270.8359061922575393
    DFT Exchange-Correlation Energy =       0.0000000000000000
    Empirical Dispersion Energy =           0.0000000000000000
    PCM Polarization Energy =               0.0000000000000000
    EFP Energy =                            0.0000000000000000
    Total Energy =                       -266.9160230380622352
    Molecular point group: c1
  Basis Set: CC-PVTZ
  Basis Set:

  -Total Gradient:
     Atom            X                  Y                   Z
    ------   -----------------  -----------------  -----------------
       1       -0.000005555580    -0.000013649776    -0.000010821531
       2        0.000487118003    -0.002410792575     0.007122910669
       3       -0.000346083486     0.005376392740     0.000878838049
       4       -0.000294531535     0.000508784519    -0.005542964760
       5        0.000145589874    -0.003476723833    -0.002421958449
       6        0.000006857666     0.000003095152    -0.000014691082
       7        0.000000374007     0.000015804509    -0.000006928472
       8        0.000008418307    -0.000000709170     0.000001718389
       9       -0.000007887371    -0.000002460896    -0.000005416829
      10        0.000004990481    -0.000000268872    -0.000002561982
      11        0.000000709635     0.000000528202     0.000001876000

  **** Optimization is complete! (in 7 steps) ****
    Final optimized geometry and variables:
    Molecular point group: c1

    Geometry (in Angstrom), charge = 0, multiplicity = 1:

    H           -1.686737656272     0.766002114036     0.519643795557
    C           -1.188808444067    -0.200049459994     0.423722284308
    O            0.137591136067    -0.105049384203     0.369777551968
    O           -1.775743266396    -1.211462933860     0.363453135782
    C            0.672174729156     0.665832201977    -0.693328391901
    C            2.151591985646     0.850070122603    -0.453053408530
    H            0.166320645573     1.626380224985    -0.738334105050
    H            0.491653758884     0.143857408428    -1.625390175488
    H            2.324373054359     1.378206197130     0.475736071619
    H            2.587853710027     1.421713394111    -1.263501110147
    H            2.648031538819    -0.109788113163    -0.400474528365

  Mulliken Charges: (a.u.)
   Center  Symbol    Alpha    Beta     Spin     Total
       1     H     0.47254  0.47254  0.00000  0.05492
       2     C     2.84022  2.84022  0.00000  0.31955
       3     O     4.14543  4.14543  0.00000 -0.29087
       4     O     4.16450  4.16450  0.00000 -0.32900
       5     C     2.97199  2.97199  0.00000  0.05601
       6     C     3.13314  3.13314  0.00000 -0.26627
       7     H     0.46554  0.46554  0.00000  0.06892
       8     H     0.45645  0.45645  0.00000  0.08711
       9     H     0.44942  0.44942  0.00000  0.10117
      10     H     0.45563  0.45563  0.00000  0.08874
      11     H     0.44514  0.44514  0.00000  0.10972

   Total alpha = 20.00000, Total beta = 20.00000, Total charge = -0.00000
