  ==> Input File <==

--------------------------------------------------------------------------
set {
	reference rhf
	basis 6-31G*
}

set_num_threads( 1 )
memory 2 gb

molecule MOL {
0 1

O	 2.862325	 1.357334	 0.000267
C	 2.843464	 0.164689	 -0.000222
C	 1.546494	 -0.624492	 -0.000609
C	 4.124123	 -0.644674	 -0.000428
C	 0.291004	 0.242674	 0.000989
H	 1.557904	 -1.283758	 -0.867573
H	 1.558622	 -1.285963	 0.864672
C	 -0.994322	 -0.586602	 0.000262
H	 0.309117	 0.896430	 -0.865270
H	 0.309661	 0.894078	 0.869017
C	 -2.259874	 0.272531	 0.000494
H	 -1.004862	 -1.240012	 -0.870939
H	 -1.005220	 -1.241071	 0.870675
C	 -3.084324	 0.136252	 -1.280804
H	 -1.985582	 1.316483	 0.141728
H	 -2.877426	 0.002518	 0.855315
C	 -4.346743	 0.997602	 -1.273141
H	 -2.468426	 0.407042	 -2.135887
H	 -3.360390	 -0.906644	 -1.422270
H	 -4.102058	 2.050711	 -1.167116
H	 -4.909314	 0.880018	 -2.194221
H	 -5.000898	 0.726953	 -0.449142
H	 4.165367	 -1.288615	 -0.874074
H	 4.976217	 0.020734	 -0.001915
H	 4.166763	 -1.286207	 0.874930

	symmetry c1
}
set optking {
	frozen_dihedral = ("
		9 5 8 12,
		15 11 14 18,
		1 2 3 6,
		9 5 3 6
	")
}

ee = energy('scf')
oeprop('DIPOLE', 'QUADRUPOLE', 'MULLIKEN_CHARGES')
f=open( 'psi4out.xyz', 'w' )
f.write( "25  " )
f.write( str(ee) + "\n" )
f.write( MOL.save_string_xyz() )
f.close()
--------------------------------------------------------------------------

    Molecular point group: c1

    Geometry (in Angstrom), charge = 0, multiplicity = 1:

       Center              X                  Y                   Z               Mass
    ------------   -----------------  -----------------  -----------------  -----------------
           O          2.757155637592     1.202335434936     0.289520322724    15.994914619560
           C          2.738294637592     0.009690434936     0.289031322724    12.000000000000
           C          1.441324637592    -0.779490565064     0.288644322724    12.000000000000
           C          4.018953637592    -0.799672565064     0.288825322724    12.000000000000
           C          0.185834637592     0.087675434936     0.290242322724    12.000000000000
           H          1.452734637592    -1.438756565064    -0.578319677276     1.007825032070
           H          1.453452637592    -1.440961565064     1.153925322724     1.007825032070
           C         -1.099491362408    -0.741600565064     0.289515322724    12.000000000000
           H          0.203947637592     0.741431434936    -0.576016677276     1.007825032070
           H          0.204491637592     0.739079434936     1.158270322724     1.007825032070
           C         -2.365043362408     0.117532434936     0.289747322724    12.000000000000
           H         -1.110031362408    -1.395010565064    -0.581685677276     1.007825032070
           H         -1.110389362408    -1.396069565064     1.159928322724     1.007825032070
           C         -3.189493362408    -0.018746565064    -0.991550677276    12.000000000000
           H         -2.090751362408     1.161484434936     0.430981322724     1.007825032070
           H         -2.982595362408    -0.152480565064     1.144568322724     1.007825032070
           C         -4.451912362408     0.842603434936    -0.983887677276    12.000000000000
           H         -2.573595362408     0.252043434936    -1.846633677276     1.007825032070
           H         -3.465559362408    -1.061642565064    -1.133016677276     1.007825032070
           H         -4.207227362408     1.895712434936    -0.877862677276     1.007825032070
           H         -5.014483362408     0.725019434936    -1.904967677276     1.007825032070
           H         -5.106067362408     0.571954434936    -0.159888677276     1.007825032070
           H          4.060197637592    -1.443613565064    -0.584820677276     1.007825032070
           H          4.871047637592    -0.134264565064     0.287338322724     1.007825032070
           H          4.061593637592    -1.441205565064     1.164183322724     1.007825032070

  Charge       = 0
  Multiplicity = 1
  Basis Set: 6-31G*
  Basis Set:

    Orbital Energies (a.u.)
    -----------------------

    Doubly Occupied:

       1A    -20.550411     2A    -11.326244     3A    -11.231448
       4A    -11.228284     5A    -11.217188     6A    -11.215343
       7A    -11.215132     8A    -11.211856     9A    -11.207481
      10A     -1.395733    11A     -1.093861    12A     -1.055649
      13A     -1.013989    14A     -0.969015    15A     -0.889797
      16A     -0.818685    17A     -0.788023    18A     -0.730304
      19A     -0.653761    20A     -0.652057    21A     -0.635221
      22A     -0.619749    23A     -0.602467    24A     -0.581516
      25A     -0.565372    26A     -0.564649    27A     -0.540965
      28A     -0.527884    29A     -0.507388    30A     -0.489968
      31A     -0.485722    32A     -0.480692    33A     -0.465369
      34A     -0.453573    35A     -0.447832    36A     -0.399370

  @DF-RHF Final Energy:  -387.13101299051539

   => Energetics <=

    Nuclear Repulsion Energy =            441.1254781068020066
    One-Electron Energy =               -1398.8486335757279448
    Two-Electron Energy =                 570.5921424784110059
    DFT Exchange-Correlation Energy =       0.0000000000000000
    Empirical Dispersion Energy =           0.0000000000000000
    PCM Polarization Energy =               0.0000000000000000
    EFP Energy =                            0.0000000000000000
    Total Energy =                       -387.1310129905149324

  Mulliken Charges: (a.u.)
   Center  Symbol    Alpha    Beta     Spin     Total
       1     O     4.26131  4.26131  0.00000 -0.52262
       2     C     2.73571  2.73571  0.00000  0.52858
       3     C     3.21126  3.21126  0.00000 -0.42251
       4     C     3.28668  3.28668  0.00000 -0.57336
       5     C     3.15065  3.15065  0.00000 -0.30129
       6     H     0.40993  0.40993  0.00000  0.18014
       7     H     0.41001  0.41001  0.00000  0.17999
       8     C     3.15660  3.15660  0.00000 -0.31321
       9     H     0.41209  0.41209  0.00000  0.17582
      10     H     0.41149  0.41149  0.00000  0.17703
      11     C     3.15408  3.15408  0.00000 -0.30817
      12     H     0.42217  0.42217  0.00000  0.15567
      13     H     0.42245  0.42245  0.00000  0.15511
      14     C     3.15373  3.15373  0.00000 -0.30747
      15     H     0.41824  0.41824  0.00000  0.16352
      16     H     0.42143  0.42143  0.00000  0.15714
      17     C     3.24003  3.24003  0.00000 -0.48006
      18     H     0.42278  0.42278  0.00000  0.15445
      19     H     0.42313  0.42313  0.00000  0.15373
      20     H     0.42076  0.42076  0.00000  0.15849
      21     H     0.41963  0.41963  0.00000  0.16073
      22     H     0.42190  0.42190  0.00000  0.15620
      23     H     0.40875  0.40875  0.00000  0.18250
      24     H     0.39651  0.39651  0.00000  0.20699
      25     H     0.40870  0.40870  0.00000  0.18260

   Total alpha = 36.00000, Total beta = 36.00000, Total charge = -0.00000
