  ==> Input File <==

--------------------------------------------------------------------------
set {
	reference rhf
	basis cc-pvtz
}

set_num_threads( 4 )
memory 2 gb

molecule MOL {
0 1

H	 0.819888	 -1.861828	 -0.884347
C	 0.120014	 -1.051952	 -1.098182
N	 -0.537714	 -0.645117	 0.000000
O	 -0.011942	 -0.610928	 -2.195818
C	 -1.522613	 0.412524	 0.000000
H	 -0.327542	 -1.103165	 0.852058
H	 -2.150256	 0.356137	 -0.880771
H	 -1.005621	 1.357208	 0.000000
H	 -2.150256	 0.356137	 0.880771

	symmetry c1
}
set optking {
	frozen_dihedral = ("
		6 3 5 7
	")
}

ee = optimize('scf')
oeprop('DIPOLE', 'QUADRUPOLE', 'MULLIKEN_CHARGES')
f=open( 'psi4out.xyz', 'w' )
f.write( "9  " )
f.write( str(ee) + "\n" )
f.write( MOL.save_string_xyz() )
f.close()
--------------------------------------------------------------------------

    Molecular point group: c1
  Charge       = 0
  Multiplicity = 1
  Basis Set: CC-PVTZ
  Basis Set:
  @DF-RHF Final Energy:  -208.04291739856933
    Total Energy =                       -208.0429173985693865
    Molecular point group: c1
  Basis Set: CC-PVTZ
  Basis Set:
  Basis Set: CC-PVTZ
  Basis Set:
  @DF-RHF Final Energy:  -208.04354103992350
    Total Energy =                       -208.0435410399234684
  Basis Set: CC-PVTZ
  Basis Set:
  Basis Set: CC-PVTZ
  Basis Set:
  @DF-RHF Final Energy:  -208.04363889678734
    Total Energy =                       -208.0436388967874279
  Basis Set: CC-PVTZ
  Basis Set:
  Basis Set: CC-PVTZ
  Basis Set:
  @DF-RHF Final Energy:  -208.04355343048167
    Total Energy =                       -208.0435534304816940
  Basis Set: CC-PVTZ
  Basis Set:
  Basis Set: CC-PVTZ
  Basis Set:
  @DF-RHF Final Energy:  -208.04366326199556
    Total Energy =                       -208.0436632619956754
  Basis Set: CC-PVTZ
  Basis Set:
  Basis Set: CC-PVTZ
  Basis Set:
  @DF-RHF Final Energy:  -208.04367446938448
    Total Energy =                       -208.0436744693844844
  Basis Set: CC-PVTZ
  Basis Set:
  Basis Set: CC-PVTZ
  Basis Set:
  @DF-RHF Final Energy:  -208.04368081218513
    Total Energy =                       -208.0436808121851584
  Basis Set: CC-PVTZ
  Basis Set:
  Charge       = 0
  Multiplicity = 1
  Basis Set: CC-PVTZ
  Basis Set:

    Orbital Energies (a.u.)
    -----------------------

    Doubly Occupied:

       1A    -20.516777     2A    -15.584454     3A    -11.336266
       4A    -11.260308     5A     -1.394086     6A     -1.239420
       7A     -0.969782     8A     -0.809006     9A     -0.749019
      10A     -0.645988    11A     -0.629944    12A     -0.596182
      13A     -0.558900    14A     -0.537707    15A     -0.428468
      16A     -0.396769

  @DF-RHF Final Energy:  -208.04368087575864

   => Energetics <=

    Nuclear Repulsion Energy =            122.9035930806221018
    One-Electron Energy =                -526.5883977535459053
    Two-Electron Energy =                 195.6411237971651644
    DFT Exchange-Correlation Energy =       0.0000000000000000
    Empirical Dispersion Energy =           0.0000000000000000
    PCM Polarization Energy =               0.0000000000000000
    EFP Energy =                            0.0000000000000000
    Total Energy =                       -208.0436808757586391
    Molecular point group: c1
  Basis Set: CC-PVTZ
  Basis Set:

  -Total Gradient:
     Atom            X                  Y                   Z
    ------   -----------------  -----------------  -----------------
       1        0.000003899844    -0.000004394559    -0.000007447060
       2        0.000011503164    -0.000026992325     0.000057856673
       3        0.000041854813     0.000008520038    -0.000028353372
       4       -0.000016827306     0.000019829173    -0.000010910417
       5       -0.000017568633     0.000019287470    -0.000008468030
       6       -0.000011780793    -0.000015014032    -0.000009500271
       7       -0.000010409526    -0.000005329486     0.000007980879
       8        0.000000863486    -0.000002550523    -0.000000103543
       9       -0.000001535050     0.000006644244    -0.000001054858

  **** Optimization is complete! (in 8 steps) ****
    Final optimized geometry and variables:
    Molecular point group: c1

    Geometry (in Angstrom), charge = 0, multiplicity = 1:

    H            1.314141967995    -1.409957212845    -0.085338688334
    C            0.619730812635    -0.590020751977    -0.278175008893
    N           -0.070902914809    -0.225586869103     0.813407466978
    O            0.504136626916    -0.099406063357    -1.356491470079
    C           -1.014259615160     0.870231842826     0.801872302711
    H            0.158005453559    -0.658162784137     1.673206708471
    H           -1.666036924360     0.785662605287    -0.054425551715
    H           -0.514329034930     1.830026959763     0.755396119688
    H           -1.610058778498     0.828034315850     1.702323206976

  Mulliken Charges: (a.u.)
   Center  Symbol    Alpha    Beta     Spin     Total
       1     H     0.46419  0.46419  0.00000  0.07162
       2     C     2.87989  2.87989  0.00000  0.24022
       3     N     3.60584  3.60584  0.00000 -0.21168
       4     O     4.21413  4.21413  0.00000 -0.42825
       5     C     3.07605  3.07605  0.00000 -0.15210
       6     H     0.41031  0.41031  0.00000  0.17938
       7     H     0.44203  0.44203  0.00000  0.11593
       8     H     0.45331  0.45331  0.00000  0.09338
       9     H     0.45426  0.45426  0.00000  0.09149

   Total alpha = 16.00000, Total beta = 16.00000, Total charge = -0.00000
