  ==> Input File <==

--------------------------------------------------------------------------
set {
	reference rhf
	basis 6-31G*
}

set_num_threads( 1 )
memory 2 gb

molecule MOL {
0 1

H	 -1.848165	 -1.578732	 0.117484
O	 -2.310168	 -0.871793	 -0.309793
C	 -2.026376	 0.340750	 0.341611
C	 -0.673256	 0.843270	 -0.132153
H	 -2.792215	 1.080697	 0.115987
H	 -2.013526	 0.200402	 1.421792
C	 0.486613	 -0.083066	 0.235839
H	 -0.715586	 0.970948	 -1.210718
H	 -0.508072	 1.829858	 0.297090
C	 1.840406	 0.433480	 -0.254303
H	 0.300215	 -1.068318	 -0.178947
H	 0.519509	 -0.203625	 1.318070
C	 3.000220	 -0.489290	 0.118523
H	 1.809207	 0.553576	 -1.335192
H	 2.021860	 1.424500	 0.157276
H	 2.864959	 -1.479103	 -0.307933
H	 3.946603	 -0.099227	 -0.243630
H	 3.080049	 -0.602997	 1.196117

	symmetry c1
}
set optking {
	frozen_dihedral = ("
		14 10 7 11,
		10 7 4 8,
		2 3 4 8
	")
}

ee = energy('scf')
oeprop('DIPOLE', 'QUADRUPOLE', 'MULLIKEN_CHARGES')
f=open( 'psi4out.xyz', 'w' )
f.write( "18  " )
f.write( str(ee) + "\n" )
f.write( MOL.save_string_xyz() )
f.close()
--------------------------------------------------------------------------

    Molecular point group: c1

    Geometry (in Angstrom), charge = 0, multiplicity = 1:

       Center              X                  Y                   Z               Mass
    ------------   -----------------  -----------------  -----------------  -----------------
           H         -1.862892575279    -1.574571385145     0.116155445039     1.007825032070
           O         -2.324895575279    -0.867632385145    -0.311121554961    15.994914619560
           C         -2.041103575279     0.344910614855     0.340282445039    12.000000000000
           C         -0.687983575279     0.847430614855    -0.133481554961    12.000000000000
           H         -2.806942575279     1.084857614855     0.114658445039     1.007825032070
           H         -2.028253575279     0.204562614855     1.420463445039     1.007825032070
           C          0.471885424721    -0.078905385145     0.234510445039    12.000000000000
           H         -0.730313575279     0.975108614855    -1.212046554961     1.007825032070
           H         -0.522799575279     1.834018614855     0.295761445039     1.007825032070
           C          1.825678424721     0.437640614855    -0.255631554961    12.000000000000
           H          0.285487424721    -1.064157385145    -0.180275554961     1.007825032070
           H          0.504781424721    -0.199464385145     1.316741445039     1.007825032070
           C          2.985492424721    -0.485129385145     0.117194445039    12.000000000000
           H          1.794479424721     0.557736614855    -1.336520554961     1.007825032070
           H          2.007132424721     1.428660614855     0.155947445039     1.007825032070
           H          2.850231424721    -1.474942385145    -0.309261554961     1.007825032070
           H          3.931875424721    -0.095066385145    -0.244958554961     1.007825032070
           H          3.065321424721    -0.598836385145     1.194788445039     1.007825032070

  Charge       = 0
  Multiplicity = 1
  Basis Set: 6-31G*
  Basis Set:

    Orbital Energies (a.u.)
    -----------------------

    Doubly Occupied:

       1A    -20.551862     2A    -11.268674     3A    -11.218913
       4A    -11.218300     5A    -11.212176     6A    -11.211013
       7A     -1.360075     8A     -1.081417     9A     -1.011825
      10A     -0.921044    11A     -0.826751    12A     -0.791363
      13A     -0.697252    14A     -0.647458    15A     -0.622906
      16A     -0.597746    17A     -0.575471    18A     -0.565739
      19A     -0.523145    20A     -0.509997    21A     -0.487888
      22A     -0.475741    23A     -0.468408    24A     -0.456887
      25A     -0.423685

  @DF-RHF Final Energy:  -271.17748229110487

   => Energetics <=

    Nuclear Repulsion Energy =            250.0423141693044329
    One-Electron Energy =                -862.9881162135131945
    Two-Electron Energy =                 341.7683197531038104
    DFT Exchange-Correlation Energy =       0.0000000000000000
    Empirical Dispersion Energy =           0.0000000000000000
    PCM Polarization Energy =               0.0000000000000000
    EFP Energy =                            0.0000000000000000
    Total Energy =                       -271.1774822911049796

  Mulliken Charges: (a.u.)
   Center  Symbol    Alpha    Beta     Spin     Total
       1     H     0.27823  0.27823  0.00000  0.44355
       2     O     4.37041  4.37041  0.00000 -0.74082
       3     C     3.00190  3.00190  0.00000 -0.00380
       4     C     3.15630  3.15630  0.00000 -0.31260
       5     H     0.41419  0.41419  0.00000  0.17163
       6     H     0.43142  0.43142  0.00000  0.13716
       7     C     3.16039  3.16039  0.00000 -0.32077
       8     H     0.41471  0.41471  0.00000  0.17057
       9     H     0.42689  0.42689  0.00000  0.14622
      10     C     3.15044  3.15044  0.00000 -0.30089
      11     H     0.42454  0.42454  0.00000  0.15091
      12     H     0.42605  0.42605  0.00000  0.14790
      13     C     3.23963  3.23963  0.00000 -0.47926
      14     H     0.42042  0.42042  0.00000  0.15917
      15     H     0.42219  0.42219  0.00000  0.15562
      16     H     0.42157  0.42157  0.00000  0.15686
      17     H     0.41850  0.41850  0.00000  0.16299
      18     H     0.42222  0.42222  0.00000  0.15555

   Total alpha = 25.00000, Total beta = 25.00000, Total charge = -0.00000
