  ==> Input File <==

--------------------------------------------------------------------------
set {
	reference rhf
	basis 6-31G*
}

set_num_threads( 4 )
memory 2 gb

molecule MOL {
0 1

H	 -0.459001	 2.197147	 0.853665
C	 0.322889	 1.462562	 1.051958
N	 0.538815	 0.649616	 0.000000
O	 0.898398	 1.418538	 2.098887
C	 1.521968	 -0.411503	 0.000000
H	 -0.010655	 0.792836	 -0.815999
H	 2.150599	 -0.357004	 -0.881901
H	 0.999455	 -1.354525	 0.000000
H	 2.150599	 -0.357004	 0.881901

	symmetry c1
}
set optking {
	frozen_dihedral = ("
		6 3 5 7
	")
}

ee = optimize('scf')
oeprop('DIPOLE', 'QUADRUPOLE', 'MULLIKEN_CHARGES')
f=open( 'psi4out.xyz', 'w' )
f.write( "9  " )
f.write( str(ee) + "\n" )
f.write( MOL.save_string_xyz() )
f.close()
--------------------------------------------------------------------------

    Molecular point group: c1
  Charge       = 0
  Multiplicity = 1
  Basis Set: 6-31G*
  Basis Set:
  @DF-RHF Final Energy:  -207.96031715871845
    Total Energy =                       -207.9603171587184534
    Molecular point group: c1
  Basis Set: 6-31G*
  Basis Set:
  Basis Set: 6-31G*
  Basis Set:
  @DF-RHF Final Energy:  -207.96086513595179
    Total Energy =                       -207.9608651359518205
  Basis Set: 6-31G*
  Basis Set:
  Basis Set: 6-31G*
  Basis Set:
  @DF-RHF Final Energy:  -207.96094651978513
    Total Energy =                       -207.9609465197850113
  Basis Set: 6-31G*
  Basis Set:
  Basis Set: 6-31G*
  Basis Set:
  @DF-RHF Final Energy:  -207.96088363839726
    Total Energy =                       -207.9608836383974051
  Basis Set: 6-31G*
  Basis Set:
  Basis Set: 6-31G*
  Basis Set:
  @DF-RHF Final Energy:  -207.96097321188145
    Total Energy =                       -207.9609732118815373
  Basis Set: 6-31G*
  Basis Set:
  Basis Set: 6-31G*
  Basis Set:
  @DF-RHF Final Energy:  -207.96098059815540
    Total Energy =                       -207.9609805981554587
  Basis Set: 6-31G*
  Basis Set:
  Basis Set: 6-31G*
  Basis Set:
  @DF-RHF Final Energy:  -207.96099806955829
    Total Energy =                       -207.9609980695581726
  Basis Set: 6-31G*
  Basis Set:
  Charge       = 0
  Multiplicity = 1
  Basis Set: 6-31G*
  Basis Set:

    Orbital Energies (a.u.)
    -----------------------

    Doubly Occupied:

       1A    -20.525575     2A    -15.591085     3A    -11.344233
       4A    -11.260285     5A     -1.389062     6A     -1.236580
       7A     -0.968592     8A     -0.807274     9A     -0.746454
      10A     -0.641684    11A     -0.626327    12A     -0.593337
      13A     -0.554367    14A     -0.537066    15A     -0.423841
      16A     -0.390621

  @DF-RHF Final Energy:  -207.96099820709486

   => Energetics <=

    Nuclear Repulsion Energy =            122.4838891191160855
    One-Electron Energy =                -525.6170082372063916
    Two-Electron Energy =                 195.1721209109954884
    DFT Exchange-Correlation Energy =       0.0000000000000000
    Empirical Dispersion Energy =           0.0000000000000000
    PCM Polarization Energy =               0.0000000000000000
    EFP Energy =                            0.0000000000000000
    Total Energy =                       -207.9609982070948035
    Molecular point group: c1
  Basis Set: 6-31G*
  Basis Set:

  -Total Gradient:
     Atom            X                  Y                   Z
    ------   -----------------  -----------------  -----------------
       1       -0.000009118342     0.000012685148     0.000009550722
       2       -0.000023282732     0.000009930839    -0.000044212435
       3        0.000179103647     0.000140617155    -0.000050827942
       4        0.000012970368    -0.000014031766     0.000001005171
       5       -0.000141757615    -0.000130577744    -0.000035824835
       6       -0.000119872821    -0.000077031883     0.000062837411
       7        0.000083815637     0.000079477467     0.000060313908
       8        0.000006214969    -0.000009759818    -0.000004191800
       9        0.000011926889    -0.000011309400     0.000001349794

  **** Optimization is complete! (in 8 steps) ****
    Final optimized geometry and variables:
    Molecular point group: c1

    Geometry (in Angstrom), charge = 0, multiplicity = 1:

    H           -1.273824661696     1.442688573900     0.076268550928
    C           -0.505608647449     0.693231942208     0.272602517493
    N           -0.250863791959    -0.074632577209    -0.804486673409
    O            0.033758430333     0.603232436809     1.335689503939
    C            0.691917293278    -1.171732602102    -0.788695221189
    H           -0.814557152397     0.059679636873    -1.612274418011
    H            1.291402441253    -1.159475022539    -1.690932299419
    H            0.189073357959    -2.130470814376    -0.713842038614
    H            1.339379494533    -1.051762349446     0.065265525986

  Mulliken Charges: (a.u.)
   Center  Symbol    Alpha    Beta     Spin     Total
       1     H     0.42744  0.42744  0.00000  0.14512
       2     C     2.74507  2.74507  0.00000  0.50986
       3     N     3.87467  3.87467  0.00000 -0.74934
       4     O     4.28421  4.28421  0.00000 -0.56842
       5     C     3.14371  3.14371  0.00000 -0.28743
       6     H     0.30960  0.30960  0.00000  0.38081
       7     H     0.41411  0.41411  0.00000  0.17178
       8     H     0.41370  0.41370  0.00000  0.17260
       9     H     0.38749  0.38749  0.00000  0.22502

   Total alpha = 16.00000, Total beta = 16.00000, Total charge =  0.00000
