  ==> Input File <==

--------------------------------------------------------------------------
set {
	reference rhf
	basis 6-31G*
}

set_num_threads( 4 )
memory 2 gb

molecule MOL {
0 1

H	 -1.796467	 1.990099	 -0.917274
C	 -1.184270	 2.286340	 -0.074183
C	 0.146557	 1.543609	 -0.077235
H	 -1.745441	 2.074202	 0.827686
H	 -1.018850	 3.357190	 -0.130676
C	 -0.000005	 0.033229	 -0.000001
H	 0.768564	 1.862825	 0.756793
H	 0.718052	 1.779503	 -0.972859
C	 1.290528	 -0.768786	 0.000276
O	 -1.068816	 -0.493588	 0.057374
C	 2.545731	 0.095645	 -0.000061
H	 1.275672	 -1.427874	 -0.865626
H	 1.275566	 -1.427086	 0.866768
H	 2.577157	 0.734767	 -0.874036
H	 3.433520	 -0.528139	 0.000137
H	 2.577172	 0.735117	 0.873581

	symmetry c1
}
set optking {
	frozen_dihedral = ("
		3 6 9 12
	")
}

ee = optimize('scf')
oeprop('DIPOLE', 'QUADRUPOLE', 'MULLIKEN_CHARGES')
f=open( 'psi4out.xyz', 'w' )
f.write( "16  " )
f.write( str(ee) + "\n" )
f.write( MOL.save_string_xyz() )
f.close()
--------------------------------------------------------------------------

    Molecular point group: c1
  Charge       = 0
  Multiplicity = 1
  Basis Set: 6-31G*
  Basis Set:
  @DF-RHF Final Energy:  -270.02547170631613
    Total Energy =                       -270.0254717063161252
    Molecular point group: c1
  Basis Set: 6-31G*
  Basis Set:
  Basis Set: 6-31G*
  Basis Set:
  @DF-RHF Final Energy:  -270.02698445032740
    Total Energy =                       -270.0269844503272338
  Basis Set: 6-31G*
  Basis Set:
  Basis Set: 6-31G*
  Basis Set:
  @DF-RHF Final Energy:  -270.02852416331689
    Total Energy =                       -270.0285241633169449
  Basis Set: 6-31G*
  Basis Set:
  Basis Set: 6-31G*
  Basis Set:
  @DF-RHF Final Energy:  -270.02867825126464
    Total Energy =                       -270.0286782512646369
  Basis Set: 6-31G*
  Basis Set:
  Basis Set: 6-31G*
  Basis Set:
  @DF-RHF Final Energy:  -270.02858119537194
    Total Energy =                       -270.0285811953720554
  Basis Set: 6-31G*
  Basis Set:
  Basis Set: 6-31G*
  Basis Set:
  @DF-RHF Final Energy:  -270.02876013532727
    Total Energy =                       -270.0287601353273885
  Basis Set: 6-31G*
  Basis Set:
  Charge       = 0
  Multiplicity = 1
  Basis Set: 6-31G*
  Basis Set:

    Orbital Energies (a.u.)
    -----------------------

    Doubly Occupied:

       1A    -20.545861     2A    -11.324237     3A    -11.233712
       4A    -11.233575     5A    -11.227568     6A    -11.212567
       7A     -1.393282     8A     -1.071494     9A     -1.035127
      10A     -0.906647    11A     -0.867422    12A     -0.721580
      13A     -0.653399    14A     -0.648660    15A     -0.628985
      16A     -0.609172    17A     -0.552099    18A     -0.541227
      19A     -0.536535    20A     -0.510453    21A     -0.506428
      22A     -0.503415    23A     -0.469916    24A     -0.395996

  @DF-RHF Final Energy:  -270.02876082579877

   => Energetics <=

    Nuclear Repulsion Energy =            240.3656134911618665
    One-Electron Energy =                -842.1300328558963884
    Two-Electron Energy =                 331.7356585389358656
    DFT Exchange-Correlation Energy =       0.0000000000000000
    Empirical Dispersion Energy =           0.0000000000000000
    PCM Polarization Energy =               0.0000000000000000
    EFP Energy =                            0.0000000000000000
    Total Energy =                       -270.0287608257986562
    Molecular point group: c1
  Basis Set: 6-31G*
  Basis Set:

  -Total Gradient:
     Atom            X                  Y                   Z
    ------   -----------------  -----------------  -----------------
       1       -0.000008510415    -0.000001068684    -0.000013272123
       2       -0.000009789288    -0.000013078181     0.000062651942
       3        0.000008529249     0.000000536454     0.000145143148
       4       -0.000005092856     0.000003025278    -0.000007168224
       5        0.000005748770    -0.000008060740    -0.000001858751
       6       -0.000035614082    -0.000090023090    -0.000358685621
       7        0.000022619844    -0.000042440179     0.000032748255
       8       -0.000019370450     0.000023421828     0.000023244996
       9        0.000210170425     0.000330930820    -0.000086089312
      10       -0.000023183938     0.000037638563     0.000006546385
      11        0.000016029170    -0.000005377100    -0.000003297736
      12       -0.000181045011    -0.000250132841     0.000190504871
      13       -0.000004369371     0.000006739600    -0.000010875297
      14        0.000024586592    -0.000021796282     0.000010600153
      15        0.000008745508     0.000001448199     0.000006141056
      16       -0.000009454147     0.000028236357     0.000003666259

  **** Optimization is complete! (in 7 steps) ****
    Final optimized geometry and variables:
    Molecular point group: c1

    Geometry (in Angstrom), charge = 0, multiplicity = 1:

    H           -2.163239981441     1.477501312107    -0.898454691021
    C           -1.562244513668     1.807892768202    -0.060202902888
    C           -0.194615108659     1.135640532253    -0.068967869563
    H           -2.106454009102     1.569880680899     0.845415512214
    H           -1.451837304908     2.885663745143    -0.120889264376
    C           -0.271192175334    -0.377529795477     0.014874187531
    H            0.414203137083     1.491666104567     0.759100836098
    H            0.357584198545     1.398748262989    -0.968687884907
    C            1.013256059238    -1.202845354146     0.012800475619
    O           -1.320222204587    -0.943798737731     0.078730234011
    C            2.350480580229    -0.462805469898     0.021370582207
    H            0.949381329229    -1.850848243544    -0.857006925483
    H            0.944548694939    -1.862514559242     0.872298411943
    H            2.474598199074     0.168389399932    -0.852017759922
    H            3.164881369403    -1.179176787674     0.021861167476
    H            2.465448228843     0.159115823696     0.902915575410

  Mulliken Charges: (a.u.)
   Center  Symbol    Alpha    Beta     Spin     Total
       1     H     0.41039  0.41039  0.00000  0.17921
       2     C     3.23384  3.23384  0.00000 -0.46768
       3     C     3.21078  3.21078  0.00000 -0.42156
       4     H     0.41038  0.41038  0.00000  0.17924
       5     H     0.42061  0.42061  0.00000  0.15877
       6     C     2.73855  2.73855  0.00000  0.52291
       7     H     0.40778  0.40778  0.00000  0.18443
       8     H     0.40813  0.40813  0.00000  0.18374
       9     C     3.19947  3.19947  0.00000 -0.39895
      10     O     4.26603  4.26603  0.00000 -0.53206
      11     C     3.24946  3.24946  0.00000 -0.49893
      12     H     0.40003  0.40003  0.00000  0.19995
      13     H     0.39922  0.39922  0.00000  0.20156
      14     H     0.41702  0.41702  0.00000  0.16596
      15     H     0.41142  0.41142  0.00000  0.17715
      16     H     0.41688  0.41688  0.00000  0.16624

   Total alpha = 24.00000, Total beta = 24.00000, Total charge =  0.00000
