  ==> Input File <==

--------------------------------------------------------------------------
set {
	reference rhf
	basis 6-31G*
}

set_num_threads( 4 )
memory 2 gb

molecule MOL {
0 1

O	 1.255552	 1.239433	 -0.382453
C	 1.122059	 0.121804	 -0.000188
C	 -0.170150	 -0.657997	 -0.000612
O	 2.120323	 -0.602527	 0.489494
C	 -1.412532	 0.227344	 -0.000452
H	 -0.153702	 -1.313099	 -0.867402
H	 -0.153924	 -1.313811	 0.865644
C	 -2.706999	 -0.587347	 -0.000541
H	 -1.388000	 0.879466	 -0.868000
H	 -1.387972	 0.879138	 0.867341
C	 -3.956778	 0.291888	 0.000910
H	 -2.726114	 -1.239230	 -0.871609
H	 -2.725217	 -1.240844	 0.869333
H	 -3.985213	 0.933254	 -0.875158
H	 -4.860123	 -0.309979	 0.000519
H	 -3.984618	 0.931166	 0.878514
C	 3.393995	 0.013678	 0.546006
H	 3.724101	 0.295379	 -0.443520
H	 4.060046	 -0.723450	 0.966681
H	 3.363438	 0.892530	 1.173854

	symmetry c1
}
set optking {
	frozen_dihedral = ("
		1 2 3 6
	")
}

ee = optimize('scf')
oeprop('DIPOLE', 'QUADRUPOLE', 'MULLIKEN_CHARGES')
f=open( 'psi4out.xyz', 'w' )
f.write( "20  " )
f.write( str(ee) + "\n" )
f.write( MOL.save_string_xyz() )
f.close()
--------------------------------------------------------------------------

    Molecular point group: c1
  Charge       = 0
  Multiplicity = 1
  Basis Set: 6-31G*
  Basis Set:
  @DF-RHF Final Energy:  -383.94105568618511
    Total Energy =                       -383.9410556861851092
    Molecular point group: c1
  Basis Set: 6-31G*
  Basis Set:
  Basis Set: 6-31G*
  Basis Set:
  @DF-RHF Final Energy:  -383.94023744357457
    Total Energy =                       -383.9402374435746879
  Basis Set: 6-31G*
  Basis Set:
  Basis Set: 6-31G*
  Basis Set:
  @DF-RHF Final Energy:  -383.94118723001395
    Total Energy =                       -383.9411872300140658
  Basis Set: 6-31G*
  Basis Set:
  Basis Set: 6-31G*
  Basis Set:
  @DF-RHF Final Energy:  -383.94126073875168
    Total Energy =                       -383.9412607387513390
  Basis Set: 6-31G*
  Basis Set:
  Charge       = 0
  Multiplicity = 1
  Basis Set: 6-31G*
  Basis Set:

    Orbital Energies (a.u.)
    -----------------------

    Doubly Occupied:

       1A    -20.604509     2A    -20.544802     3A    -11.372416
       4A    -11.280953     5A    -11.235483     6A    -11.220730
       7A    -11.220095     8A    -11.210926     9A     -1.469685
      10A     -1.362652    11A     -1.088908    12A     -1.024308
      13A     -0.969340    14A     -0.886115    15A     -0.804184
      16A     -0.768421    17A     -0.696546    18A     -0.683344
      19A     -0.672116    20A     -0.646406    21A     -0.597490
      22A     -0.592492    23A     -0.577916    24A     -0.543004
      25A     -0.535235    26A     -0.523027    27A     -0.501042
      28A     -0.478026    29A     -0.474300    30A     -0.470329
      31A     -0.456123    32A     -0.436097

  @DF-RHF Final Energy:  -383.94126108163863

   => Energetics <=

    Nuclear Repulsion Energy =            381.0962443733884015
    One-Electron Energy =               -1278.1809708219896038
    Two-Electron Energy =                 513.1434653669625732
    DFT Exchange-Correlation Energy =       0.0000000000000000
    Empirical Dispersion Energy =           0.0000000000000000
    PCM Polarization Energy =               0.0000000000000000
    EFP Energy =                            0.0000000000000000
    Total Energy =                       -383.9412610816386859
    Molecular point group: c1
  Basis Set: 6-31G*
  Basis Set:

  -Total Gradient:
     Atom            X                  Y                   Z
    ------   -----------------  -----------------  -----------------
       1        0.000169464984    -0.000311898078    -0.000715752655
       2       -0.000337611418     0.000586683422     0.001003055464
       3        0.000476251341    -0.000763624281     0.000079192810
       4       -0.000008436052     0.000005676400     0.000107916017
       5        0.000004238001     0.000018193415     0.000012043957
       6       -0.000347733325     0.000521226899    -0.000396764808
       7        0.000027906806    -0.000000170158     0.000006482936
       8        0.000007648004    -0.000017286971     0.000005345346
       9       -0.000007496085     0.000010791636    -0.000003402569
      10        0.000016275371    -0.000014912829    -0.000006606579
      11        0.000008926974     0.000006892116    -0.000002763364
      12        0.000001558374    -0.000004354258     0.000002640666
      13       -0.000005287013    -0.000003293105     0.000004122809
      14       -0.000002494012     0.000003145195    -0.000000517816
      15        0.000003845939    -0.000001925978    -0.000000894855
      16       -0.000000829846    -0.000000579164    -0.000000775144
      17       -0.000003159753    -0.000076927553    -0.000187600220
      18        0.000040566222     0.000016779761     0.000038168584
      19        0.000001608130     0.000012443500     0.000028675222
      20       -0.000045242650     0.000013140034     0.000027434201

  **** Optimization is complete! (in 5 steps) ****
    Final optimized geometry and variables:
    Molecular point group: c1

    Geometry (in Angstrom), charge = 0, multiplicity = 1:

    O            1.245052071177     1.232101725826    -0.419051415814
    C            1.126261408652     0.111175254276    -0.040674303814
    C           -0.162490982484    -0.675083240603    -0.034599928813
    O            2.143111099184    -0.616920004471     0.401299219663
    C           -1.406185700601     0.210344383722    -0.068354169811
    H           -0.134995641102    -1.319863789035    -0.910803363911
    H           -0.161748866598    -1.331794369872     0.828074758965
    C           -2.699648020163    -0.604618145654    -0.110624157991
    H           -1.352915084490     0.866342416887    -0.930315795063
    H           -1.410700462976     0.856449196407     0.805591012612
    C           -3.949197718742     0.274392906694    -0.141643352577
    H           -2.691817081677    -1.250663213293    -0.986215331364
    H           -2.743731601162    -1.263646994000     0.754036710245
    H           -3.950815029093     0.921565144646    -1.013839312397
    H           -4.851806571841    -0.327707785160    -0.173747268146
    H           -4.004503397254     0.907700114013     0.739056683445
    C            3.420993432186    -0.006654499004     0.393943621135
    H            3.703874020865     0.271892392322    -0.611005294291
    H            4.103293567488    -0.746059686741     0.783413030481
    H            3.424505216888     0.873396801507     1.020740009632

  Mulliken Charges: (a.u.)
   Center  Symbol    Alpha    Beta     Spin     Total
       1     O     4.28629  4.28629  0.00000 -0.57259
       2     C     2.60430  2.60430  0.00000  0.79139
       3     C     3.20873  3.20873  0.00000 -0.41747
       4     O     4.30684  4.30684  0.00000 -0.61368
       5     C     3.15326  3.15326  0.00000 -0.30653
       6     H     0.40027  0.40027  0.00000  0.19946
       7     H     0.40083  0.40083  0.00000  0.19834
       8     C     3.15401  3.15401  0.00000 -0.30803
       9     H     0.40680  0.40680  0.00000  0.18639
      10     H     0.41622  0.41622  0.00000  0.16755
      11     C     3.23941  3.23941  0.00000 -0.47883
      12     H     0.42264  0.42264  0.00000  0.15473
      13     H     0.42282  0.42282  0.00000  0.15436
      14     H     0.41955  0.41955  0.00000  0.16090
      15     H     0.41864  0.41864  0.00000  0.16272
      16     H     0.42034  0.42034  0.00000  0.15932
      17     C     3.09286  3.09286  0.00000 -0.18573
      18     H     0.40923  0.40923  0.00000  0.18155
      19     H     0.40838  0.40838  0.00000  0.18325
      20     H     0.40856  0.40856  0.00000  0.18288

   Total alpha = 32.00000, Total beta = 32.00000, Total charge =  0.00000
