  ==> Input File <==

--------------------------------------------------------------------------
set {
	reference rhf
	basis cc-pvtz
}

set_num_threads( 4 )
memory 2 gb

molecule MOL {
0 1

H	 3.273419	 0.176595	 -0.102789
N	 2.433987	 -0.362316	 -0.080024
C	 1.263552	 0.494993	 0.021953
H	 2.497638	 -0.973615	 0.707122
C	 -0.016533	 -0.325589	 -0.026925
H	 1.280915	 1.180773	 -0.818522
H	 1.263064	 1.106893	 0.925038
C	 -1.280353	 0.525521	 0.047747
H	 -0.016686	 -0.912532	 -0.939714
H	 -0.014099	 -1.037598	 0.796369
C	 -1.972659	 0.685365	 -1.301754
H	 -1.029156	 1.507240	 0.440294
H	 -1.974628	 0.082995	 0.756991
H	 -1.315270	 1.156396	 -2.024733
H	 -2.863415	 1.297118	 -1.216530
H	 -2.269768	 -0.276936	 -1.705341

	symmetry c1
}
set optking {
	frozen_dihedral = ("
		12 8 5 9
	")
}

ee = optimize('scf')
oeprop('DIPOLE', 'QUADRUPOLE', 'MULLIKEN_CHARGES')
f=open( 'psi4out.xyz', 'w' )
f.write( "16  " )
f.write( str(ee) + "\n" )
f.write( MOL.save_string_xyz() )
f.close()
--------------------------------------------------------------------------

    Molecular point group: c1
  Charge       = 0
  Multiplicity = 1
  Basis Set: CC-PVTZ
  Basis Set:
  @DF-RHF Final Energy:  -212.39558095231715
    Total Energy =                       -212.3955809523172320
    Molecular point group: c1
  Basis Set: CC-PVTZ
  Basis Set:
  Basis Set: CC-PVTZ
  Basis Set:
  @DF-RHF Final Energy:  -212.39588778007882
    Total Energy =                       -212.3958877800789651
  Basis Set: CC-PVTZ
  Basis Set:
  Basis Set: CC-PVTZ
  Basis Set:
  @DF-RHF Final Energy:  -212.39595073697910
    Total Energy =                       -212.3959507369790458
  Basis Set: CC-PVTZ
  Basis Set:
  Basis Set: CC-PVTZ
  Basis Set:
  @DF-RHF Final Energy:  -212.39595174334747
    Total Energy =                       -212.3959517433474957
  Basis Set: CC-PVTZ
  Basis Set:
  Charge       = 0
  Multiplicity = 1
  Basis Set: CC-PVTZ
  Basis Set:

    Orbital Energies (a.u.)
    -----------------------

    Doubly Occupied:

       1A    -15.526609     2A    -11.238479     3A    -11.212854
       4A    -11.207776     5A    -11.205413     6A     -1.178581
       7A     -1.058566     8A     -0.957554     9A     -0.849004
      10A     -0.788937    11A     -0.663481    12A     -0.624487
      13A     -0.622267    14A     -0.587081    15A     -0.551038
      16A     -0.525284    17A     -0.507783    18A     -0.469847
      19A     -0.463842    20A     -0.455931    21A     -0.384264

  @DF-RHF Final Energy:  -212.39595190254016

   => Energetics <=

    Nuclear Repulsion Energy =            187.8270283181767013
    One-Electron Energy =                -658.2878045956734923
    Two-Electron Energy =                 258.0648243749564017
    DFT Exchange-Correlation Energy =       0.0000000000000000
    Empirical Dispersion Energy =           0.0000000000000000
    PCM Polarization Energy =               0.0000000000000000
    EFP Energy =                            0.0000000000000000
    Total Energy =                       -212.3959519025403893
    Molecular point group: c1
  Basis Set: CC-PVTZ
  Basis Set:

  -Total Gradient:
     Atom            X                  Y                   Z
    ------   -----------------  -----------------  -----------------
       1        0.000003555777    -0.000001781690    -0.000003850212
       2        0.000012288452    -0.000003116019    -0.000006562339
       3       -0.000008577223    -0.000001116818     0.000021060400
       4       -0.000001823098     0.000006768144    -0.000000585925
       5       -0.001527036875    -0.002309226018     0.001013246938
       6        0.000000798657    -0.000005932543     0.000003002427
       7        0.000002374474     0.000004032409     0.000003687182
       8       -0.000276440376    -0.000586884196     0.002801274313
       9        0.001303420253     0.002024215152    -0.001298805317
      10       -0.000002624161     0.000013747670     0.000000894653
      11       -0.000005509004    -0.000001473978     0.000008068404
      12        0.000500402244     0.000864935841    -0.002533633676
      13        0.000005265257    -0.000009527265    -0.000006271606
      14        0.000000604683    -0.000003799047     0.000004255400
      15       -0.000007243668     0.000005614130    -0.000008273792
      16        0.000000544603     0.000003544228     0.000002493150

  **** Optimization is complete! (in 5 steps) ****
    Final optimized geometry and variables:
    Molecular point group: c1

    Geometry (in Angstrom), charge = 0, multiplicity = 1:

    H            3.144063461207    -0.002832482930     0.114739632017
    N            2.310219688734    -0.550101790787     0.144427593877
    C            1.135203147082     0.291188652289     0.300668538741
    H            2.400168551546    -1.182798522502     0.911965709339
    C           -0.139822195632    -0.543201154989     0.277821366649
    H            1.117953512586     0.994298251708    -0.525834303379
    H            1.155573538657     0.884816535975     1.215485344589
    C           -1.415874145811     0.314954493950     0.322825986401
    H           -0.120524474881    -1.139792194905    -0.627187322417
    H           -0.118727825255    -1.235034208222     1.114609631942
    C           -2.070158699057     0.487253966279    -1.046712356822
    H           -1.175209051503     1.300919779001     0.709705704855
    H           -2.136437489784    -0.118575386503     1.006693159333
    H           -1.378165344834     0.922751959463    -1.760067669945
    H           -2.937138146770     1.135942079822    -0.989734907629
    H           -2.394792877393    -0.467477855242    -1.445891756100

  Mulliken Charges: (a.u.)
   Center  Symbol    Alpha    Beta     Spin     Total
       1     H     0.43019  0.43019  0.00000  0.13961
       2     N     3.68979  3.68979  0.00000 -0.37959
       3     C     3.02430  3.02430  0.00000 -0.04860
       4     H     0.43087  0.43087  0.00000  0.13826
       5     C     3.08880  3.08880  0.00000 -0.17760
       6     H     0.45698  0.45698  0.00000  0.08604
       7     H     0.46841  0.46841  0.00000  0.06318
       8     C     3.09503  3.09503  0.00000 -0.19005
       9     H     0.45034  0.45034  0.00000  0.09933
      10     H     0.45398  0.45398  0.00000  0.09204
      11     C     3.14661  3.14661  0.00000 -0.29323
      12     H     0.45692  0.45692  0.00000  0.08616
      13     H     0.44854  0.44854  0.00000  0.10292
      14     H     0.45481  0.45481  0.00000  0.09037
      15     H     0.45017  0.45017  0.00000  0.09966
      16     H     0.45425  0.45425  0.00000  0.09149

   Total alpha = 21.00000, Total beta = 21.00000, Total charge =  0.00000
