  ==> Input File <==

--------------------------------------------------------------------------
set {
	reference rhf
	basis cc-pvtz
}

set_num_threads( 4 )
memory 2 gb

molecule MOL {
0 1

O	 -1.913355	 -2.212007	 -0.431933
C	 -0.858756	 -1.713695	 -0.228576
C	 0.457750	 -2.448270	 -0.195842
O	 -0.695554	 -0.422406	 0.000602
C	 0.324215	 -3.940273	 -0.454817
H	 0.909624	 -2.254100	 0.770625
H	 1.106373	 -1.977193	 -0.926124
H	 -0.310225	 -4.408846	 0.285549
H	 1.298384	 -4.412561	 -0.418936
H	 -0.111699	 -4.129442	 -1.426630
C	 -1.852370	 0.402254	 0.000718
C	 -3.063338	 -0.501097	 -0.000437
H	 -1.831732	 1.039442	 -0.872158
H	 -1.832493	 1.038301	 0.874430
H	 -3.071944	 -1.133732	 -0.879113
H	 -3.966302	 0.097976	 -0.000483
H	 -3.072764	 -1.134834	 0.877435

	symmetry c1
}
set optking {
	frozen_dihedral = ("
		2 4 11 13
	")
}

ee = optimize('scf')
oeprop('DIPOLE', 'QUADRUPOLE', 'MULLIKEN_CHARGES')
f=open( 'psi4out.xyz', 'w' )
f.write( "17  " )
f.write( str(ee) + "\n" )
f.write( MOL.save_string_xyz() )
f.close()
--------------------------------------------------------------------------

    Molecular point group: c1
  Charge       = 0
  Multiplicity = 1
  Basis Set: CC-PVTZ
  Basis Set:
  @DF-RHF Final Energy:  -344.96677346195094
    Total Energy =                       -344.9667734619507087
    Molecular point group: c1
  Basis Set: CC-PVTZ
  Basis Set:
  Basis Set: CC-PVTZ
  Basis Set:
  @DF-RHF Final Energy:  -345.01142784559391
    Total Energy =                       -345.0114278455941417
  Basis Set: CC-PVTZ
  Basis Set:
  Basis Set: CC-PVTZ
  Basis Set:
  @DF-RHF Final Energy:  -345.02251381712591
    Total Energy =                       -345.0225138171258550
  Basis Set: CC-PVTZ
  Basis Set:
  Basis Set: CC-PVTZ
  Basis Set:
  @DF-RHF Final Energy:  -345.02426868324125
    Total Energy =                       -345.0242686832411891
  Basis Set: CC-PVTZ
  Basis Set:
  @DF-RHF Final Energy:  -345.02691045180444
    Total Energy =                       -345.0269104518040990
  @DF-RHF Final Energy:  -345.02858381904639
    Total Energy =                       -345.0285838190463892
  @DF-RHF Final Energy:  -345.02875162682244
    Total Energy =                       -345.0287516268220998
  Basis Set: CC-PVTZ
  Basis Set:
  @DF-RHF Final Energy:  -345.02884548687950
    Total Energy =                       -345.0288454868791632
  Basis Set: CC-PVTZ
  Basis Set:
  Basis Set: CC-PVTZ
  Basis Set:
  @DF-RHF Final Energy:  -345.02885171518733
    Total Energy =                       -345.0288517151869883
  Basis Set: CC-PVTZ
  Basis Set:
  Basis Set: CC-PVTZ
  Basis Set:
  @DF-RHF Final Energy:  -345.02885297457601
    Total Energy =                       -345.0288529745762389
  Basis Set: CC-PVTZ
  Basis Set:
  Charge       = 0
  Multiplicity = 1
  Basis Set: CC-PVTZ
  Basis Set:

    Orbital Energies (a.u.)
    -----------------------

    Doubly Occupied:

       1A    -20.589912     2A    -20.528771     3A    -11.364668
       4A    -11.289036     5A    -11.233088     6A    -11.214081
       7A    -11.211798     8A     -1.462857     9A     -1.364182
      10A     -1.068248    11A     -1.028687    12A     -0.920371
      13A     -0.859145    14A     -0.742805    15A     -0.693385
      16A     -0.683712    17A     -0.672315    18A     -0.628667
      19A     -0.603864    20A     -0.568551    21A     -0.546192
      22A     -0.530554    23A     -0.522691    24A     -0.517589
      25A     -0.494508    26A     -0.492351    27A     -0.445400
      28A     -0.430732

  @DF-RHF Final Energy:  -345.02885350216422

   => Energetics <=

    Nuclear Repulsion Energy =            318.9642216029659494
    One-Electron Energy =               -1102.5698280329454519
    Two-Electron Energy =                 438.5767529278155052
    DFT Exchange-Correlation Energy =       0.0000000000000000
    Empirical Dispersion Energy =           0.0000000000000000
    PCM Polarization Energy =               0.0000000000000000
    EFP Energy =                            0.0000000000000000
    Total Energy =                       -345.0288535021639973
    Molecular point group: c1
  Basis Set: CC-PVTZ
  Basis Set:

  -Total Gradient:
     Atom            X                  Y                   Z
    ------   -----------------  -----------------  -----------------
       1        0.000012557256    -0.000015395885    -0.000003845323
       2       -0.000254355057    -0.000615301029     0.003396402704
       3       -0.000028142731    -0.000007902490     0.000023203495
       4        0.000874752010     0.001409575670    -0.004887079051
       5        0.000015616582    -0.000000839628    -0.000010969254
       6        0.000011693323     0.000006515494    -0.000006266499
       7       -0.000004069025    -0.000002556468    -0.000007773045
       8        0.000001996844     0.000002961686     0.000000983047
       9       -0.000000293694    -0.000006290543     0.000002520364
      10       -0.000001867172     0.000000877083     0.000002434337
      11       -0.002591469675    -0.003128348483    -0.000304893563
      12        0.000008453714    -0.000028451381    -0.000004998068
      13        0.001994167468     0.002347864226     0.001784559919
      14       -0.000010753249    -0.000005079233    -0.000005014441
      15       -0.000012394956     0.000023904547     0.000004746610
      16        0.000003376615     0.000016167844     0.000004840805
      17       -0.000019268256     0.000002298591     0.000011147961

  **** Optimization is complete! (in 11 steps) ****
    Final optimized geometry and variables:
    Molecular point group: c1

    Geometry (in Angstrom), charge = 0, multiplicity = 1:

    O           -0.715339170549    -0.863282874250    -0.426211160827
    C            0.251920368261    -0.262406648048    -0.105385948662
    C            1.614870229318    -0.883154697652     0.093986929233
    O            0.307935771806     1.038217720788     0.112614521525
    C            1.651051743196    -2.373169148902    -0.204657493354
    H            1.912611600629    -0.679494176403     1.116819313196
    H            2.312434372775    -0.337665579304    -0.531305952472
    H            0.966559655981    -2.915532279810     0.433589220470
    H            2.649762047945    -2.760575949175    -0.042973011027
    H            1.369719067920    -2.572125640447    -1.230197573636
    C           -0.799718775314     1.937986052470     0.170999664850
    C           -2.196608947496     1.376897143787     0.355261810487
    H           -0.738144532329     2.558396452522    -0.713477264764
    H           -0.562903751032     2.574347235998     1.012433475247
    H           -2.545061446658     0.830059190456    -0.504356116357
    H           -2.852793704071     2.224790053415     0.524044854278
    H           -2.255980939903     0.728632590137     1.218871946293

  Mulliken Charges: (a.u.)
   Center  Symbol    Alpha    Beta     Spin     Total
       1     O     4.19819  4.19819  0.00000 -0.39639
       2     C     2.80542  2.80542  0.00000  0.38915
       3     C     3.09123  3.09123  0.00000 -0.18246
       4     O     4.15486  4.15486  0.00000 -0.30972
       5     C     3.14012  3.14012  0.00000 -0.28025
       6     H     0.44355  0.44355  0.00000  0.11291
       7     H     0.44129  0.44129  0.00000  0.11743
       8     H     0.44866  0.44866  0.00000  0.10268
       9     H     0.45096  0.45096  0.00000  0.09808
      10     H     0.44899  0.44899  0.00000  0.10202
      11     C     2.98362  2.98362  0.00000  0.03275
      12     C     3.15015  3.15015  0.00000 -0.30029
      13     H     0.45442  0.45442  0.00000  0.09117
      14     H     0.45183  0.45183  0.00000  0.09634
      15     H     0.43660  0.43660  0.00000  0.12679
      16     H     0.45207  0.45207  0.00000  0.09585
      17     H     0.44804  0.44804  0.00000  0.10392

   Total alpha = 28.00000, Total beta = 28.00000, Total charge = -0.00000
