  ==> Input File <==

--------------------------------------------------------------------------
set {
	reference rhf
	basis 6-31G*
}

set_num_threads( 4 )
memory 2 gb

molecule MOL {
0 1

H	 -0.000158	 1.970498	 0.756846
O	 -0.000074	 1.880206	 -0.189275
C	 -0.000015	 0.544847	 -0.545111
C	 -0.324856	 -0.316309	 0.670980
C	 1.319291	 0.188199	 -1.222038
H	 -0.787612	 0.396187	 -1.268778
F	 -1.512860	 0.005762	 1.136234
F	 -0.334019	 -1.600917	 0.384525
F	 0.555743	 -0.115450	 1.638346
F	 1.474368	 0.922548	 -2.302880
F	 1.370775	 -1.077703	 -1.578719
F	 2.341679	 0.432294	 -0.417850

	symmetry c1
}
set optking {
	frozen_dihedral = ("
		6 3 2 1
	")
}

ee = optimize('scf')
oeprop('DIPOLE', 'QUADRUPOLE', 'MULLIKEN_CHARGES')
f=open( 'psi4out.xyz', 'w' )
f.write( "12  " )
f.write( str(ee) + "\n" )
f.write( MOL.save_string_xyz() )
f.close()
--------------------------------------------------------------------------

    Molecular point group: c1
  Charge       = 0
  Multiplicity = 1
  Basis Set: 6-31G*
  Basis Set:
  @DF-RHF Final Energy:  -786.27336519689629
    Total Energy =                       -786.2733651968958384
    Molecular point group: c1
  Basis Set: 6-31G*
  Basis Set:
  Basis Set: 6-31G*
  Basis Set:
  @DF-RHF Final Energy:  -786.27401281354287
    Total Energy =                       -786.2740128135429813
  Basis Set: 6-31G*
  Basis Set:
  Basis Set: 6-31G*
  Basis Set:
  @DF-RHF Final Energy:  -786.27418429334216
    Total Energy =                       -786.2741842933428416
  Basis Set: 6-31G*
  Basis Set:
  Basis Set: 6-31G*
  Basis Set:
  @DF-RHF Final Energy:  -786.27419674049179
    Total Energy =                       -786.2741967404916750
  Basis Set: 6-31G*
  Basis Set:
  Basis Set: 6-31G*
  Basis Set:
  @DF-RHF Final Energy:  -786.27419827430435
    Total Energy =                       -786.2741982743048084
  Basis Set: 6-31G*
  Basis Set:
  Charge       = 0
  Multiplicity = 1
  Basis Set: 6-31G*
  Basis Set:

    Orbital Energies (a.u.)
    -----------------------

    Doubly Occupied:

       1A    -26.369263     2A    -26.369231     3A    -26.366735
       4A    -26.355094     5A    -26.353957     6A    -26.351791
       7A    -20.614469     8A    -11.533657     9A    -11.519605
      10A    -11.349443    11A     -1.770048    12A     -1.754230
      13A     -1.667895    14A     -1.663720    15A     -1.651357
      16A     -1.650002    17A     -1.432279    18A     -1.103506
      19A     -0.998114    20A     -0.937708    21A     -0.868650
      22A     -0.862951    23A     -0.855970    24A     -0.841366
      25A     -0.830651    26A     -0.805438    27A     -0.746286
      28A     -0.732902    29A     -0.719745    30A     -0.716884
      31A     -0.698317    32A     -0.690226    33A     -0.685276
      34A     -0.670697    35A     -0.668103    36A     -0.665653
      37A     -0.653118    38A     -0.651476    39A     -0.616691
      40A     -0.548132    41A     -0.503637

  @DF-RHF Final Energy:  -786.27419843344819

   => Energetics <=

    Nuclear Repulsion Energy =            670.6384820411360579
    One-Electron Energy =               -2428.1368082566823432
    Two-Electron Energy =                 971.2241277820979803
    DFT Exchange-Correlation Energy =       0.0000000000000000
    Empirical Dispersion Energy =           0.0000000000000000
    PCM Polarization Energy =               0.0000000000000000
    EFP Energy =                            0.0000000000000000
    Total Energy =                       -786.2741984334483050
    Molecular point group: c1
  Basis Set: 6-31G*
  Basis Set:

  -Total Gradient:
     Atom            X                  Y                   Z
    ------   -----------------  -----------------  -----------------
       1       -0.002975834063     0.000006371031     0.000062721937
       2        0.003320086693    -0.000158481922     0.000404397961
       3        0.001276285284     0.000607691195    -0.002425519211
       4        0.000050931992    -0.000011775445     0.000036008166
       5        0.000017078404     0.000028366036     0.000052504686
       6       -0.001614842730    -0.000444885244     0.001940401009
       7       -0.000059257527     0.000023298293     0.000013794984
       8        0.000025504232    -0.000022627693    -0.000012437661
       9       -0.000014768246    -0.000009090226    -0.000042470807
      10        0.000012407768     0.000004437400     0.000001027833
      11       -0.000013820768    -0.000022921976     0.000009662166
      12       -0.000023771046    -0.000000381458    -0.000040091071

  **** Optimization is complete! (in 6 steps) ****
    Final optimized geometry and variables:
    Molecular point group: c1

    Geometry (in Angstrom), charge = 0, multiplicity = 1:

    H           -0.487145619463     1.959505252885     0.948272918967
    O           -0.504322638946     1.821585862587     0.010669501346
    C           -0.515281520994     0.475968783696    -0.319098087661
    C           -0.818948873414    -0.379822717426     0.904682126225
    C            0.807856927082     0.130313665200    -0.991654955862
    H           -1.309890624314     0.283533140489    -1.027887067751
    F           -2.029841815683    -0.088572546879     1.346035233034
    F           -0.776688316084    -1.664530762183     0.639787826366
    F            0.025751042481    -0.126469706229     1.889884431644
    F            1.001367478278     0.928282814985    -2.019303894669
    F            0.805866828407    -1.111905627975    -1.438333489176
    F            1.825941538142     0.267559797167    -0.166342089839

  Mulliken Charges: (a.u.)
   Center  Symbol    Alpha    Beta     Spin     Total
       1     H     0.26317  0.26317  0.00000  0.47367
       2     O     4.37030  4.37030  0.00000 -0.74059
       3     C     3.02536  3.02536  0.00000 -0.05071
       4     C     2.46521  2.46521  0.00000  1.06959
       5     C     2.43920  2.43920  0.00000  1.12161
       6     H     0.38098  0.38098  0.00000  0.23804
       7     F     4.67839  4.67839  0.00000 -0.35678
       8     F     4.67010  4.67010  0.00000 -0.34020
       9     F     4.67750  4.67750  0.00000 -0.35499
      10     F     4.67540  4.67540  0.00000 -0.35080
      11     F     4.67803  4.67803  0.00000 -0.35606
      12     F     4.67638  4.67638  0.00000 -0.35276

   Total alpha = 41.00000, Total beta = 41.00000, Total charge = -0.00000
