  ==> Input File <==

--------------------------------------------------------------------------
set {
	reference rhf
	basis cc-pvtz
}

set_num_threads( 4 )
memory 2 gb

molecule MOL {
0 1

H	 2.828711	 -0.346904	 0.001083
C	 1.876752	 0.015931	 -0.363450
C	 0.776285	 -0.474665	 0.563092
H	 1.728113	 -0.357244	 -1.367440
H	 1.906171	 1.096574	 -0.386153
N	 -0.540022	 0.017605	 0.071630
H	 0.707111	 -1.548969	 0.573035
H	 0.886169	 -0.084184	 1.560432
O	 -1.125646	 -0.672093	 -0.693586
O	 -0.899614	 1.078984	 0.457071

	symmetry c1
}
set optking {
	frozen_dihedral = ("
		9 6 3 2
	")
}

ee = optimize('scf')
oeprop('DIPOLE', 'QUADRUPOLE', 'MULLIKEN_CHARGES')
f=open( 'psi4out.xyz', 'w' )
f.write( "10  " )
f.write( str(ee) + "\n" )
f.write( MOL.save_string_xyz() )
f.close()
--------------------------------------------------------------------------

    Molecular point group: c1
  Charge       = 0
  Multiplicity = 1
  Basis Set: CC-PVTZ
  Basis Set:
  @DF-RHF Final Energy:  -282.81335519409691
    Total Energy =                       -282.8133551940970847
    Molecular point group: c1
  Basis Set: CC-PVTZ
  Basis Set:
  Charge       = 0
  Multiplicity = 1
  Basis Set: CC-PVTZ
  Basis Set:

    Orbital Energies (a.u.)
    -----------------------

    Doubly Occupied:

       1A    -20.591922     2A    -20.591753     3A    -15.838351
       4A    -11.301798     5A    -11.251039     6A     -1.637596
       7A     -1.422040     8A     -1.126658     9A     -0.966825
      10A     -0.839851    11A     -0.763474    12A     -0.739515
      13A     -0.730090    14A     -0.660075    15A     -0.590588
      16A     -0.559908    17A     -0.550288    18A     -0.488387
      19A     -0.479334    20A     -0.454807

  @DF-RHF Final Energy:  -282.81335506814048

   => Energetics <=

    Nuclear Repulsion Energy =            186.7850177095388062
    One-Electron Energy =                -756.0281416190350683
    Two-Electron Energy =                 286.4297688413557808
    DFT Exchange-Correlation Energy =       0.0000000000000000
    Empirical Dispersion Energy =           0.0000000000000000
    PCM Polarization Energy =               0.0000000000000000
    EFP Energy =                            0.0000000000000000
    Total Energy =                       -282.8133550681404813
    Molecular point group: c1
  Basis Set: CC-PVTZ
  Basis Set:

  -Total Gradient:
     Atom            X                  Y                   Z
    ------   -----------------  -----------------  -----------------
       1       -0.000000865836    -0.000002197576     0.000002645748
       2       -0.000002085508     0.000015296323    -0.000006758090
       3       -0.000053984003    -0.000046598945     0.000054340813
       4       -0.000001341452    -0.000000017677     0.000001941226
       5       -0.000000503858    -0.000003277958    -0.000000106491
       6        0.000133922835     0.000119415006    -0.000224041470
       7        0.000009916858    -0.000003749696     0.000005612807
       8        0.000003621217    -0.000000793744     0.000003254227
       9       -0.000043511023    -0.000046879526     0.000081369997
      10       -0.000045169234    -0.000031196204     0.000081741234

  **** Optimization is complete! (in 2 steps) ****
    Final optimized geometry and variables:
    Molecular point group: c1

    Geometry (in Angstrom), charge = 0, multiplicity = 1:

    H            2.828938925077    -0.346964156066     0.001057664516
    C            1.876994665169     0.015852769179    -0.363558898252
    C            0.776365428580    -0.474548057678     0.562912888034
    H            1.728452325596    -0.357444971365    -1.367525228049
    H            1.906454268890     1.096483735614    -0.386416949457
    N           -0.539898573398     0.017821590502     0.071341724571
    H            0.707149767219    -1.548844007558     0.573112757123
    H            0.886124523690    -0.083829751847     1.560171968144
    O           -1.125536294254    -0.671886699948    -0.693866321528
    O           -0.900123063652     1.078584293864     0.457877054183

  Mulliken Charges: (a.u.)
   Center  Symbol    Alpha    Beta     Spin     Total
       1     H     0.44788  0.44788  0.00000  0.10425
       2     C     3.14070  3.14070  0.00000 -0.28141
       3     C     3.03737  3.03737  0.00000 -0.07474
       4     H     0.44094  0.44094  0.00000  0.11812
       5     H     0.44070  0.44070  0.00000  0.11860
       6     N     3.27630  3.27630  0.00000  0.44739
       7     H     0.43474  0.43474  0.00000  0.13051
       8     H     0.43487  0.43487  0.00000  0.13025
       9     O     4.17311  4.17311  0.00000 -0.34622
      10     O     4.17338  4.17338  0.00000 -0.34676

   Total alpha = 20.00000, Total beta = 20.00000, Total charge = -0.00000
