                              Psi4 1.0.54 Driver

  ==> Input File <==

--------------------------------------------------------------------------
set {
	reference rhf
	basis cc-pvtz
}

set_num_threads( 4 )
memory 2 gb

molecule MOL {
0 1

H	 -0.000342	 -0.223902	 -3.352295
C	 -0.027146	 0.371068	 -2.446756
C	 0.024493	 -0.518541	 -1.216015
H	 -0.932586	 0.964979	 -2.449855
H	 0.819708	 1.049865	 -2.473332
N	 -0.042516	 0.263377	 0.000000
H	 -0.822211	 -1.197105	 -1.225584
H	 0.921114	 -1.142847	 -1.255206
C	 0.024493	 -0.518541	 1.216015
H	 0.682568	 0.950412	 0.000000
C	 -0.569830	 -1.902404	 1.014780
H	 1.068207	 -0.611660	 1.497863
H	 -0.478178	 -0.024233	 2.051602
H	 -0.053674	 -2.426895	 0.220390
H	 -0.494061	 -2.488894	 1.923074
H	 -1.620649	 -1.840864	 0.749022

	symmetry c1
}
set optking {
	frozen_dihedral = ("
		12 9 6 3
	")
}

ee,wfn = optimize('scf', return_wfn=True)
oeprop( wfn, 'DIPOLE', 'QUADRUPOLE', 'MULLIKEN_CHARGES')
f=open( 'psi4out.xyz', 'w' )
f.write( "16  " )
f.write( str(ee) + "\n" )
f.write( MOL.save_string_xyz() )
f.close()
--------------------------------------------------------------------------

    Molecular point group: c1
  Charge       = 0
  Multiplicity = 1
  Basis Set: CC-PVTZ
  Basis Set:
  @DF-RHF Final Energy:  -212.38111306202643
    Total Energy =                       -212.3811130620263157
    Molecular point group: c1
  Basis Set: CC-PVTZ
  Basis Set:
  Basis Set: CC-PVTZ
  Basis Set:
  @DF-RHF Final Energy:  -211.07833417727579
    Total Energy =                       -211.0783341772756785
  Basis Set: CC-PVTZ
  Basis Set:
  Basis Set: CC-PVTZ
  Basis Set:
  @DF-RHF Final Energy:  -211.27119822871072
    Total Energy =                       -211.2711982287107162
  Basis Set: CC-PVTZ
  Basis Set:
  Basis Set: CC-PVTZ
  Basis Set:
  @DF-RHF Final Energy:  -211.60188649610080
    Total Energy =                       -211.6018864961007466
  Basis Set: CC-PVTZ
  Basis Set:
  @DF-RHF Final Energy:  -211.81086515224584
    Total Energy =                       -211.8108651522458672
  @DF-RHF Final Energy:  -212.12236269604981
    Total Energy =                       -212.1223626960498052
  @DF-RHF Final Energy:  -212.24075938887199
    Total Energy =                       -212.2407593888720498
  @DF-RHF Final Energy:  -212.28811468829539
    Total Energy =                       -212.2881146882954226
  @DF-RHF Final Energy:  -212.35504995319053
    Total Energy =                       -212.3550499531904734
  @DF-RHF Final Energy:  -212.32662571707974
    Total Energy =                       -212.3266257170798781
  @DF-RHF Final Energy:  -212.33097913910240
    Total Energy =                       -212.3309791391025669
  @DF-RHF Final Energy:  -212.36640521511981
    Total Energy =                       -212.3664052151197268
  @DF-RHF Final Energy:  -212.38627776064948
    Total Energy =                       -212.3862777606495342
  @DF-RHF Final Energy:  -212.38729234720788
    Total Energy =                       -212.3872923472080174
  Basis Set: CC-PVTZ
  Basis Set:
  @DF-RHF Final Energy:  -212.38748072665925
    Total Energy =                       -212.3874807266593052
  Basis Set: CC-PVTZ
  Basis Set:
  Basis Set: CC-PVTZ
  Basis Set:
  @DF-RHF Final Energy:  -212.38750880436635
    Total Energy =                       -212.3875088043662345
  Basis Set: CC-PVTZ
  Basis Set:
  Basis Set: CC-PVTZ
  Basis Set:
  @DF-RHF Final Energy:  -212.38753527025870
    Total Energy =                       -212.3875352702586383
  Basis Set: CC-PVTZ
  Basis Set:
  Charge       = 0
  Multiplicity = 1
  Basis Set: CC-PVTZ
  Basis Set:

    Orbital Energies (a.u.)
    -----------------------

    Doubly Occupied:

       1A    -15.524763     2A    -11.239489     3A    -11.237775
       4A    -11.208061     5A    -11.205890     6A     -1.200541
       7A     -1.025427     8A     -0.969919     9A     -0.853557
      10A     -0.793224    11A     -0.662269    12A     -0.626779
      13A     -0.613483    14A     -0.592662    15A     -0.538588
      16A     -0.515425    17A     -0.513962    18A     -0.494579
      19A     -0.484756    20A     -0.475755    21A     -0.350636

  @DF-RHF Final Energy:  -212.38753637033247

   => Energetics <=

    Nuclear Repulsion Energy =            191.9817648169488109
    One-Electron Energy =                -666.4835208488802891
    Two-Electron Energy =                 262.1142196615991224
    DFT Exchange-Correlation Energy =       0.0000000000000000
    Empirical Dispersion Energy =           0.0000000000000000
    PCM Polarization Energy =               0.0000000000000000
    EFP Energy =                            0.0000000000000000
    Total Energy =                       -212.3875363703323274
    Molecular point group: c1
  Basis Set: CC-PVTZ
  Basis Set:

  -Total Gradient:
     Atom            X                  Y                   Z
    ------   -----------------  -----------------  -----------------
       1        0.000043541812    -0.000029540568     0.000006833946
       2       -0.000037298121     0.000027411957     0.000023478599
       3       -0.003739019118    -0.003058878234    -0.000672319502
       4        0.000020708702     0.000004306040     0.000000109376
       5       -0.000002061194     0.000015068833     0.000035683574
       6        0.006176077514     0.003423010152     0.002127513534
       7        0.000030366853    -0.000017928092    -0.000012056844
       8       -0.000005670210    -0.000011593752     0.000012330523
       9       -0.005120262443     0.003607916333    -0.005383074120
      10        0.000004456088     0.000110448703     0.000081662810
      11        0.000028167272     0.000014352416    -0.000024728715
      12        0.002569972148    -0.003995347070     0.003872245141
      13       -0.000026692339     0.000041515821    -0.000067720920
      14        0.000030415442    -0.000053699177     0.000081257584
      15       -0.000009609166    -0.000058154477    -0.000058819581
      16        0.000036906760    -0.000018888885    -0.000022395403

  **** Optimization is complete! (in 18 steps) ****
    Final optimized geometry and variables:
    Molecular point group: c1

    Geometry (in Angstrom), charge = 0, multiplicity = 1:

    H           -1.779364323295     2.187915830607     1.392643664879
    C           -1.105750066436     1.361195238372     1.585663493280
    C           -0.528671637184     0.822911714853     0.286196749394
    H           -1.650703777644     0.585790178579     2.109787641006
    H           -0.320565295385     1.722777339077     2.242637539536
    N            0.338014902071    -0.304947416330     0.551465964768
    H           -1.340824134443     0.500121801100    -0.351496011201
    H           -0.021472703710     1.636143241969    -0.240832392239
    C            1.040715841804    -0.929740282361    -0.560024793640
    H            0.979316202093    -0.087566832034     1.281778024720
    C            0.255200506944    -0.988962871056    -1.859632320472
    H            2.016600720741    -0.471011692339    -0.730794545872
    H            1.262631634775    -1.949952086561    -0.261366306641
    H            0.073484902219    -0.007514792963    -2.278505877748
    H            0.815053502580    -1.560519040839    -2.590395858407
    H           -0.700128904244    -1.479255307003    -1.713193651903

  Mulliken Charges: (a.u.)
   Center  Symbol    Alpha    Beta     Spin     Total
       1     H     0.45364  0.45364  0.00000  0.09272
       2     C     3.14516  3.14516  0.00000 -0.29032
       3     C     3.02063  3.02063  0.00000 -0.04125
       4     H     0.44980  0.44980  0.00000  0.10041
       5     H     0.45947  0.45947  0.00000  0.08107
       6     N     3.64272  3.64272  0.00000 -0.28545
       7     H     0.45666  0.45666  0.00000  0.08669
       8     H     0.47421  0.47421  0.00000  0.05157
       9     C     3.02306  3.02306  0.00000 -0.04611
      10     H     0.44117  0.44117  0.00000  0.11767
      11     C     3.15867  3.15867  0.00000 -0.31734
      12     H     0.46901  0.46901  0.00000  0.06198
      13     H     0.45850  0.45850  0.00000  0.08299
      14     H     0.45161  0.45161  0.00000  0.09679
      15     H     0.44599  0.44599  0.00000  0.10803
      16     H     0.44972  0.44972  0.00000  0.10056

   Total alpha = 21.00000, Total beta = 21.00000, Total charge =  0.00000

*** Psi4 exiting successfully. Buy a developer a beer!
