                              Psi4 1.0.54 Driver

  ==> Input File <==

--------------------------------------------------------------------------
set {
	reference rhf
	basis cc-pvtz
}

set_num_threads( 4 )
memory 2 gb

molecule MOL {
0 1

H	 2.614283	 2.028610	 0.296620
O	 3.358864	 1.662087	 -0.142800
C	 3.565468	 0.338079	 0.273842
C	 2.533667	 -0.637565	 -0.272227
H	 4.548038	 0.064914	 -0.086598
H	 3.593945	 0.282242	 1.360360
C	 1.114816	 -0.402372	 0.240993
H	 2.544552	 -0.580764	 -1.356576
H	 2.850574	 -1.642962	 -0.005497
C	 0.113298	 -1.420414	 -0.302504
H	 0.796373	 0.598427	 -0.031033
H	 1.113377	 -0.446476	 1.328807
C	 0.169072	 -2.798583	 0.359158
H	 -0.892143	 -1.017454	 -0.207962
H	 0.290084	 -1.543605	 -1.367417
C	 -0.265108	 -2.830858	 1.823463
H	 -0.468575	 -3.473593	 -0.205017
H	 1.177905	 -3.196361	 0.274404
C	 -0.287260	 -4.240498	 2.408984
H	 -1.256234	 -2.391317	 1.912584
H	 0.396644	 -2.213231	 2.423149
C	 -0.716711	 -4.275953	 3.871929
H	 -0.957767	 -4.862203	 1.822061
H	 0.700153	 -4.684204	 2.313048
H	 -1.714341	 -3.868096	 3.996930
H	 -0.724169	 -5.290027	 4.254949
H	 -0.043273	 -3.693605	 4.492173

	symmetry c1
}
set optking {
	frozen_dihedral = ("
		14 10 7 4
	")
}

ee,wfn = optimize('scf', return_wfn=True)
oeprop( wfn, 'DIPOLE', 'QUADRUPOLE', 'MULLIKEN_CHARGES')
f=open( 'psi4out.xyz', 'w' )
f.write( "27  " )
f.write( str(ee) + "\n" )
f.write( MOL.save_string_xyz() )
f.close()
--------------------------------------------------------------------------

    Molecular point group: c1
  Charge       = 0
  Multiplicity = 1
  Basis Set: CC-PVTZ
  Basis Set:
  @DF-RHF Final Energy:  -388.42517718880316
    Total Energy =                       -388.4251771888037865
    Molecular point group: c1
  Basis Set: CC-PVTZ
  Basis Set:
  Basis Set: CC-PVTZ
  Basis Set:
  @DF-RHF Final Energy:  -388.42544014440193
    Total Energy =                       -388.4254401444020459
  Basis Set: CC-PVTZ
  Basis Set:
  Basis Set: CC-PVTZ
  Basis Set:
  @DF-RHF Final Energy:  -388.42558728244478
    Total Energy =                       -388.4255872824447806
  Basis Set: CC-PVTZ
  Basis Set:
  Basis Set: CC-PVTZ
  Basis Set:
  @DF-RHF Final Energy:  -388.42559335593120
    Total Energy =                       -388.4255933559310279
  Basis Set: CC-PVTZ
  Basis Set:
  Basis Set: CC-PVTZ
  Basis Set:
  @DF-RHF Final Energy:  -388.42559677512270
    Total Energy =                       -388.4255967751229264
  Basis Set: CC-PVTZ
  Basis Set:
  Charge       = 0
  Multiplicity = 1
  Basis Set: CC-PVTZ
  Basis Set:

    Orbital Energies (a.u.)
    -----------------------

    Doubly Occupied:

       1A    -20.545241     2A    -11.265097     3A    -11.216972
       4A    -11.214959     5A    -11.214263     6A    -11.213188
       7A    -11.213079     8A    -11.212133     9A    -11.207707
      10A     -1.363219    11A     -1.096014    12A     -1.061885
      13A     -1.011096    14A     -0.950940    15A     -0.888407
      16A     -0.829066    17A     -0.802215    18A     -0.769021
      19A     -0.696368    20A     -0.656610    21A     -0.632219
      22A     -0.617948    23A     -0.605295    24A     -0.583636
      25A     -0.579161    26A     -0.554572    27A     -0.543603
      28A     -0.528352    29A     -0.512615    30A     -0.502687
      31A     -0.481985    32A     -0.476989    33A     -0.464183
      34A     -0.457361    35A     -0.448865    36A     -0.442937
      37A     -0.428468

  @DF-RHF Final Energy:  -388.42559720257719

   => Energetics <=

    Nuclear Repulsion Energy =            463.4401170566420092
    One-Electron Energy =               -1445.1547165704828330
    Two-Electron Energy =                 593.2890023112637436
    DFT Exchange-Correlation Energy =       0.0000000000000000
    Empirical Dispersion Energy =           0.0000000000000000
    PCM Polarization Energy =               0.0000000000000000
    EFP Energy =                            0.0000000000000000
    Total Energy =                       -388.4255972025770234
    Molecular point group: c1
  Basis Set: CC-PVTZ
  Basis Set:

  -Total Gradient:
     Atom            X                  Y                   Z
    ------   -----------------  -----------------  -----------------
       1       -0.000002169426     0.000001079765     0.000002960951
       2       -0.000007489035     0.000007166207    -0.000005193839
       3        0.000009466053    -0.000015926622    -0.000001610027
       4       -0.000287707662     0.000807991589    -0.001045777185
       5        0.000004841587     0.000004847660     0.000000985345
       6       -0.000002659385     0.000000285461    -0.000005162471
       7        0.000397368574    -0.000958162506     0.001086775396
       8        0.000000893702    -0.000002300055     0.000000873179
       9        0.000001311721    -0.000001275626    -0.000000106082
      10       -0.000206060641    -0.000606342885     0.001646524897
      11        0.000004779258     0.000009019386     0.000004877170
      12        0.000003333249    -0.000007347389     0.000009091877
      13       -0.000013794351     0.000006050734     0.000002459193
      14        0.000098795515     0.000745213332    -0.001679116494
      15        0.000001667865    -0.000005856752    -0.000011736288
      16        0.000000916145     0.000001652308     0.000002151086
      17       -0.000002870361     0.000002517598     0.000002032839
      18        0.000002433874     0.000012500726    -0.000005272851
      19       -0.000004741326    -0.000002100708     0.000000643364
      20        0.000000260622     0.000001532890    -0.000007560802
      21       -0.000003526110     0.000001245616     0.000000835960
      22        0.000006551641    -0.000000899278     0.000001626935
      23       -0.000007008296    -0.000002398353    -0.000004557346
      24        0.000003593152    -0.000003713349    -0.000002448647
      25       -0.000003836558     0.000000108624    -0.000000924736
      26        0.000002839638    -0.000000766643    -0.000000097519
      27        0.000002810557     0.000005878272     0.000007726092

  **** Optimization is complete! (in 6 steps) ****
    Final optimized geometry and variables:
    Molecular point group: c1

    Geometry (in Angstrom), charge = 0, multiplicity = 1:

    H            1.476852729394     3.628340800247    -0.627660925775
    O            2.222262137425     3.284755213274    -1.083669998154
    C            2.472338748318     1.964222380997    -0.680747779843
    C            1.452713875089     0.964705360456    -1.206926722191
    H            3.452377501788     1.718463578283    -1.066897446391
    H            2.529198255101     1.903161652381     0.404369732802
    C            0.038067512825     1.176893553124    -0.668890897397
    H            1.438745914049     1.022817188465    -2.290974238248
    H            1.804694264328    -0.030043134424    -0.948486263549
    C           -0.982695533050     0.154798008964    -1.183251476235
    H           -0.301598299731     2.163727737153    -0.968790562527
    H            0.055846561775     1.178313441808     0.417189952105
    C           -0.924830374711    -1.235756070710    -0.545054284293
    H           -1.982743925909     0.560287786717    -1.059250244433
    H           -0.843762552213     0.049499064613    -2.255740204977
    C           -1.377421957758    -1.290565219026     0.913015862439
    H           -1.557911342606    -1.900202715745    -1.126431473405
    H            0.080637460906    -1.639210049278    -0.625054650160
    C           -1.375046181934    -2.705050127517     1.487163261000
    H           -2.379654104899    -0.875143748736     0.991124375712
    H           -0.739824379136    -0.662483008765     1.527931739015
    C           -1.828584301992    -2.762971264642     2.942063951553
    H           -2.019804514735    -3.338226112801     0.883906217307
    H           -0.375620542313    -3.123809857037     1.405156272482
    H           -2.838565511449    -2.382261733264     3.052580556194
    H           -1.816154061761    -3.779772741161     3.317521320136
    H           -1.181427936867    -2.168102452881     3.578188867115

  Mulliken Charges: (a.u.)
   Center  Symbol    Alpha    Beta     Spin     Total
       1     H     0.39230  0.39230  0.00000  0.21539
       2     O     4.20562  4.20562  0.00000 -0.41125
       3     C     2.97861  2.97861  0.00000  0.04278
       4     C     3.08742  3.08742  0.00000 -0.17484
       5     H     0.44853  0.44853  0.00000  0.10294
       6     H     0.46950  0.46950  0.00000  0.06100
       7     C     3.11471  3.11471  0.00000 -0.22942
       8     H     0.45072  0.45072  0.00000  0.09856
       9     H     0.45667  0.45667  0.00000  0.08665
      10     C     3.10906  3.10906  0.00000 -0.21812
      11     H     0.44821  0.44821  0.00000  0.10358
      12     H     0.45057  0.45057  0.00000  0.09887
      13     C     3.10010  3.10010  0.00000 -0.20021
      14     H     0.44592  0.44592  0.00000  0.10815
      15     H     0.44657  0.44657  0.00000  0.10685
      16     C     3.08699  3.08699  0.00000 -0.17398
      17     H     0.44628  0.44628  0.00000  0.10744
      18     H     0.45195  0.45195  0.00000  0.09610
      19     C     3.08384  3.08384  0.00000 -0.16767
      20     H     0.45465  0.45465  0.00000  0.09070
      21     H     0.45481  0.45481  0.00000  0.09039
      22     C     3.14978  3.14978  0.00000 -0.29956
      23     H     0.45379  0.45379  0.00000  0.09242
      24     H     0.45450  0.45450  0.00000  0.09100
      25     H     0.45504  0.45504  0.00000  0.08992
      26     H     0.44811  0.44811  0.00000  0.10378
      27     H     0.45574  0.45574  0.00000  0.08853

   Total alpha = 37.00000, Total beta = 37.00000, Total charge = -0.00000

*** Psi4 exiting successfully. Buy a developer a beer!
