  ==> Input File <==

--------------------------------------------------------------------------
set {
	reference rhf
	basis 6-31G*
}

set_num_threads( 4 )
memory 2 gb

molecule MOL {
0 1

H	 3.763698	 -0.823554	 0.202307
O	 2.862025	 -1.049436	 0.408992
C	 2.077727	 -0.067559	 -0.035091
C	 0.624473	 -0.343591	 0.253101
O	 2.515120	 0.889947	 -0.585442
C	 -0.265902	 0.883932	 0.072916
H	 0.324016	 -1.163849	 -0.390541
H	 0.565024	 -0.726111	 1.268924
C	 -1.728698	 0.646073	 0.462102
H	 -0.209144	 1.219470	 -0.958188
H	 0.135059	 1.692851	 0.673903
C	 -2.482460	 -0.343073	 -0.431425
H	 -2.245265	 1.602650	 0.432430
H	 -1.779332	 0.308348	 1.496285
C	 -3.960546	 -0.461025	 -0.060175
H	 -2.395034	 -0.026811	 -1.468912
H	 -2.024850	 -1.327147	 -0.371646
H	 -4.472726	 -1.168004	 -0.705284
H	 -4.465146	 0.496508	 -0.151489
H	 -4.081218	 -0.800940	 0.964585

	symmetry c1
}
set optking {
	frozen_dihedral = ("
		5 3 4 7
	")
}

ee = optimize('scf')
oeprop('DIPOLE', 'QUADRUPOLE', 'MULLIKEN_CHARGES')
f=open( 'psi4out.xyz', 'w' )
f.write( "20  " )
f.write( str(ee) + "\n" )
f.write( MOL.save_string_xyz() )
f.close()
--------------------------------------------------------------------------

    Molecular point group: c1
  Charge       = 0
  Multiplicity = 1
  Basis Set: 6-31G*
  Basis Set:
  @DF-RHF Final Energy:  -383.94851931265669
    Total Energy =                       -383.9485193126567992
    Molecular point group: c1
  Basis Set: 6-31G*
  Basis Set:
  Basis Set: 6-31G*
  Basis Set:
  @DF-RHF Final Energy:  -383.94796108341501
    Total Energy =                       -383.9479610834150094
  Basis Set: 6-31G*
  Basis Set:
  Basis Set: 6-31G*
  Basis Set:
  @DF-RHF Final Energy:  -383.94858687456713
    Total Energy =                       -383.9485868745670132
  Basis Set: 6-31G*
  Basis Set:
  Basis Set: 6-31G*
  Basis Set:
  @DF-RHF Final Energy:  -383.94861030301598
    Total Energy =                       -383.9486103030160393
  Basis Set: 6-31G*
  Basis Set:
  Basis Set: 6-31G*
  Basis Set:
  @DF-RHF Final Energy:  -383.94860060999309
    Total Energy =                       -383.9486006099928090
  Basis Set: 6-31G*
  Basis Set:
  Basis Set: 6-31G*
  Basis Set:
  @DF-RHF Final Energy:  -383.94861109343191
    Total Energy =                       -383.9486110934317367
  Basis Set: 6-31G*
  Basis Set:
  Charge       = 0
  Multiplicity = 1
  Basis Set: 6-31G*
  Basis Set:

    Orbital Energies (a.u.)
    -----------------------

    Doubly Occupied:

       1A    -20.612734     2A    -20.551257     3A    -11.381130
       4A    -11.240162     5A    -11.223300     6A    -11.220780
       7A    -11.220188     8A    -11.212435     9A     -1.474614
      10A     -1.365505    11A     -1.096274    12A     -1.040950
      13A     -0.961200    14A     -0.868749    15A     -0.816669
      16A     -0.776939    17A     -0.699590    18A     -0.689953
      19A     -0.664134    20A     -0.634797    21A     -0.603798
      22A     -0.593974    23A     -0.575401    24A     -0.556245
      25A     -0.539529    26A     -0.513252    27A     -0.495632
      28A     -0.479760    29A     -0.470264    30A     -0.467238
      31A     -0.458061    32A     -0.442868

  @DF-RHF Final Energy:  -383.94861105569498

   => Energetics <=

    Nuclear Repulsion Energy =            375.9439911175084035
    One-Electron Energy =               -1267.8904389532094683
    Two-Electron Energy =                 507.9978367800061960
    DFT Exchange-Correlation Energy =       0.0000000000000000
    Empirical Dispersion Energy =           0.0000000000000000
    PCM Polarization Energy =               0.0000000000000000
    EFP Energy =                            0.0000000000000000
    Total Energy =                       -383.9486110556948688
    Molecular point group: c1
  Basis Set: 6-31G*
  Basis Set:

  -Total Gradient:
     Atom            X                  Y                   Z
    ------   -----------------  -----------------  -----------------
       1        0.000002494160    -0.000003309434    -0.000003471372
       2        0.000001068164     0.000005280565     0.000005024967
       3        0.000052644194     0.000529333027     0.000742754185
       4        0.000167749517    -0.000608804621     0.000249316681
       5       -0.000062298499    -0.000307249395    -0.000565380043
       6        0.000000505154    -0.000009558854     0.000000235790
       7       -0.000169231612     0.000398140507    -0.000423697048
       8        0.000000474580    -0.000005907699     0.000006237151
       9        0.000005766449    -0.000004337574     0.000007299348
      10       -0.000005066691     0.000000403942    -0.000002901654
      11        0.000000247168    -0.000004699563     0.000000806369
      12       -0.000004889086     0.000011616812    -0.000016864409
      13        0.000010886410     0.000004124736    -0.000003777538
      14       -0.000003201567     0.000002998076     0.000001926211
      15        0.000003466490    -0.000009675571     0.000008141410
      16       -0.000008115747     0.000003151863    -0.000006875286
      17        0.000004877804     0.000001980101    -0.000000936937
      18        0.000002025599    -0.000004285641     0.000003243584
      19        0.000002727452    -0.000002063478    -0.000004331845
      20       -0.000002129948     0.000002862202     0.000003250436

  **** Optimization is complete! (in 7 steps) ****
    Final optimized geometry and variables:
    Molecular point group: c1

    Geometry (in Angstrom), charge = 0, multiplicity = 1:

    H            3.757521061465    -0.850781643261     0.126057390870
    O            2.861772799999    -1.064982467627     0.368127835778
    C            2.074682514960    -0.069449656468    -0.038244321730
    C            0.624827152665    -0.341496952588     0.269986394776
    O            2.504439646887     0.888866494475    -0.593443813628
    C           -0.266790894304     0.883313498048     0.072209781018
    H            0.323905058715    -1.161066186814    -0.376285893460
    H            0.562475610734    -0.719274625371     1.285776424612
    C           -1.732239871774     0.645615117065     0.451460841639
    H           -0.200116323863     1.210873532995    -0.960088797099
    H            0.125851236055     1.698310622266     0.671871203877
    C           -2.477188077775    -0.349811834619    -0.442508847578
    H           -2.249800177020     1.601284681502     0.411575958599
    H           -1.791171049272     0.314053669860     1.487154082827
    C           -3.957865621898    -0.468436698341    -0.081929387739
    H           -2.382217184122    -0.039201044588    -1.480999063880
    H           -2.018504776226    -1.332802075079    -0.373538206138
    H           -4.463506469650    -1.180767027275    -0.726295034365
    H           -4.463720246908     0.487390331876    -0.183572348129
    H           -4.085802741301    -0.801807052921     0.944099028423

  Mulliken Charges: (a.u.)
   Center  Symbol    Alpha    Beta     Spin     Total
       1     H     0.26794  0.26794  0.00000  0.46412
       2     O     4.35148  4.35148  0.00000 -0.70296
       3     C     2.62207  2.62207  0.00000  0.75585
       4     C     3.21258  3.21258  0.00000 -0.42515
       5     O     4.27943  4.27943  0.00000 -0.55887
       6     C     3.15493  3.15493  0.00000 -0.30986
       7     H     0.39644  0.39644  0.00000  0.20711
       8     H     0.39947  0.39947  0.00000  0.20106
       9     C     3.15529  3.15529  0.00000 -0.31058
      10     H     0.40926  0.40926  0.00000  0.18149
      11     H     0.41107  0.41107  0.00000  0.17786
      12     C     3.15497  3.15497  0.00000 -0.30994
      13     H     0.41789  0.41789  0.00000  0.16422
      14     H     0.42364  0.42364  0.00000  0.15271
      15     C     3.23923  3.23923  0.00000 -0.47846
      16     H     0.42112  0.42112  0.00000  0.15776
      17     H     0.42294  0.42294  0.00000  0.15412
      18     H     0.41831  0.41831  0.00000  0.16339
      19     H     0.42062  0.42062  0.00000  0.15876
      20     H     0.42132  0.42132  0.00000  0.15736

   Total alpha = 32.00000, Total beta = 32.00000, Total charge =  0.00000
