  ==> Input File <==

--------------------------------------------------------------------------
set {
	reference rhf
	basis cc-pvtz
}

set_num_threads( 4 )
memory 2 gb

molecule MOL {
0 1

H	 -3.259588	 0.532874	 0.662762
C	 -2.218374	 0.314347	 0.527725
C	 -1.791728	 -0.992198	 0.336033
C	 -1.283994	 1.323612	 0.541600
H	 -2.506535	 -1.793068	 0.322195
C	 -0.458675	 -1.276663	 0.162621
H	 -1.594948	 2.340665	 0.688572
C	 0.066387	 1.053901	 0.368001
H	 -0.118644	 -2.282597	 0.013808
C	 0.481150	 -0.251411	 0.177709
H	 0.768425	 1.861582	 0.383958
O	 1.760432	 -0.625184	 0.000000
C	 2.773565	 0.334879	 0.000000
H	 2.728295	 0.960928	 -0.884150
H	 3.706387	 -0.206610	 0.000000
H	 2.728295	 0.960928	 0.884150

	symmetry c1
}
set optking {
	frozen_dihedral = ("
		10 12 13 14
	")
}

ee = optimize('scf')
oeprop('DIPOLE', 'QUADRUPOLE', 'MULLIKEN_CHARGES')
f=open( 'psi4out.xyz', 'w' )
f.write( "16  " )
f.write( str(ee) + "\n" )
f.write( MOL.save_string_xyz() )
f.close()
--------------------------------------------------------------------------

    Molecular point group: c1
  Charge       = 0
  Multiplicity = 1
  Basis Set: CC-PVTZ
  Basis Set:
  @DF-RHF Final Energy:  -344.70341381039572
    Total Energy =                       -344.7034138103956593
    Molecular point group: c1
  Basis Set: CC-PVTZ
  Basis Set:
  Basis Set: CC-PVTZ
  Basis Set:
  @DF-RHF Final Energy:  -344.70353408790874
    Total Energy =                       -344.7035340879086789
  Basis Set: CC-PVTZ
  Basis Set:
  Basis Set: CC-PVTZ
  Basis Set:
  @DF-RHF Final Energy:  -344.70357516403999
    Total Energy =                       -344.7035751640401031
  Basis Set: CC-PVTZ
  Basis Set:
  Charge       = 0
  Multiplicity = 1
  Basis Set: CC-PVTZ
  Basis Set:

    Orbital Energies (a.u.)
    -----------------------

    Doubly Occupied:

       1A    -20.580415     2A    -11.293702     3A    -11.278509
       4A    -11.231229     5A    -11.229983     6A    -11.221811
       7A    -11.217973     8A    -11.216885     9A     -1.419834
      10A     -1.150933    11A     -1.025740    12A     -1.016632
      13A     -0.944302    14A     -0.834558    15A     -0.808277
      16A     -0.726153    17A     -0.667696    18A     -0.666409
      19A     -0.661201    20A     -0.619270    21A     -0.590133
      22A     -0.579441    23A     -0.528599    24A     -0.523370
      25A     -0.512323    26A     -0.479121    27A     -0.467330
      28A     -0.339746    29A     -0.310040

  @DF-RHF Final Energy:  -344.70357702040462

   => Energetics <=

    Nuclear Repulsion Energy =            348.8783819976142695
    One-Electron Energy =               -1158.8806854476420085
    Two-Electron Energy =                 465.2987264296231729
    DFT Exchange-Correlation Energy =       0.0000000000000000
    Empirical Dispersion Energy =           0.0000000000000000
    PCM Polarization Energy =               0.0000000000000000
    EFP Energy =                            0.0000000000000000
    Total Energy =                       -344.7035770204045662
    Molecular point group: c1
  Basis Set: CC-PVTZ
  Basis Set:

  -Total Gradient:
     Atom            X                  Y                   Z
    ------   -----------------  -----------------  -----------------
       1        0.000005523216     0.000003915220     0.000014355414
       2        0.000004020322     0.000073354891    -0.000014509099
       3        0.000048724498    -0.000027712635    -0.000004637930
       4       -0.000078899048    -0.000015700394    -0.000016065387
       5        0.000001361168     0.000001712001    -0.000006439308
       6       -0.000051660135    -0.000022250192     0.000010856721
       7       -0.000007321927     0.000005113345     0.000008798208
       8        0.000008305959    -0.000002501842     0.000009784579
       9        0.000008336381     0.000001336256    -0.000006941634
      10        0.000160982901    -0.000201671516     0.001064214913
      11       -0.000036337135    -0.000011042341    -0.000002358474
      12        0.000041249964     0.000152210263    -0.001656203549
      13       -0.000918274528     0.000849738494     0.001273671174
      14        0.000777793386    -0.000733105151    -0.000656681425
      15        0.000076171260     0.000005718162    -0.000004253404
      16       -0.000039976283    -0.000079114564    -0.000013590799

  **** Optimization is complete! (in 4 steps) ****
    Final optimized geometry and variables:
    Molecular point group: c1

    Geometry (in Angstrom), charge = 0, multiplicity = 1:

    H           -3.267956634914     0.538668736305     0.459103423547
    C           -2.228951471406     0.323732868025     0.302860939923
    C           -1.799879584397    -0.983023764156     0.118407553332
    C           -1.300097074051     1.337929617221     0.281141475631
    H           -2.510596262388    -1.787542622324     0.131594753840
    C           -0.469451669181    -1.263270191723    -0.080561521079
    H           -1.613339105531     2.355492490569     0.419560198062
    C            0.047254168975     1.072549792939     0.079895830005
    H           -0.127424549786    -2.269394576339    -0.223462835000
    C            0.465025472843    -0.233324782178    -0.099505659474
    H            0.744639576775     1.884303218733     0.062047574529
    O            1.741319187524    -0.601706871276    -0.308996440813
    C            2.765373349728     0.342435676065    -0.213290443819
    H            2.729929361719     1.051516238631    -1.033205680279
    H            3.692008511017    -0.207187071157    -0.272508675702
    H            2.730602208085     0.874943684285     0.729729709068

  Mulliken Charges: (a.u.)
   Center  Symbol    Alpha    Beta     Spin     Total
       1     H     0.42442  0.42442  0.00000  0.15117
       2     C     3.10090  3.10090  0.00000 -0.20179
       3     C     3.05801  3.05801  0.00000 -0.11602
       4     C     3.06157  3.06157  0.00000 -0.12314
       5     H     0.42300  0.42300  0.00000  0.15401
       6     C     3.11145  3.11145  0.00000 -0.22290
       7     H     0.42359  0.42359  0.00000  0.15281
       8     C     3.14354  3.14354  0.00000 -0.28709
       9     H     0.42092  0.42092  0.00000  0.15816
      10     C     2.85059  2.85059  0.00000  0.29882
      11     H     0.42255  0.42255  0.00000  0.15491
      12     O     4.15116  4.15116  0.00000 -0.30231
      13     C     3.04474  3.04474  0.00000 -0.08948
      14     H     0.46148  0.46148  0.00000  0.07703
      15     H     0.43918  0.43918  0.00000  0.12164
      16     H     0.46290  0.46290  0.00000  0.07420

   Total alpha = 29.00000, Total beta = 29.00000, Total charge = -0.00000
