  ==> Input File <==

--------------------------------------------------------------------------
set {
	reference rhf
	basis 6-31G*
}

set_num_threads( 1 )
memory 2 gb

molecule MOL {
0 1

O	 3.225979	 0.970355	 -0.599647
C	 2.701189	 0.057885	 -0.047330
C	 1.245376	 -0.013843	 0.345420
O	 3.347903	 -1.046386	 0.304773
C	 0.455112	 1.231400	 -0.050772
H	 0.838542	 -0.913825	 -0.103701
H	 1.208210	 -0.175333	 1.419774
C	 -0.998893	 1.219485	 0.433193
H	 0.482531	 1.345121	 -1.130325
H	 0.957290	 2.103070	 0.354729
C	 -1.922010	 2.217274	 -0.272061
H	 -1.001009	 1.437510	 1.498643
H	 -1.407012	 0.215057	 0.330362
C	 -3.332406	 2.244326	 0.320434
H	 -1.486581	 3.213409	 -0.209333
H	 -1.990725	 1.980060	 -1.331297
C	 -4.265155	 3.234105	 -0.379885
H	 -3.273443	 2.494361	 1.378376
H	 -3.764315	 1.246137	 0.267778
C	 -5.670488	 3.257755	 0.220267
H	 -3.834577	 4.231935	 -0.329076
H	 -4.328801	 2.983177	 -1.436655
H	 -6.307686	 3.968349	 -0.297073
H	 -5.644163	 3.539778	 1.269059
H	 -6.141860	 2.281221	 0.153454
C	 4.728119	 -1.109107	 -0.004993
H	 4.882018	 -1.033965	 -1.071845
H	 5.068212	 -2.067527	 0.355250
H	 5.265056	 -0.311663	 0.488280

	symmetry c1
}
set optking {
	frozen_dihedral = ("
		21 17 14 11,
		17 14 11 15,
		15 11 8 5,
		6 3 5 9,
		2 4 26 27,
		1 2 4 26,
		6 3 2 1
	")
}

ee = energy('scf')
oeprop('DIPOLE', 'QUADRUPOLE', 'MULLIKEN_CHARGES')
f=open( 'psi4out.xyz', 'w' )
f.write( "29  " )
f.write( str(ee) + "\n" )
f.write( MOL.save_string_xyz() )
f.close()
--------------------------------------------------------------------------

    Molecular point group: c1

    Geometry (in Angstrom), charge = 0, multiplicity = 1:

       Center              X                  Y                   Z               Mass
    ------------   -----------------  -----------------  -----------------  -----------------
           O          3.227242177690    -0.127469753062    -0.622879440930    15.994914619560
           C          2.702452177690    -1.039939753062    -0.070562440930    12.000000000000
           C          1.246639177690    -1.111667753062     0.322187559070    12.000000000000
           O          3.349166177690    -2.144210753062     0.281540559070    15.994914619560
           C          0.456375177690     0.133575246938    -0.074004440930    12.000000000000
           H          0.839805177690    -2.011649753062    -0.126933440930     1.007825032070
           H          1.209473177690    -1.273157753062     1.396541559070     1.007825032070
           C         -0.997629822310     0.121660246938     0.409960559070    12.000000000000
           H          0.483794177690     0.247296246938    -1.153557440930     1.007825032070
           H          0.958553177690     1.005245246938     0.331496559070     1.007825032070
           C         -1.920746822310     1.119449246938    -0.295293440930    12.000000000000
           H         -0.999745822310     0.339685246938     1.475410559070     1.007825032070
           H         -1.405748822310    -0.882767753062     0.307129559070     1.007825032070
           C         -3.331142822310     1.146501246938     0.297201559070    12.000000000000
           H         -1.485317822310     2.115584246938    -0.232565440930     1.007825032070
           H         -1.989461822310     0.882235246938    -1.354529440930     1.007825032070
           C         -4.263891822310     2.136280246938    -0.403117440930    12.000000000000
           H         -3.272179822310     1.396536246938     1.355143559070     1.007825032070
           H         -3.763051822310     0.148312246938     0.244545559070     1.007825032070
           C         -5.669224822310     2.159930246938     0.197034559070    12.000000000000
           H         -3.833313822310     3.134110246938    -0.352308440930     1.007825032070
           H         -4.327537822310     1.885352246938    -1.459887440930     1.007825032070
           H         -6.306422822310     2.870524246938    -0.320305440930     1.007825032070
           H         -5.642899822310     2.441953246938     1.245826559070     1.007825032070
           H         -6.140596822310     1.183396246938     0.130221559070     1.007825032070
           C          4.729382177690    -2.206931753062    -0.028225440930    12.000000000000
           H          4.883281177690    -2.131789753062    -1.095077440930     1.007825032070
           H          5.069475177690    -3.165351753062     0.332017559070     1.007825032070
           H          5.266319177690    -1.409487753062     0.465047559070     1.007825032070

  Charge       = 0
  Multiplicity = 1
  Basis Set: 6-31G*
  Basis Set:

    Orbital Energies (a.u.)
    -----------------------

    Doubly Occupied:

       1A    -20.603622     2A    -20.545440     3A    -11.372343
       4A    -11.280851     5A    -11.235985     6A    -11.218757
       7A    -11.217330     8A    -11.214913     9A    -11.214708
      10A    -11.213335    11A    -11.208223    12A     -1.469329
      13A     -1.362749    14A     -1.096165    15A     -1.067216
      16A     -1.020288    17A     -0.977633    18A     -0.927229
      19A     -0.856374    20A     -0.800661    21A     -0.789936
      22A     -0.766702    23A     -0.697181    24A     -0.683470
      25A     -0.671711    26A     -0.656066    27A     -0.630136
      28A     -0.597696    29A     -0.592992    30A     -0.583710
      31A     -0.566035    32A     -0.550149    33A     -0.530204
      34A     -0.524896    35A     -0.515280    36A     -0.514719
      37A     -0.492193    38A     -0.478153    39A     -0.467716
      40A     -0.461559    41A     -0.460111    42A     -0.455276
      43A     -0.446891    44A     -0.432293

  @DF-RHF Final Energy:  -501.04412874684465

   => Energetics <=

    Nuclear Repulsion Energy =            601.2520953359488658
    One-Electron Energy =               -1873.6557027085696063
    Two-Electron Energy =                 771.3594786257759779
    DFT Exchange-Correlation Energy =       0.0000000000000000
    Empirical Dispersion Energy =           0.0000000000000000
    PCM Polarization Energy =               0.0000000000000000
    EFP Energy =                            0.0000000000000000
    Total Energy =                       -501.0441287468446490

  Mulliken Charges: (a.u.)
   Center  Symbol    Alpha    Beta     Spin     Total
       1     O     4.28583  4.28583  0.00000 -0.57166
       2     C     2.60497  2.60497  0.00000  0.79005
       3     C     3.20875  3.20875  0.00000 -0.41750
       4     O     4.30764  4.30764  0.00000 -0.61527
       5     C     3.15292  3.15292  0.00000 -0.30585
       6     H     0.40017  0.40017  0.00000  0.19965
       7     H     0.40071  0.40071  0.00000  0.19859
       8     C     3.15442  3.15442  0.00000 -0.30885
       9     H     0.41303  0.41303  0.00000  0.17395
      10     H     0.41021  0.41021  0.00000  0.17958
      11     C     3.15238  3.15238  0.00000 -0.30476
      12     H     0.42273  0.42273  0.00000  0.15455
      13     H     0.42452  0.42452  0.00000  0.15097
      14     C     3.15122  3.15122  0.00000 -0.30244
      15     H     0.42173  0.42173  0.00000  0.15653
      16     H     0.42224  0.42224  0.00000  0.15551
      17     C     3.15153  3.15153  0.00000 -0.30305
      18     H     0.42396  0.42396  0.00000  0.15207
      19     H     0.42421  0.42421  0.00000  0.15158
      20     C     3.23927  3.23927  0.00000 -0.47855
      21     H     0.42254  0.42254  0.00000  0.15491
      22     H     0.42296  0.42296  0.00000  0.15407
      23     H     0.41921  0.41921  0.00000  0.16158
      24     H     0.42185  0.42185  0.00000  0.15631
      25     H     0.42199  0.42199  0.00000  0.15602
      26     C     3.09243  3.09243  0.00000 -0.18487
      27     H     0.40904  0.40904  0.00000  0.18193
      28     H     0.40844  0.40844  0.00000  0.18311
      29     H     0.40909  0.40909  0.00000  0.18181

   Total alpha = 44.00000, Total beta = 44.00000, Total charge =  0.00000
