  ==> Input File <==

--------------------------------------------------------------------------
set {
	reference rhf
	basis 6-31G*
}

set_num_threads( 1 )
memory 2 gb

molecule MOL {
0 1

H	 -2.275378	 -0.305522	 -0.507417
O	 -1.422729	 -0.573567	 -0.196946
C	 -0.731407	 0.539437	 0.309156
C	 0.680193	 0.672443	 -0.251532
H	 -1.319765	 1.404033	 0.030086
H	 -0.700012	 0.506517	 1.397677
C	 1.599139	 -0.492137	 0.118598
H	 0.616402	 0.758534	 -1.332349
H	 1.107032	 1.602637	 0.117369
H	 1.239738	 -1.428634	 -0.297334
H	 2.601428	 -0.335055	 -0.265730
H	 1.674954	 -0.608418	 1.197020

	symmetry c1
}
set optking {
	frozen_dihedral = ("
		8 4 3 2
	")
}

ee = energy('scf')
oeprop('DIPOLE', 'QUADRUPOLE', 'MULLIKEN_CHARGES')
f=open( 'psi4out.xyz', 'w' )
f.write( "12  " )
f.write( str(ee) + "\n" )
f.write( MOL.save_string_xyz() )
f.close()
--------------------------------------------------------------------------

    Molecular point group: c1

    Geometry (in Angstrom), charge = 0, multiplicity = 1:

       Center              X                  Y                   Z               Mass
    ------------   -----------------  -----------------  -----------------  -----------------
           H         -2.255165877209    -0.323327042877    -0.495869848065     1.007825032070
           O         -1.402516877209    -0.591372042877    -0.185398848065    15.994914619560
           C         -0.711194877209     0.521631957123     0.320703151935    12.000000000000
           C          0.700405122791     0.654637957123    -0.239984848065    12.000000000000
           H         -1.299552877209     1.386227957123     0.041633151935     1.007825032070
           H         -0.679799877209     0.488711957123     1.409224151935     1.007825032070
           C          1.619351122791    -0.509942042877     0.130145151935    12.000000000000
           H          0.636614122791     0.740728957123    -1.320801848065     1.007825032070
           H          1.127244122791     1.584831957123     0.128916151935     1.007825032070
           H          1.259950122791    -1.446439042877    -0.285786848065     1.007825032070
           H          2.621640122791    -0.352860042877    -0.254182848065     1.007825032070
           H          1.695166122791    -0.626223042877     1.208567151935     1.007825032070

  Charge       = 0
  Multiplicity = 1
  Basis Set: 6-31G*
  Basis Set:

    Orbital Energies (a.u.)
    -----------------------

    Doubly Occupied:

       1A    -20.550753     2A    -11.268450     3A    -11.216098
       4A    -11.204495     5A     -1.359052     6A     -1.045979
       7A     -0.918041     8A     -0.802053     9A     -0.699801
      10A     -0.643028    11A     -0.594060    12A     -0.571124
      13A     -0.537562    14A     -0.504359    15A     -0.481523
      16A     -0.462486    17A     -0.428604

  @DF-RHF Final Energy:  -193.10701109514957

   => Energetics <=

    Nuclear Repulsion Energy =            132.4835644742287286
    One-Electron Energy =                -524.6061731966494790
    Two-Electron Energy =                 199.0155976272714042
    DFT Exchange-Correlation Energy =       0.0000000000000000
    Empirical Dispersion Energy =           0.0000000000000000
    PCM Polarization Energy =               0.0000000000000000
    EFP Energy =                            0.0000000000000000
    Total Energy =                       -193.1070110951493461

  Mulliken Charges: (a.u.)
   Center  Symbol    Alpha    Beta     Spin     Total
       1     H     0.27859  0.27859  0.00000  0.44283
       2     O     4.37296  4.37296  0.00000 -0.74591
       3     C     2.99368  2.99368  0.00000  0.01264
       4     C     3.15726  3.15726  0.00000 -0.31452
       5     H     0.43308  0.43308  0.00000  0.13384
       6     H     0.42698  0.42698  0.00000  0.14604
       7     C     3.24235  3.24235  0.00000 -0.48471
       8     H     0.41930  0.41930  0.00000  0.16141
       9     H     0.42385  0.42385  0.00000  0.15231
      10     H     0.40838  0.40838  0.00000  0.18325
      11     H     0.42068  0.42068  0.00000  0.15864
      12     H     0.42291  0.42291  0.00000  0.15418

   Total alpha = 17.00000, Total beta = 17.00000, Total charge = -0.00000
