                              Psi4 1.0.54 Driver

  ==> Input File <==

--------------------------------------------------------------------------
set {
	reference rhf
	basis cc-pvtz
}

set_num_threads( 4 )
memory 2 gb

molecule MOL {
0 1

O	 -2.374409	 1.338660	 -0.336961
C	 -2.104891	 0.204655	 -0.107126
C	 -0.881910	 -0.448129	 -0.720509
C	 -2.949910	 -0.638219	 0.818225
C	 -0.039328	 -1.153642	 0.349608
H	 -0.294894	 0.331355	 -1.189474
H	 -1.178123	 -1.158933	 -1.484630
C	 1.209780	 -1.809487	 -0.235286
H	 0.232164	 -0.424973	 1.102976
H	 -0.639447	 -1.910982	 0.848198
C	 2.058613	 -2.578232	 0.778825
H	 1.822310	 -1.048174	 -0.711928
H	 0.908072	 -2.494242	 -1.023123
C	 2.717409	 -1.709388	 1.847459
H	 2.833380	 -3.113134	 0.238527
H	 1.445512	 -3.337309	 1.257617
H	 3.332477	 -0.937437	 1.396491
H	 3.355907	 -2.307473	 2.487291
H	 1.987584	 -1.221367	 2.481865
H	 -3.440322	 -1.417144	 0.243099
H	 -3.694377	 -0.025850	 1.303346
H	 -2.331085	 -1.129829	 1.560495

	symmetry c1
}
set optking {
	frozen_dihedral = ("
		6 3 2 1
	")
}

ee,wfn = optimize('scf', return_wfn=True)
oeprop( wfn, 'DIPOLE', 'QUADRUPOLE', 'MULLIKEN_CHARGES')
f=open( 'psi4out.xyz', 'w' )
f.write( "22  " )
f.write( str(ee) + "\n" )
f.write( MOL.save_string_xyz() )
f.close()
--------------------------------------------------------------------------

    Molecular point group: c1
  Charge       = 0
  Multiplicity = 1
  Basis Set: CC-PVTZ
  Basis Set:
  @DF-RHF Final Energy:  -348.21987848648951
    Total Energy =                       -348.2198784864892787
    Molecular point group: c1
  Basis Set: CC-PVTZ
  Basis Set:
  Basis Set: CC-PVTZ
  Basis Set:
  @DF-RHF Final Energy:  -348.21866015167058
    Total Energy =                       -348.2186601516701785
  Basis Set: CC-PVTZ
  Basis Set:
  Basis Set: CC-PVTZ
  Basis Set:
  @DF-RHF Final Energy:  -348.22205252659762
    Total Energy =                       -348.2220525265977358
  Basis Set: CC-PVTZ
  Basis Set:
  Basis Set: CC-PVTZ
  Basis Set:
  @DF-RHF Final Energy:  -348.22129979465018
    Total Energy =                       -348.2212997946498945
  Basis Set: CC-PVTZ
  Basis Set:
  @DF-RHF Final Energy:  -348.22255150747282
    Total Energy =                       -348.2225515074727014
  @DF-RHF Final Energy:  -348.22244748287875
    Total Energy =                       -348.2224474828790335
  @DF-RHF Final Energy:  -348.22267608438921
    Total Energy =                       -348.2226760843893771
  Basis Set: CC-PVTZ
  Basis Set:
  @DF-RHF Final Energy:  -348.22271203524622
    Total Energy =                       -348.2227120352463885
  Basis Set: CC-PVTZ
  Basis Set:
  Basis Set: CC-PVTZ
  Basis Set:
  @DF-RHF Final Energy:  -348.22271315265635
    Total Energy =                       -348.2227131526564108
  Basis Set: CC-PVTZ
  Basis Set:
  Basis Set: CC-PVTZ
  Basis Set:
  @DF-RHF Final Energy:  -348.22272025368591
    Total Energy =                       -348.2227202536862478
  Basis Set: CC-PVTZ
  Basis Set:
  Charge       = 0
  Multiplicity = 1
  Basis Set: CC-PVTZ
  Basis Set:

    Orbital Energies (a.u.)
    -----------------------

    Doubly Occupied:

       1A    -20.536763     2A    -11.319372     3A    -11.229673
       4A    -11.228412     5A    -11.226220     6A    -11.222601
       7A    -11.221203     8A    -11.212491     9A     -1.396636
      10A     -1.100135    11A     -1.047169    12A     -0.997532
      13A     -0.941539    14A     -0.863499    15A     -0.789590
      16A     -0.733565    17A     -0.663742    18A     -0.647751
      19A     -0.634444    20A     -0.617296    21A     -0.606347
      22A     -0.585400    23A     -0.559420    24A     -0.541972
      25A     -0.534030    26A     -0.526626    27A     -0.500187
      28A     -0.488943    29A     -0.473538    30A     -0.470318
      31A     -0.465496    32A     -0.398735

  @DF-RHF Final Energy:  -348.22272081098589

   => Energetics <=

    Nuclear Repulsion Energy =            373.4005381380021049
    One-Electron Energy =               -1211.6852315029696001
    Two-Electron Energy =                 490.0619725539818887
    DFT Exchange-Correlation Energy =       0.0000000000000000
    Empirical Dispersion Energy =           0.0000000000000000
    PCM Polarization Energy =               0.0000000000000000
    EFP Energy =                            0.0000000000000000
    Total Energy =                       -348.2227208109856633
    Molecular point group: c1
  Basis Set: CC-PVTZ
  Basis Set:

  -Total Gradient:
     Atom            X                  Y                   Z
    ------   -----------------  -----------------  -----------------
       1       -0.000446872504    -0.000318634533    -0.000781330603
       2        0.000731031625     0.000547060546     0.001295304312
       3       -0.000653931305    -0.000422437630    -0.001292134343
       4        0.000044399510    -0.000000032601    -0.000051630047
       5       -0.000013495479     0.000021784195    -0.000026234041
       6        0.000438001978     0.000239107385     0.000803559942
       7       -0.000005570678    -0.000028691207    -0.000011389726
       8       -0.000001508475    -0.000016795973     0.000020232859
       9       -0.000016593814     0.000032426818     0.000022185823
      10       -0.000033075391    -0.000036781617     0.000005397733
      11        0.000007914379     0.000021748007    -0.000015500141
      12        0.000033059271     0.000026222803    -0.000013432623
      13       -0.000002516074    -0.000035434197    -0.000023424576
      14        0.000005457078    -0.000008546284     0.000009368580
      15        0.000029084441    -0.000018673147    -0.000021050253
      16       -0.000024392854    -0.000018480664     0.000006963661
      17        0.000022925270     0.000020657505    -0.000010217586
      18        0.000003421807    -0.000006857009     0.000005223605
      19       -0.000031379720     0.000021253869     0.000018919221
      20       -0.000015660334    -0.000089152801    -0.000019845810
      21       -0.000117863620     0.000058127272     0.000014480926
      22        0.000047564885     0.000012129264     0.000064553088

  **** Optimization is complete! (in 11 steps) ****
    Final optimized geometry and variables:
    Molecular point group: c1

    Geometry (in Angstrom), charge = 0, multiplicity = 1:

    O           -1.964615942362     2.164909577657    -1.066814509447
    C           -1.756333792227     1.071270268176    -0.651683623555
    C           -0.499823903031     0.316368522544    -1.039755136027
    C           -2.753638173287     0.379199672751     0.250304162534
    C            0.248775857571    -0.344702592786     0.120284790387
    H            0.144071208120     1.019853128837    -1.550136832501
    H           -0.793689177811    -0.443018424844    -1.761347851887
    C            1.545755747521    -1.007041192112    -0.341815016085
    H            0.463976717966     0.404824537534     0.874827445801
    H           -0.380181847793    -1.091834441597     0.594318162857
    C            2.307862518999    -1.753118706763     0.754496367845
    H            2.195215509030    -0.254287501754    -0.781392587109
    H            1.311792439432    -1.708119076212    -1.138374732867
    C            2.869890308793    -0.862726870914     1.860136518982
    H            3.128173565318    -2.292670787995     0.291711925801
    H            1.659483069753    -2.507460242482     1.192624123030
    H            3.516747640623    -0.093952366398     1.449942212595
    H            3.455282361944    -1.446019684479     2.561375117484
    H            2.086666790997    -0.369682419134     2.423436513437
    H           -2.933186207193    -0.638705311648    -0.076800071723
    H           -3.678497750290     0.935423306080     0.255328590450
    H           -2.362988757426     0.330927181628     1.260687766407

  Mulliken Charges: (a.u.)
   Center  Symbol    Alpha    Beta     Spin     Total
       1     O     4.17215  4.17215  0.00000 -0.34430
       2     C     2.85887  2.85887  0.00000  0.28226
       3     C     3.09600  3.09600  0.00000 -0.19199
       4     C     3.16551  3.16551  0.00000 -0.33102
       5     C     3.10993  3.10993  0.00000 -0.21986
       6     H     0.43814  0.43814  0.00000  0.12371
       7     H     0.44610  0.44610  0.00000  0.10780
       8     C     3.09711  3.09711  0.00000 -0.19422
       9     H     0.44412  0.44412  0.00000  0.11176
      10     H     0.45018  0.45018  0.00000  0.09964
      11     C     3.09028  3.09028  0.00000 -0.18055
      12     H     0.44913  0.44913  0.00000  0.10174
      13     H     0.44821  0.44821  0.00000  0.10358
      14     C     3.15206  3.15206  0.00000 -0.30411
      15     H     0.44693  0.44693  0.00000  0.10614
      16     H     0.45454  0.45454  0.00000  0.09093
      17     H     0.45331  0.45331  0.00000  0.09338
      18     H     0.44543  0.44543  0.00000  0.10915
      19     H     0.45426  0.45426  0.00000  0.09148
      20     H     0.44848  0.44848  0.00000  0.10304
      21     H     0.43198  0.43198  0.00000  0.13604
      22     H     0.44730  0.44730  0.00000  0.10541

   Total alpha = 32.00000, Total beta = 32.00000, Total charge =  0.00000

*** Psi4 exiting successfully. Buy a developer a beer!
