                              Psi4 1.0.54 Driver

  ==> Input File <==

--------------------------------------------------------------------------
set {
	reference rhf
	basis cc-pvtz
}

set_num_threads( 4 )
memory 2 gb

molecule MOL {
0 1

H	 -3.436473	 1.252944	 -1.023892
O	 -3.458596	 0.315260	 -0.960865
C	 -3.176635	 -0.080824	 0.355601
C	 -1.763371	 0.265266	 0.799691
H	 -3.321825	 -1.153438	 0.379502
H	 -3.895468	 0.357385	 1.043382
C	 -1.698802	 1.372955	 1.847154
H	 -1.284092	 -0.633388	 1.185148
H	 -1.195331	 0.557804	 -0.080161
C	 -0.276559	 1.684561	 2.305516
H	 -2.303435	 1.091880	 2.702332
H	 -2.150637	 2.273326	 1.437663
C	 -0.218512	 2.797454	 3.350096
H	 0.171607	 0.779054	 2.703128
H	 0.325491	 1.970728	 1.445574
C	 1.192008	 3.201896	 3.782192
H	 -0.788323	 2.496641	 4.226267
H	 -0.720328	 3.674436	 2.950467
C	 1.960823	 2.123414	 4.541760
H	 1.118215	 4.083640	 4.411364
H	 1.762672	 3.502141	 2.907197
H	 1.411041	 1.798947	 5.419563
H	 2.921508	 2.499004	 4.875316
H	 2.148792	 1.250587	 3.928208

	symmetry c1
}
set optking {
	frozen_dihedral = ("
		7 4 3 2
	")
}

ee,wfn = optimize('scf', return_wfn=True)
oeprop( wfn, 'DIPOLE', 'QUADRUPOLE', 'MULLIKEN_CHARGES')
f=open( 'psi4out.xyz', 'w' )
f.write( "24  " )
f.write( str(ee) + "\n" )
f.write( MOL.save_string_xyz() )
f.close()
--------------------------------------------------------------------------

    Molecular point group: c1
  Charge       = 0
  Multiplicity = 1
  Basis Set: CC-PVTZ
  Basis Set:
  @DF-RHF Final Energy:  -349.37457776744100
    Total Energy =                       -349.3745777674412238
    Molecular point group: c1
  Basis Set: CC-PVTZ
  Basis Set:
  Basis Set: CC-PVTZ
  Basis Set:
  @DF-RHF Final Energy:  -349.37484297413005
    Total Energy =                       -349.3748429741298196
  Basis Set: CC-PVTZ
  Basis Set:
  Basis Set: CC-PVTZ
  Basis Set:
  @DF-RHF Final Energy:  -349.37492812427246
    Total Energy =                       -349.3749281242724010
  Basis Set: CC-PVTZ
  Basis Set:
  Charge       = 0
  Multiplicity = 1
  Basis Set: CC-PVTZ
  Basis Set:

    Orbital Energies (a.u.)
    -----------------------

    Doubly Occupied:

       1A    -20.544860     2A    -11.264736     3A    -11.217489
       4A    -11.214836     5A    -11.213880     6A    -11.213219
       7A    -11.213042     8A    -11.207317     9A     -1.362010
      10A     -1.093494    11A     -1.050994    12A     -0.986795
      13A     -0.917132    14A     -0.853372    15A     -0.803108
      16A     -0.780293    17A     -0.690413    18A     -0.657659
      19A     -0.623669    20A     -0.615945    21A     -0.597806
      22A     -0.586757    23A     -0.559667    24A     -0.538328
      25A     -0.534416    26A     -0.507644    27A     -0.493209
      28A     -0.486014    29A     -0.474849    30A     -0.462576
      31A     -0.457229    32A     -0.443462    33A     -0.424617

  @DF-RHF Final Energy:  -349.37492891299905

   => Energetics <=

    Nuclear Repulsion Energy =            381.5813962898291720
    One-Electron Energy =               -1229.7309716822931023
    Two-Electron Energy =                 498.7746464794648773
    DFT Exchange-Correlation Energy =       0.0000000000000000
    Empirical Dispersion Energy =           0.0000000000000000
    PCM Polarization Energy =               0.0000000000000000
    EFP Energy =                            0.0000000000000000
    Total Energy =                       -349.3749289129990530
    Molecular point group: c1
  Basis Set: CC-PVTZ
  Basis Set:

  -Total Gradient:
     Atom            X                  Y                   Z
    ------   -----------------  -----------------  -----------------
       1        0.000013325060     0.000011407435     0.000026505891
       2        0.000713609944    -0.002219880479    -0.000801555775
       3       -0.001092752364     0.002379879473     0.001725722923
       4        0.000615896988     0.001323017160    -0.002573588366
       5        0.000011901960     0.000028596366    -0.000041409207
       6        0.000001082244    -0.000002745073     0.000012355981
       7       -0.000233925855    -0.001536802509     0.001620519131
       8       -0.000007807292     0.000052655771     0.000005056780
       9       -0.000021808404    -0.000014763231     0.000017603319
      10        0.000004757011    -0.000029269646     0.000017000846
      11       -0.000030213831    -0.000021506044     0.000007328262
      12       -0.000009343735    -0.000001326602     0.000007418898
      13        0.000008483142     0.000031709336    -0.000040657866
      14       -0.000002845528    -0.000016368893     0.000010881285
      15        0.000030470240     0.000000326383     0.000013362586
      16       -0.000002534298     0.000016557354    -0.000001886026
      17        0.000011937959    -0.000012458254    -0.000008472164
      18       -0.000022563931     0.000013439748    -0.000001004434
      19        0.000003231494    -0.000003800340    -0.000004743974
      20        0.000004891589     0.000003227839     0.000004761195
      21        0.000003424546     0.000004342393     0.000005705768
      22        0.000000735639     0.000003298354     0.000001410318
      23       -0.000000129254    -0.000001184614    -0.000002435601
      24        0.000000176671    -0.000008351927     0.000000120230

  **** Optimization is complete! (in 4 steps) ****
    Final optimized geometry and variables:
    Molecular point group: c1

    Geometry (in Angstrom), charge = 0, multiplicity = 1:

    H           -2.421295920184    -0.159237732081    -3.029831074503
    O           -2.451296736152    -1.096556051238    -2.965568703280
    C           -2.221777819502    -1.497215934898    -1.639110840045
    C           -0.801100545536    -1.188201296296    -1.142991388516
    H           -2.394977324647    -2.563860110873    -1.635379018025
    H           -2.959770765216    -1.051801224267    -0.976954768949
    C           -0.736048611502    -0.080121014605    -0.093602281112
    H           -0.364264517176    -2.088115563957    -0.721125340287
    H           -0.192852991776    -0.931216039199    -2.003247142824
    C            0.684333031937     0.236921062120     0.365265931015
    H           -1.335577049705    -0.369263852763     0.765990117611
    H           -1.194488738122     0.824460741546    -0.489822675363
    C            0.740427414315     1.341919992673     1.418409534321
    H            1.137750809509    -0.669983972491     0.752968860690
    H            1.280692760505     0.532043988045    -0.495154674555
    C            2.150905292825     1.752732588527     1.844831592423
    H            0.178835237486     1.030120907959     2.296218716203
    H            0.230039639614     2.218821986487     1.029175972439
    C            2.933202277394     0.672225276660     2.587531842665
    H            2.074717136446     2.627321967689     2.483579956287
    H            2.712754913177     2.066428410411     0.968947685025
    H            2.391952605314     0.333730889368     3.465341217760
    H            3.892832441240     1.052157316807     2.918916157713
    H            3.124432975773    -0.192225141642     1.963314055080

  Mulliken Charges: (a.u.)
   Center  Symbol    Alpha    Beta     Spin     Total
       1     H     0.39495  0.39495  0.00000  0.21010
       2     O     4.20215  4.20215  0.00000 -0.40431
       3     C     2.97249  2.97249  0.00000  0.05503
       4     C     3.10545  3.10545  0.00000 -0.21090
       5     H     0.45266  0.45266  0.00000  0.09468
       6     H     0.47046  0.47046  0.00000  0.05908
       7     C     3.09287  3.09287  0.00000 -0.18573
       8     H     0.45283  0.45283  0.00000  0.09433
       9     H     0.44722  0.44722  0.00000  0.10557
      10     C     3.09289  3.09289  0.00000 -0.18578
      11     H     0.45298  0.45298  0.00000  0.09404
      12     H     0.45815  0.45815  0.00000  0.08369
      13     C     3.09447  3.09447  0.00000 -0.18894
      14     H     0.45172  0.45172  0.00000  0.09656
      15     H     0.45373  0.45373  0.00000  0.09255
      16     C     3.09035  3.09035  0.00000 -0.18070
      17     H     0.45405  0.45405  0.00000  0.09191
      18     H     0.45017  0.45017  0.00000  0.09966
      19     C     3.15257  3.15257  0.00000 -0.30515
      20     H     0.44842  0.44842  0.00000  0.10315
      21     H     0.45470  0.45470  0.00000  0.09061
      22     H     0.45493  0.45493  0.00000  0.09014
      23     H     0.44622  0.44622  0.00000  0.10756
      24     H     0.45358  0.45358  0.00000  0.09284

   Total alpha = 33.00000, Total beta = 33.00000, Total charge = -0.00000

*** Psi4 exiting successfully. Buy a developer a beer!
