  ==> Input File <==

--------------------------------------------------------------------------
set {
	reference rhf
	basis cc-pvtz
}

set_num_threads( 4 )
memory 2 gb

molecule MOL {
0 1

O	 -0.492727	 0.104136	 0.664066
C	 0.485107	 0.171416	 -0.000134
C	 1.606966	 -0.836201	 0.000174
O	 0.724760	 1.158682	 -0.845390
C	 2.988788	 -0.202529	 -0.000115
H	 1.465110	 -1.474645	 -0.864821
H	 1.465209	 -1.474077	 0.865596
H	 3.131767	 0.419673	 -0.873407
H	 3.750876	 -0.972315	 0.000098
H	 3.131883	 0.420264	 0.872742
C	 -0.248151	 2.188064	 -0.955408
C	 0.251284	 3.188729	 -1.971145
H	 -0.390674	 2.644156	 0.014136
H	 -1.190297	 1.752656	 -1.257242
H	 1.195352	 3.617145	 -1.658788
H	 -0.469743	 3.990334	 -2.079692
H	 0.391117	 2.720611	 -2.937418

	symmetry c1
}
set optking {
	frozen_dihedral = ("
		4 2 3 6
	")
}

ee = optimize('scf')
oeprop('DIPOLE', 'QUADRUPOLE', 'MULLIKEN_CHARGES')
f=open( 'psi4out.xyz', 'w' )
f.write( "17  " )
f.write( str(ee) + "\n" )
f.write( MOL.save_string_xyz() )
f.close()
--------------------------------------------------------------------------

    Molecular point group: c1
  Charge       = 0
  Multiplicity = 1
  Basis Set: CC-PVTZ
  Basis Set:
  @DF-RHF Final Energy:  -345.03831758987496
    Total Energy =                       -345.0383175898746231
    Molecular point group: c1
  Basis Set: CC-PVTZ
  Basis Set:
  Basis Set: CC-PVTZ
  Basis Set:
  @DF-RHF Final Energy:  -345.03845219930832
    Total Energy =                       -345.0384521993081535
  Basis Set: CC-PVTZ
  Basis Set:
  Basis Set: CC-PVTZ
  Basis Set:
  @DF-RHF Final Energy:  -345.03865358094515
    Total Energy =                       -345.0386535809446400
  Basis Set: CC-PVTZ
  Basis Set:
  Basis Set: CC-PVTZ
  Basis Set:
  @DF-RHF Final Energy:  -345.03874169912774
    Total Energy =                       -345.0387416991280816
  Basis Set: CC-PVTZ
  Basis Set:
  Basis Set: CC-PVTZ
  Basis Set:
  @DF-RHF Final Energy:  -345.03874258584602
    Total Energy =                       -345.0387425858457391
  Basis Set: CC-PVTZ
  Basis Set:
  Charge       = 0
  Multiplicity = 1
  Basis Set: CC-PVTZ
  Basis Set:

    Orbital Energies (a.u.)
    -----------------------

    Doubly Occupied:

       1A    -20.594836     2A    -20.530686     3A    -11.363157
       4A    -11.283079     5A    -11.235635     6A    -11.221156
       7A    -11.220964     8A     -1.470804     9A     -1.363589
      10A     -1.073547    11A     -1.031094    12A     -0.907396
      13A     -0.859826    14A     -0.779917    15A     -0.694112
      16A     -0.680313    17A     -0.675545    18A     -0.626108
      19A     -0.586177    20A     -0.574623    21A     -0.553543
      22A     -0.547413    23A     -0.525027    24A     -0.512580
      25A     -0.506054    26A     -0.493845    27A     -0.455759
      28A     -0.434270

  @DF-RHF Final Energy:  -345.03874319355697

   => Energetics <=

    Nuclear Repulsion Energy =            317.8452601901072399
    One-Electron Energy =               -1100.1658964290525091
    Two-Electron Energy =                 437.2818930453884150
    DFT Exchange-Correlation Energy =       0.0000000000000000
    Empirical Dispersion Energy =           0.0000000000000000
    PCM Polarization Energy =               0.0000000000000000
    EFP Energy =                            0.0000000000000000
    Total Energy =                       -345.0387431935569111
    Molecular point group: c1
  Basis Set: CC-PVTZ
  Basis Set:

  -Total Gradient:
     Atom            X                  Y                   Z
    ------   -----------------  -----------------  -----------------
       1        0.000028647937     0.000029361493    -0.000042306655
       2       -0.000454361795    -0.000530837149    -0.000388777436
       3        0.000521928832     0.000579462170    -0.000280835970
       4        0.000217261022     0.000325963077     0.000351166331
       5        0.000000159990    -0.000010830113     0.000002456362
       6       -0.000357958348    -0.000390135367     0.000347102372
       7        0.000010440726    -0.000005421532    -0.000001693922
       8       -0.000003732309     0.000000440538     0.000005382807
       9        0.000012377934    -0.000000667578    -0.000000768010
      10       -0.000001248600    -0.000002511970    -0.000006457244
      11        0.000050875981     0.000010177109     0.000046393613
      12       -0.000011662693     0.000001353289    -0.000014184992
      13       -0.000011253550     0.000004968479    -0.000008242936
      14       -0.000003749705    -0.000010492053    -0.000005236087
      15       -0.000001390381    -0.000002882080     0.000003201757
      16        0.000000865056    -0.000000957894    -0.000001783151
      17        0.000002799902     0.000003009582    -0.000005416840

  **** Optimization is complete! (in 6 steps) ****
    Final optimized geometry and variables:
    Molecular point group: c1

    Geometry (in Angstrom), charge = 0, multiplicity = 1:

    O           -1.248277747583    -0.744226350704     1.097296894051
    C           -0.260615580517    -0.656138215733     0.449253634907
    C            0.852442568577    -1.675338601704     0.464738926975
    O           -0.029350298456     0.339293228010    -0.387416490757
    C            2.262558584548    -1.092723696870     0.452657094534
    H            0.703365252087    -2.308554573962    -0.404787495352
    H            0.690799998701    -2.292539318313     1.336388351148
    H            2.446142308398    -0.520263968480    -0.445296993917
    H            2.990865452338    -1.892587269316     0.502136309061
    H            2.424467513234    -0.443182744923     1.304974015355
    C           -1.025736212147     1.344644254911    -0.512232726490
    C           -0.534030928483     2.360755810873    -1.516318174845
    H           -1.196684259977     1.793279952907     0.455982700263
    H           -1.950850739475     0.886033667815    -0.831620728320
    H            0.392552409374     2.813168145992    -1.185856150777
    H           -1.273773767870     3.143490354189    -1.635844989398
    H           -0.364799804663     1.899543378595    -2.481247437072

  Mulliken Charges: (a.u.)
   Center  Symbol    Alpha    Beta     Spin     Total
       1     O     4.19994  4.19994  0.00000 -0.39987
       2     C     2.81048  2.81048  0.00000  0.37904
       3     C     3.08592  3.08592  0.00000 -0.17185
       4     O     4.15198  4.15198  0.00000 -0.30396
       5     C     3.14611  3.14611  0.00000 -0.29222
       6     H     0.44762  0.44762  0.00000  0.10476
       7     H     0.43558  0.43558  0.00000  0.12884
       8     H     0.44619  0.44619  0.00000  0.10762
       9     H     0.44855  0.44855  0.00000  0.10290
      10     H     0.45160  0.45160  0.00000  0.09681
      11     C     2.97783  2.97783  0.00000  0.04435
      12     C     3.13408  3.13408  0.00000 -0.26816
      13     H     0.45408  0.45408  0.00000  0.09184
      14     H     0.45351  0.45351  0.00000  0.09298
      15     H     0.45129  0.45129  0.00000  0.09742
      16     H     0.45369  0.45369  0.00000  0.09262
      17     H     0.45155  0.45155  0.00000  0.09689

   Total alpha = 28.00000, Total beta = 28.00000, Total charge =  0.00000
