  ==> Input File <==

--------------------------------------------------------------------------
set {
	reference rhf
	basis cc-pvtz
}

set_num_threads( 4 )
memory 2 gb

molecule MOL {
0 1

H	 1.275543	 0.239760	 -0.990397
C	 0.848385	 0.440008	 0.000011
C	 -0.623497	 0.751021	 0.000090
O	 1.534662	 0.401791	 0.961680
C	 -1.523725	 -0.474323	 -0.000013
H	 -0.813143	 1.382932	 -0.864897
H	 -0.813071	 1.382716	 0.865253
H	 -1.342980	 -1.087348	 -0.873016
H	 -2.565269	 -0.177464	 0.000070
H	 -1.342898	 -1.087564	 0.872820

	symmetry c1
}
set optking {
	frozen_dihedral = ("
		4 2 3 6
	")
}

ee = optimize('scf')
oeprop('DIPOLE', 'QUADRUPOLE', 'MULLIKEN_CHARGES')
f=open( 'psi4out.xyz', 'w' )
f.write( "10  " )
f.write( str(ee) + "\n" )
f.write( MOL.save_string_xyz() )
f.close()
--------------------------------------------------------------------------

    Molecular point group: c1
  Charge       = 0
  Multiplicity = 1
  Basis Set: CC-PVTZ
  Basis Set:
  @DF-RHF Final Energy:  -192.02161715136128
    Total Energy =                       -192.0216171513611698
    Molecular point group: c1
  Basis Set: CC-PVTZ
  Basis Set:
  Basis Set: CC-PVTZ
  Basis Set:
  @DF-RHF Final Energy:  -192.02256749156749
    Total Energy =                       -192.0225674915676564
  Basis Set: CC-PVTZ
  Basis Set:
  Basis Set: CC-PVTZ
  Basis Set:
  @DF-RHF Final Energy:  -192.02030979364059
    Total Energy =                       -192.0203097936406493
  Basis Set: CC-PVTZ
  Basis Set:
  Basis Set: CC-PVTZ
  Basis Set:
  @DF-RHF Final Energy:  -192.02278295341006
    Total Energy =                       -192.0227829534101716
  Basis Set: CC-PVTZ
  Basis Set:
  Charge       = 0
  Multiplicity = 1
  Basis Set: CC-PVTZ
  Basis Set:

    Orbital Energies (a.u.)
    -----------------------

    Doubly Occupied:

       1A    -20.553459     2A    -11.322659     3A    -11.237828
       4A    -11.232243     5A     -1.408374     6A     -1.066981
       7A     -0.904985     8A     -0.791700     9A     -0.682326
      10A     -0.643747    11A     -0.609086    12A     -0.576190
      13A     -0.543537    14A     -0.512303    15A     -0.500321
      16A     -0.414677

  @DF-RHF Final Energy:  -192.02280312969327

   => Energetics <=

    Nuclear Repulsion Energy =            118.1170512379886759
    One-Electron Energy =                -494.2788758024196341
    Two-Electron Energy =                 184.1390214347377423
    DFT Exchange-Correlation Energy =       0.0000000000000000
    Empirical Dispersion Energy =           0.0000000000000000
    PCM Polarization Energy =               0.0000000000000000
    EFP Energy =                            0.0000000000000000
    Total Energy =                       -192.0228031296932159
    Molecular point group: c1
  Basis Set: CC-PVTZ
  Basis Set:

  -Total Gradient:
     Atom            X                  Y                   Z
    ------   -----------------  -----------------  -----------------
       1        0.000004259131     0.000016297347     0.000026174764
       2        0.000360368121     0.001536525227    -0.000815779873
       3        0.000068423574     0.000849380131     0.001088094998
       4       -0.000348596903    -0.001222204385     0.000405438632
       5        0.000169309951     0.000050675934    -0.000063470876
       6       -0.000213382496    -0.001170116383    -0.000640612975
       7        0.000065145084    -0.000043935178     0.000003460007
       8       -0.000040998611    -0.000034715419     0.000003274358
       9       -0.000059689637     0.000021642731    -0.000005745723
      10       -0.000004838214    -0.000003550006    -0.000000833311

  **** Optimization is complete! (in 5 steps) ****
    Final optimized geometry and variables:
    Molecular point group: c1

    Geometry (in Angstrom), charge = 0, multiplicity = 1:

    H            1.167583296926    -0.151175457635    -1.230055795628
    C            0.773299886395     0.149432764765    -0.250694163607
    C           -0.685418898985     0.517654948900    -0.226293619147
    O            1.473581771573     0.129008657113     0.701656646694
    C           -1.552955029584    -0.745389515079    -0.252825303836
    H           -0.906978144530     1.120550638424    -1.101166101480
    H           -0.881586504958     1.099148050796     0.663954833894
    H           -1.342480552841    -1.351306484372    -1.127387280597
    H           -2.602214067332    -0.481238580477    -0.278498676640
    H           -1.376750464985    -1.351113039331     0.627112250878

  Mulliken Charges: (a.u.)
   Center  Symbol    Alpha    Beta     Spin     Total
       1     H     0.46344  0.46344  0.00000  0.07313
       2     C     2.90192  2.90192  0.00000  0.19616
       3     C     3.08034  3.08034  0.00000 -0.16069
       4     O     4.16611  4.16611  0.00000 -0.33223
       5     C     3.14848  3.14848  0.00000 -0.29697
       6     H     0.45245  0.45245  0.00000  0.09510
       7     H     0.44253  0.44253  0.00000  0.11494
       8     H     0.45390  0.45390  0.00000  0.09220
       9     H     0.44555  0.44555  0.00000  0.10890
      10     H     0.44528  0.44528  0.00000  0.10945

   Total alpha = 16.00000, Total beta = 16.00000, Total charge = -0.00000
