  ==> Input File <==

--------------------------------------------------------------------------
set {
	reference rhf
	basis 6-31G*
}

set_num_threads( 4 )
memory 2 gb

molecule MOL {
0 1

H	 2.332609	 0.878551	 -1.051851
C	 2.357710	 0.000000	 -0.417167
C	 1.175432	 0.000000	 0.532082
H	 3.291263	 0.000000	 0.136880
H	 2.332609	 -0.878551	 -1.051851
O	 0.000000	 0.000000	 -0.221444
H	 1.206604	 0.877321	 1.177902
H	 1.206604	 -0.877321	 1.177902
C	 -1.175432	 0.000000	 0.532082
C	 -1.703584	 -1.419454	 0.603209
H	 -1.914036	 0.657809	 0.074372
H	 -0.978769	 0.382919	 1.533303
H	 -1.909749	 -1.796158	 -0.392229
H	 -2.620117	 -1.456388	 1.183806
H	 -0.973171	 -2.071433	 1.068748

	symmetry c1
}
set optking {
	frozen_dihedral = ("
		11 9 6 3
	")
}

ee = optimize('scf')
oeprop('DIPOLE', 'QUADRUPOLE', 'MULLIKEN_CHARGES')
f=open( 'psi4out.xyz', 'w' )
f.write( "15  " )
f.write( str(ee) + "\n" )
f.write( MOL.save_string_xyz() )
f.close()
--------------------------------------------------------------------------

    Molecular point group: c1
  Charge       = 0
  Multiplicity = 1
  Basis Set: 6-31G*
  Basis Set:
  @DF-RHF Final Energy:  -232.14053748591195
    Total Energy =                       -232.1405374859122048
    Molecular point group: c1
  Basis Set: 6-31G*
  Basis Set:
  Basis Set: 6-31G*
  Basis Set:
  @DF-RHF Final Energy:  -232.14135945422103
    Total Energy =                       -232.1413594542211740
  Basis Set: 6-31G*
  Basis Set:
  Basis Set: 6-31G*
  Basis Set:
  @DF-RHF Final Energy:  -232.14153377444987
    Total Energy =                       -232.1415337744497833
  Basis Set: 6-31G*
  Basis Set:
  Basis Set: 6-31G*
  Basis Set:
  @DF-RHF Final Energy:  -232.14153556340494
    Total Energy =                       -232.1415355634048865
  Basis Set: 6-31G*
  Basis Set:
  Charge       = 0
  Multiplicity = 1
  Basis Set: 6-31G*
  Basis Set:

    Orbital Energies (a.u.)
    -----------------------

    Doubly Occupied:

       1A    -20.548710     2A    -11.268680     3A    -11.267884
       4A    -11.209646     5A    -11.208519     6A     -1.373601
       7A     -1.041306     8A     -0.984611     9A     -0.856913
      10A     -0.818567    11A     -0.670784    12A     -0.653228
      13A     -0.637451    14A     -0.571912    15A     -0.552790
      16A     -0.541568    17A     -0.523043    18A     -0.501383
      19A     -0.486830    20A     -0.459640    21A     -0.405583

  @DF-RHF Final Energy:  -232.14153573749564

   => Energetics <=

    Nuclear Repulsion Energy =            192.0826838789599265
    One-Electron Energy =                -695.2831437615011509
    Two-Electron Energy =                 271.0589241450454665
    DFT Exchange-Correlation Energy =       0.0000000000000000
    Empirical Dispersion Energy =           0.0000000000000000
    PCM Polarization Energy =               0.0000000000000000
    EFP Energy =                            0.0000000000000000
    Total Energy =                       -232.1415357374957580
    Molecular point group: c1
  Basis Set: 6-31G*
  Basis Set:

  -Total Gradient:
     Atom            X                  Y                   Z
    ------   -----------------  -----------------  -----------------
       1        0.000000682914     0.000000266593    -0.000000285047
       2        0.000000417369     0.000003182802     0.000004831500
       3       -0.000025052387     0.001161869376     0.000039137075
       4        0.000002012894     0.000001352853    -0.000001281073
       5       -0.000002909891     0.000000238730     0.000003028316
       6        0.000131904806    -0.001433314889     0.000121141239
       7        0.000003208792     0.000000135945    -0.000000732083
       8        0.000002915631     0.000000090032     0.000002677233
       9       -0.000578721541    -0.000801798120    -0.000986226293
      10       -0.000005043006    -0.000010222271     0.000005084167
      11        0.000462044762     0.001070448367     0.000808181840
      12        0.000009097834     0.000000074794     0.000002945525
      13        0.000005384819     0.000006341209     0.000002670117
      14       -0.000003640999    -0.000003203971     0.000002400804
      15       -0.000002301998     0.000004538549    -0.000003573320

  **** Optimization is complete! (in 5 steps) ****
    Final optimized geometry and variables:
    Molecular point group: c1

    Geometry (in Angstrom), charge = 0, multiplicity = 1:

    H            2.193588649922     1.171485136130    -1.281329901253
    C            2.232538379751     0.297748539374    -0.640692682488
    C            1.064855313752     0.301322296341     0.326220195667
    H            3.174596204388     0.305547994664    -0.100976022115
    H            2.200972433037    -0.585487015378    -1.268585515150
    O           -0.121043748632     0.305768840425    -0.414161204195
    H            1.106950507900     1.180728241234     0.967356887204
    H            1.110330122731    -0.573442838896     0.973533055813
    C           -1.308301706443     0.261547423194     0.329744202076
    C           -1.876123591311    -1.148019156338     0.394212992534
    H           -2.011097917718     0.932145959635    -0.151690517879
    H           -1.139903867067     0.647340077721     1.332961877408
    H           -2.059551572172    -1.524463699280    -0.605928785095
    H           -2.813155428063    -1.159355100455     0.943661636789
    H           -1.186772337742    -1.825238894666     0.888371880020

  Mulliken Charges: (a.u.)
   Center  Symbol    Alpha    Beta     Spin     Total
       1     H     0.41305  0.41305  0.00000  0.17390
       2     C     3.24413  3.24413  0.00000 -0.48825
       3     C     2.98882  2.98882  0.00000  0.02236
       4     H     0.42281  0.42281  0.00000  0.15437
       5     H     0.41365  0.41365  0.00000  0.17269
       6     O     4.31134  4.31134  0.00000 -0.62268
       7     H     0.43103  0.43103  0.00000  0.13793
       8     H     0.43290  0.43290  0.00000  0.13420
       9     C     2.99238  2.99238  0.00000  0.01524
      10     C     3.24474  3.24474  0.00000 -0.48947
      11     H     0.41771  0.41771  0.00000  0.16459
      12     H     0.43132  0.43132  0.00000  0.13736
      13     H     0.41289  0.41289  0.00000  0.17423
      14     H     0.42351  0.42351  0.00000  0.15298
      15     H     0.41972  0.41972  0.00000  0.16056

   Total alpha = 21.00000, Total beta = 21.00000, Total charge = -0.00000
