  ==> Input File <==

--------------------------------------------------------------------------
set {
	reference rhf
	basis 6-31G*
}

set_num_threads( 4 )
memory 2 gb

molecule MOL {
0 1

H	 -1.649622	 -0.252445	 -3.389514
C	 -2.312077	 -0.433430	 -2.533932
C	 -1.826887	 -1.478919	 -1.562257
O	 -3.327171	 0.174497	 -2.425494
C	 -0.391308	 -1.218213	 -1.085392
H	 -2.521293	 -1.522077	 -0.731206
H	 -1.864194	 -2.437353	 -2.078657
C	 -0.252658	 0.041456	 -0.226725
H	 -0.055650	 -2.080744	 -0.517362
H	 0.269042	 -1.148736	 -1.948450
C	 1.180775	 0.282413	 0.250794
H	 -0.913352	 -0.040002	 0.633911
H	 -0.594504	 0.909581	 -0.787118
C	 2.148627	 -0.814315	 -0.201312
H	 1.516199	 1.249228	 -0.115937
H	 1.192670	 0.346017	 1.338083
C	 3.580890	 -0.659131	 0.322722
H	 2.166869	 -0.852443	 -1.289387
H	 1.762857	 -1.776509	 0.128956
C	 4.324889	 0.564933	 -0.213704
H	 4.142010	 -1.551473	 0.056605
H	 3.564836	 -0.624694	 1.410140
H	 4.342616	 0.565491	 -1.300421
H	 3.866655	 1.493402	 0.110242
H	 5.353900	 0.572371	 0.132816

	symmetry c1
}
set optking {
	frozen_dihedral = ("
		12 8 11 14
	")
}

ee = optimize('scf')
oeprop('DIPOLE', 'QUADRUPOLE', 'MULLIKEN_CHARGES')
f=open( 'psi4out.xyz', 'w' )
f.write( "25  " )
f.write( str(ee) + "\n" )
f.write( MOL.save_string_xyz() )
f.close()
--------------------------------------------------------------------------

    Molecular point group: c1
  Charge       = 0
  Multiplicity = 1
  Basis Set: 6-31G*
  Basis Set:
  @DF-RHF Final Energy:  -387.10605467853270
    Total Energy =                       -387.1060546785330416
    Molecular point group: c1
  Basis Set: 6-31G*
  Basis Set:
  Basis Set: 6-31G*
  Basis Set:
  @DF-RHF Final Energy:  -387.10544834657492
    Total Energy =                       -387.1054483465742351
  Basis Set: 6-31G*
  Basis Set:
  Basis Set: 6-31G*
  Basis Set:
  @DF-RHF Final Energy:  -387.11060957988462
    Total Energy =                       -387.1106095798847946
  Basis Set: 6-31G*
  Basis Set:
  Basis Set: 6-31G*
  Basis Set:
  @DF-RHF Final Energy:  -387.11153934651088
    Total Energy =                       -387.1115393465104262
  Basis Set: 6-31G*
  Basis Set:
  @DF-RHF Final Energy:  -387.11157687741979
    Total Energy =                       -387.1115768774196795
  @DF-RHF Final Energy:  -387.11149154684506
    Total Energy =                       -387.1114915468451727
  @DF-RHF Final Energy:  -387.11170917835739
    Total Energy =                       -387.1117091783567048
  @DF-RHF Final Energy:  -387.11170409483714
    Total Energy =                       -387.1117040948367958
  @DF-RHF Final Energy:  -387.11169826047905
    Total Energy =                       -387.1116982604792156
  @DF-RHF Final Energy:  -387.11171191457873
    Total Energy =                       -387.1117119145786774
  Basis Set: 6-31G*
  Basis Set:
  @DF-RHF Final Energy:  -387.11171242464997
    Total Energy =                       -387.1117124246501362
  Basis Set: 6-31G*
  Basis Set:
  Basis Set: 6-31G*
  Basis Set:
  @DF-RHF Final Energy:  -387.11171752608317
    Total Energy =                       -387.1117175260835666
  Basis Set: 6-31G*
  Basis Set:
  Basis Set: 6-31G*
  Basis Set:
  @DF-RHF Final Energy:  -387.11171875274351
    Total Energy =                       -387.1117187527431724
  Basis Set: 6-31G*
  Basis Set:
  Charge       = 0
  Multiplicity = 1
  Basis Set: 6-31G*
  Basis Set:

    Orbital Energies (a.u.)
    -----------------------

    Doubly Occupied:

       1A    -20.561776     2A    -11.326016     3A    -11.234872
       4A    -11.234290     5A    -11.224832     6A    -11.220372
       7A    -11.219619     8A    -11.219014     9A    -11.211483
      10A     -1.401756    11A     -1.101780    12A     -1.069098
      13A     -1.009647    14A     -0.940502    15A     -0.885712
      16A     -0.824430    17A     -0.793166    18A     -0.765942
      19A     -0.662615    20A     -0.660169    21A     -0.631710
      22A     -0.628475    23A     -0.603174    24A     -0.587751
      25A     -0.583193    26A     -0.547685    27A     -0.541836
      28A     -0.524306    29A     -0.514828    30A     -0.502289
      31A     -0.485170    32A     -0.478937    33A     -0.453463
      34A     -0.451549    35A     -0.447351    36A     -0.408948

  @DF-RHF Final Energy:  -387.11171912587622

   => Energetics <=

    Nuclear Repulsion Energy =            443.4989369882720212
    One-Electron Energy =               -1403.3057965397563294
    Two-Electron Energy =                 572.6951404256076330
    DFT Exchange-Correlation Energy =       0.0000000000000000
    Empirical Dispersion Energy =           0.0000000000000000
    PCM Polarization Energy =               0.0000000000000000
    EFP Energy =                            0.0000000000000000
    Total Energy =                       -387.1117191258766752
    Molecular point group: c1
  Basis Set: 6-31G*
  Basis Set:

  -Total Gradient:
     Atom            X                  Y                   Z
    ------   -----------------  -----------------  -----------------
       1       -0.000000981518    -0.000001627310    -0.000000375718
       2       -0.000000781256    -0.000005032205     0.000000723310
       3       -0.000015132843    -0.000004716750    -0.000006121782
       4        0.000000951412     0.000007478548     0.000001014514
       5        0.000004350273    -0.000002302557     0.000006567228
       6        0.000001763025     0.000000368187     0.000000985774
       7        0.000008852442     0.000003506677     0.000000657700
       8        0.000241096882    -0.001018923317    -0.000228647392
       9       -0.000001403120    -0.000000470942    -0.000000665536
      10        0.000001847472     0.000001319900    -0.000000552027
      11       -0.000243363607    -0.000304706003     0.000897870269
      12       -0.000144862204     0.000968370340    -0.000049190192
      13        0.000002824634    -0.000000897265     0.000000398346
      14        0.000150774910     0.000355975244    -0.000613746051
      15        0.000000249684     0.000000575759     0.000000717067
      16       -0.000003224275    -0.000003009392     0.000000241008
      17        0.000000374789     0.000000755603    -0.000007768724
      18       -0.000004434875     0.000000237414    -0.000004034217
      19        0.000007366815     0.000002355383     0.000001464563
      20       -0.000000256288     0.000001259376     0.000002378837
      21       -0.000001309449    -0.000002199355    -0.000000562833
      22       -0.000002931410     0.000001582485    -0.000001799594
      23       -0.000001466417    -0.000000727035     0.000000429672
      24       -0.000001408932     0.000000970966     0.000000643505
      25        0.000001103869    -0.000000143753    -0.000000627728

  **** Optimization is complete! (in 14 steps) ****
    Final optimized geometry and variables:
    Molecular point group: c1

    Geometry (in Angstrom), charge = 0, multiplicity = 1:

    H           -2.106559038915     0.163975241867    -2.536087164838
    C           -2.747229570143     0.026982452955    -1.655897099814
    C           -2.308195229694    -1.063599176803    -0.712014593613
    O           -3.710487460092     0.706631888862    -1.507326690973
    C           -0.833788301764    -0.935134348470    -0.301926335040
    H           -2.965326896193    -1.054819321330     0.149968607948
    H           -2.452408747024    -2.010406572137    -1.231149632101
    C           -0.576472051550     0.302830100693     0.566221051090
    H           -0.552634530869    -1.835595301284     0.232563660003
    H           -0.218043606741    -0.906921253583    -1.197499476542
    C            0.881843340038     0.547271122557     1.049992999614
    H           -1.231850186780     0.247558221708     1.430883743750
    H           -0.908322806722     1.180565432679     0.017828149077
    C            1.931089100445    -0.509085083732     0.680031174834
    H            1.209905141617     1.507931431237     0.667884000718
    H            0.875986855893     0.648980027947     2.131922834882
    C            3.323366964485    -0.219586520959     1.255920381770
    H            2.010725743854    -0.597236493610    -0.400993625142
    H            1.612794585614    -1.481976698511     1.044561498984
    C            4.010164114672     1.020679283007     0.680624936091
    H            3.955718745973    -1.083931204612     1.068549614247
    H            3.252912533527    -0.125114730116     2.337596272699
    H            4.077750731182     0.962126523837    -0.402501616987
    H            3.481288529077     1.934101787098     0.930593643480
    H            5.019794140144     1.114409238344     1.068440079545

  Mulliken Charges: (a.u.)
   Center  Symbol    Alpha    Beta     Spin     Total
       1     H     0.43275  0.43275  0.00000  0.13451
       2     C     2.83097  2.83097  0.00000  0.33807
       3     C     3.20834  3.20834  0.00000 -0.41668
       4     O     4.23794  4.23794  0.00000 -0.47589
       5     C     3.16866  3.16866  0.00000 -0.33733
       6     H     0.39985  0.39985  0.00000  0.20031
       7     H     0.40625  0.40625  0.00000  0.18751
       8     C     3.15954  3.15954  0.00000 -0.31908
       9     H     0.41150  0.41150  0.00000  0.17699
      10     H     0.41849  0.41849  0.00000  0.16302
      11     C     3.15845  3.15845  0.00000 -0.31691
      12     H     0.41587  0.41587  0.00000  0.16826
      13     H     0.41630  0.41630  0.00000  0.16740
      14     C     3.15615  3.15615  0.00000 -0.31230
      15     H     0.41687  0.41687  0.00000  0.16626
      16     H     0.41926  0.41926  0.00000  0.16149
      17     C     3.15252  3.15252  0.00000 -0.30504
      18     H     0.42382  0.42382  0.00000  0.15236
      19     H     0.42163  0.42163  0.00000  0.15673
      20     C     3.24166  3.24166  0.00000 -0.48333
      21     H     0.42043  0.42043  0.00000  0.15914
      22     H     0.42260  0.42260  0.00000  0.15479
      23     H     0.42240  0.42240  0.00000  0.15520
      24     H     0.41938  0.41938  0.00000  0.16123
      25     H     0.41837  0.41837  0.00000  0.16327

   Total alpha = 36.00000, Total beta = 36.00000, Total charge =  0.00000
