  ==> Input File <==

--------------------------------------------------------------------------
set {
	reference rhf
	basis 6-31G*
}

set_num_threads( 4 )
memory 2 gb

molecule MOL {
0 1

H	 -1.836216	 1.387520	 -0.000064
C	 -1.301823	 0.443321	 -0.000031
O	 -0.003969	 0.658512	 0.000451
O	 -1.829879	 -0.616434	 -0.000857
C	 0.847445	 -0.465591	 -0.220172
C	 2.276214	 0.031306	 -0.175094
H	 0.604569	 -0.904084	 -1.178323
H	 0.654635	 -1.204989	 0.544948
H	 2.448823	 0.776740	 -0.942928
H	 2.958870	 -0.795846	 -0.339512
H	 2.499292	 0.474416	 0.788637

	symmetry c1
}
set optking {
	frozen_dihedral = ("
		5 3 2 4
	")
}

ee = optimize('scf')
oeprop('DIPOLE', 'QUADRUPOLE', 'MULLIKEN_CHARGES')
f=open( 'psi4out.xyz', 'w' )
f.write( "11  " )
f.write( str(ee) + "\n" )
f.write( MOL.save_string_xyz() )
f.close()
--------------------------------------------------------------------------

    Molecular point group: c1
  Charge       = 0
  Multiplicity = 1
  Basis Set: 6-31G*
  Basis Set:
  @DF-RHF Final Energy:  -266.82831722434685
    Total Energy =                       -266.8283172243467334
    Molecular point group: c1
  Basis Set: 6-31G*
  Basis Set:
  Basis Set: 6-31G*
  Basis Set:
  @DF-RHF Final Energy:  -266.82612503798515
    Total Energy =                       -266.8261250379851504
  Basis Set: 6-31G*
  Basis Set:
  Basis Set: 6-31G*
  Basis Set:
  @DF-RHF Final Energy:  -266.82838049227007
    Total Energy =                       -266.8283804922698437
  Basis Set: 6-31G*
  Basis Set:
  Basis Set: 6-31G*
  Basis Set:
  @DF-RHF Final Energy:  -266.82840422053528
    Total Energy =                       -266.8284042205351625
  Basis Set: 6-31G*
  Basis Set:
  Charge       = 0
  Multiplicity = 1
  Basis Set: 6-31G*
  Basis Set:

    Orbital Energies (a.u.)
    -----------------------

    Doubly Occupied:

       1A    -20.612410     2A    -20.557348     3A    -11.378415
       4A    -11.292120     5A    -11.226883     6A     -1.476149
       7A     -1.374060     8A     -1.052751     9A     -0.902354
      10A     -0.805932    11A     -0.737483    12A     -0.690399
      13A     -0.677745    14A     -0.592167    15A     -0.574843
      16A     -0.557205    17A     -0.517779    18A     -0.515155
      19A     -0.460086    20A     -0.454327

  @DF-RHF Final Energy:  -266.82840791076489

   => Energetics <=

    Nuclear Repulsion Energy =            179.2638830269668517
    One-Electron Energy =                -719.2733574936887635
    Two-Electron Energy =                 273.1810665559571589
    DFT Exchange-Correlation Energy =       0.0000000000000000
    Empirical Dispersion Energy =           0.0000000000000000
    PCM Polarization Energy =               0.0000000000000000
    EFP Energy =                            0.0000000000000000
    Total Energy =                       -266.8284079107647813
    Molecular point group: c1
  Basis Set: 6-31G*
  Basis Set:

  -Total Gradient:
     Atom            X                  Y                   Z
    ------   -----------------  -----------------  -----------------
       1        0.000088678614     0.000022508572    -0.000011006327
       2        0.000191054653     0.000517140508    -0.007010048117
       3       -0.000209558518    -0.000979397990     0.006057912181
       4       -0.000003826101    -0.000158936776     0.003698980846
       5       -0.000014211834     0.000536890203    -0.002725610228
       6       -0.000013474363     0.000040811168    -0.000019621297
       7       -0.000006121509     0.000027209982     0.000000743819
       8       -0.000025307652    -0.000007987160     0.000016311821
       9        0.000018636768     0.000010578686    -0.000002739423
      10       -0.000017961602    -0.000003606692    -0.000000961417
      11       -0.000007908452    -0.000005210498    -0.000003961857

  **** Optimization is complete! (in 5 steps) ****
    Final optimized geometry and variables:
    Molecular point group: c1

    Geometry (in Angstrom), charge = 0, multiplicity = 1:

    H           -1.830006249592     1.384748525567     0.113843332065
    C           -1.300211799303     0.439039383327     0.068572410182
    O           -0.001384725427     0.644774899287     0.120209634913
    O           -1.833572346757    -0.616530842964     0.014296376256
    C            0.850823617868    -0.477135851870    -0.109050848633
    C            2.277986725121     0.026155432232    -0.092506896815
    H            0.592163195331    -0.920475553114    -1.061064857749
    H            0.676570782973    -1.214480977001     0.662248102087
    H            2.433653949890     0.768160018888    -0.867158421735
    H            2.961174961900    -0.799150196794    -0.264099692337
    H            2.515734099662     0.475124386062     0.864957136267

  Mulliken Charges: (a.u.)
   Center  Symbol    Alpha    Beta     Spin     Total
       1     H     0.41051  0.41051  0.00000  0.17897
       2     C     2.72771  2.72771  0.00000  0.54458
       3     O     4.29141  4.29141  0.00000 -0.58283
       4     O     4.26248  4.26248  0.00000 -0.52496
       5     C     3.00629  3.00629  0.00000 -0.01258
       6     C     3.24937  3.24937  0.00000 -0.49875
       7     H     0.40938  0.40938  0.00000  0.18125
       8     H     0.40709  0.40709  0.00000  0.18582
       9     H     0.41075  0.41075  0.00000  0.17850
      10     H     0.41504  0.41504  0.00000  0.16992
      11     H     0.40996  0.40996  0.00000  0.18008

   Total alpha = 20.00000, Total beta = 20.00000, Total charge =  0.00000
