  ==> Input File <==

--------------------------------------------------------------------------
set {
	reference rhf
	basis cc-pvtz
}

set_num_threads( 4 )
memory 2 gb

molecule MOL {
0 1

O	 -0.294688	 1.318815	 -0.000872
C	 -0.448732	 0.145721	 -0.000187
C	 -1.780748	 -0.548101	 0.000195
O	 0.550743	 -0.719877	 0.000412
H	 -1.859389	 -1.183260	 -0.872613
H	 -2.570236	 0.185547	 -0.001342
H	 -1.860233	 -1.180337	 0.875064
C	 0.267324	 -2.036440	 0.430995
H	 -0.086914	 -2.035269	 1.451065
H	 1.195886	 -2.578983	 0.359554
H	 -0.480421	 -2.491108	 -0.201600

	symmetry c1
}
set optking {
	frozen_dihedral = ("
		8 4 2 1
	")
}

ee = optimize('scf')
oeprop('DIPOLE', 'QUADRUPOLE', 'MULLIKEN_CHARGES')
f=open( 'psi4out.xyz', 'w' )
f.write( "11  " )
f.write( str(ee) + "\n" )
f.write( MOL.save_string_xyz() )
f.close()
--------------------------------------------------------------------------

    Molecular point group: c1
  Charge       = 0
  Multiplicity = 1
  Basis Set: CC-PVTZ
  Basis Set:
  @DF-RHF Final Energy:  -266.91597015793309
    Total Energy =                       -266.9159701579328612
    Molecular point group: c1
  Basis Set: CC-PVTZ
  Basis Set:
  Basis Set: CC-PVTZ
  Basis Set:
  @DF-RHF Final Energy:  -266.91590601125779
    Total Energy =                       -266.9159060112576753
  Basis Set: CC-PVTZ
  Basis Set:
  Basis Set: CC-PVTZ
  Basis Set:
  @DF-RHF Final Energy:  -266.92290264270355
    Total Energy =                       -266.9229026427035478
  Basis Set: CC-PVTZ
  Basis Set:
  Basis Set: CC-PVTZ
  Basis Set:
  @DF-RHF Final Energy:  -266.92421503513992
    Total Energy =                       -266.9242150351400937
  Basis Set: CC-PVTZ
  Basis Set:
  Basis Set: CC-PVTZ
  Basis Set:
  @DF-RHF Final Energy:  -266.92383079293222
    Total Energy =                       -266.9238307929323355
  Basis Set: CC-PVTZ
  Basis Set:
  Basis Set: CC-PVTZ
  Basis Set:
  @DF-RHF Final Energy:  -266.92418750697743
    Total Energy =                       -266.9241875069777734
  Basis Set: CC-PVTZ
  Basis Set:
  Basis Set: CC-PVTZ
  Basis Set:
  @DF-RHF Final Energy:  -266.92452279000713
    Total Energy =                       -266.9245227900072450
  Basis Set: CC-PVTZ
  Basis Set:
  Charge       = 0
  Multiplicity = 1
  Basis Set: CC-PVTZ
  Basis Set:

    Orbital Energies (a.u.)
    -----------------------

    Doubly Occupied:

       1A    -20.596263     2A    -20.531214     3A    -11.370812
       4A    -11.295538     5A    -11.242644     6A     -1.468236
       7A     -1.370420     8A     -1.023426     9A     -0.985115
      10A     -0.785403    11A     -0.700654    12A     -0.689110
      13A     -0.681646    14A     -0.605899    15A     -0.595273
      16A     -0.578135    17A     -0.548494    18A     -0.516488
      19A     -0.454494    20A     -0.439912

  @DF-RHF Final Energy:  -266.92452360980258

   => Energetics <=

    Nuclear Repulsion Energy =            183.2782501580632015
    One-Electron Energy =                -727.4471974349410175
    Two-Electron Energy =                 277.2444236670752389
    DFT Exchange-Correlation Energy =       0.0000000000000000
    Empirical Dispersion Energy =           0.0000000000000000
    PCM Polarization Energy =               0.0000000000000000
    EFP Energy =                            0.0000000000000000
    Total Energy =                       -266.9245236098025771
    Molecular point group: c1
  Basis Set: CC-PVTZ
  Basis Set:

  -Total Gradient:
     Atom            X                  Y                   Z
    ------   -----------------  -----------------  -----------------
       1        0.000066382926     0.000048410315     0.002287685567
       2        0.000324153341     0.000104896456    -0.002309855704
       3       -0.000034233468     0.000003528316     0.000116667926
       4       -0.000776749721    -0.000708724848    -0.001874007111
       5        0.000015272050    -0.000009589260    -0.000033564546
       6        0.000015243381    -0.000006982092    -0.000005557082
       7       -0.000031229526    -0.000018035950    -0.000026329247
       8        0.000427757375     0.000548406303     0.001877992775
       9        0.000012984276     0.000001717473    -0.000006849713
      10        0.000006842238     0.000025829665    -0.000002241520
      11       -0.000026422871     0.000010543628    -0.000023941346

  **** Optimization is complete! (in 8 steps) ****
    Final optimized geometry and variables:
    Molecular point group: c1

    Geometry (in Angstrom), charge = 0, multiplicity = 1:

    O            0.073258058725     1.673072368307    -0.092802757475
    C           -0.146085948535     0.515676961515    -0.085427810903
    C           -1.543706775289    -0.052258151875    -0.110258663162
    O            0.872045185112    -0.343113070947    -0.076432104952
    H           -1.670862160297    -0.711232672741    -0.960122139673
    H           -2.238200862966     0.767882456428    -0.179718015962
    H           -1.749793730320    -0.621751130059     0.787003687851
    C            0.725376429446    -1.677725974458     0.338630323777
    H            0.380112695895    -1.734935127794     1.363003119900
    H            1.707052233402    -2.117924762490     0.276476445555
    H            0.052182951859    -2.230910559242    -0.302770950141

  Mulliken Charges: (a.u.)
   Center  Symbol    Alpha    Beta     Spin     Total
       1     O     4.17820  4.17820  0.00000 -0.35639
       2     C     2.81151  2.81151  0.00000  0.37698
       3     C     3.16569  3.16569  0.00000 -0.33139
       4     O     4.12938  4.12938  0.00000 -0.25876
       5     H     0.44461  0.44461  0.00000  0.11079
       6     H     0.42634  0.42634  0.00000  0.14732
       7     H     0.44810  0.44810  0.00000  0.10380
       8     C     3.04243  3.04243  0.00000 -0.08486
       9     H     0.45861  0.45861  0.00000  0.08278
      10     H     0.43340  0.43340  0.00000  0.13319
      11     H     0.46173  0.46173  0.00000  0.07654

   Total alpha = 20.00000, Total beta = 20.00000, Total charge =  0.00000
