  ==> Input File <==

--------------------------------------------------------------------------
set {
	reference rhf
	basis cc-pvtz
}

set_num_threads( 4 )
memory 2 gb

molecule MOL {
0 1

H	 -0.521482	 -1.601167	 -0.300300
N	 -0.625934	 -0.663929	 -0.000707
C	 -1.934889	 -0.218281	 0.415382
C	 0.468494	 0.129045	 -0.002160
H	 -2.651102	 -0.310406	 -0.392418
H	 -1.865328	 0.816969	 0.702632
H	 -2.290298	 -0.793557	 1.262011
C	 1.785715	 -0.615093	 0.000603
O	 0.413285	 1.323206	 0.000532
H	 1.866994	 -1.243310	 -0.878792
H	 2.591506	 0.100263	 0.006422
H	 1.860358	 -1.250360	 0.875522

	symmetry c1
}
set optking {
	frozen_dihedral = ("
		3 2 4 9
	")
}

ee = optimize('scf')
oeprop('DIPOLE', 'QUADRUPOLE', 'MULLIKEN_CHARGES')
f=open( 'psi4out.xyz', 'w' )
f.write( "12  " )
f.write( str(ee) + "\n" )
f.write( MOL.save_string_xyz() )
f.close()
--------------------------------------------------------------------------

    Molecular point group: c1
  Charge       = 0
  Multiplicity = 1
  Basis Set: CC-PVTZ
  Basis Set:
  @DF-RHF Final Energy:  -247.09661905556885
    Total Energy =                       -247.0966190555689650
    Molecular point group: c1
  Basis Set: CC-PVTZ
  Basis Set:
  Basis Set: CC-PVTZ
  Basis Set:
  @DF-RHF Final Energy:  -247.09772837109287
    Total Energy =                       -247.0977283710927281
  Basis Set: CC-PVTZ
  Basis Set:
  Basis Set: CC-PVTZ
  Basis Set:
  @DF-RHF Final Energy:  -247.09952583592857
    Total Energy =                       -247.0995258359287163
  Basis Set: CC-PVTZ
  Basis Set:
  Basis Set: CC-PVTZ
  Basis Set:
  @DF-RHF Final Energy:  -247.09972212836345
    Total Energy =                       -247.0997221283635099
  Basis Set: CC-PVTZ
  Basis Set:
  @DF-RHF Final Energy:  -247.09980252350354
    Total Energy =                       -247.0998025235035129
  @DF-RHF Final Energy:  -247.09987090813820
    Total Energy =                       -247.0998709081383140
  @DF-RHF Final Energy:  -247.10006290019692
    Total Energy =                       -247.1000629001968036
  @DF-RHF Final Energy:  -247.10023934315257
    Total Energy =                       -247.1002393431527366
  @DF-RHF Final Energy:  -247.10036965998390
    Total Energy =                       -247.1003696599840964
  @DF-RHF Final Energy:  -247.10039111989821
    Total Energy =                       -247.1003911198979495
  @DF-RHF Final Energy:  -247.10039539239062
    Total Energy =                       -247.1003953923906238
  @DF-RHF Final Energy:  -247.10040343301571
    Total Energy =                       -247.1004034330157992
  @DF-RHF Final Energy:  -247.10040699076669
    Total Energy =                       -247.1004069907667713
  @DF-RHF Final Energy:  -247.10036293874339
    Total Energy =                       -247.1003629387435581
  @DF-RHF Final Energy:  -247.10040803742217
    Total Energy =                       -247.1004080374221985
  Basis Set: CC-PVTZ
  Basis Set:
  @DF-RHF Final Energy:  -247.10035984342093
    Total Energy =                       -247.1003598434209607
  Basis Set: CC-PVTZ
  Basis Set:
  Basis Set: CC-PVTZ
  Basis Set:
  @DF-RHF Final Energy:  -247.10040854953618
    Total Energy =                       -247.1004085495362688
  Basis Set: CC-PVTZ
  Basis Set:
  Basis Set: CC-PVTZ
  Basis Set:
  @DF-RHF Final Energy:  -247.10041396315853
    Total Energy =                       -247.1004139631585304
  Basis Set: CC-PVTZ
  Basis Set:
  Charge       = 0
  Multiplicity = 1
  Basis Set: CC-PVTZ
  Basis Set:

    Orbital Energies (a.u.)
    -----------------------

    Doubly Occupied:

       1A    -20.510398     2A    -15.575037     3A    -11.337110
       4A    -11.253361     5A    -11.229407     6A     -1.391756
       7A     -1.231016     8A     -1.016709     9A     -0.932289
      10A     -0.784696    11A     -0.691197    12A     -0.652232
      13A     -0.635798    14A     -0.588050    15A     -0.583598
      16A     -0.555105    17A     -0.546940    18A     -0.508925
      19A     -0.420828    20A     -0.393579

  @DF-RHF Final Energy:  -247.10041460791496

   => Energetics <=

    Nuclear Repulsion Energy =            181.7791001870673426
    One-Electron Energy =                -696.0829661532371802
    Two-Electron Energy =                 267.2034513582548243
    DFT Exchange-Correlation Energy =       0.0000000000000000
    Empirical Dispersion Energy =           0.0000000000000000
    PCM Polarization Energy =               0.0000000000000000
    EFP Energy =                            0.0000000000000000
    Total Energy =                       -247.1004146079150132
    Molecular point group: c1
  Basis Set: CC-PVTZ
  Basis Set:

  -Total Gradient:
     Atom            X                  Y                   Z
    ------   -----------------  -----------------  -----------------
       1       -0.000136062655     0.000016722946     0.000071598747
       2       -0.000183354815     0.003889446462    -0.005849567127
       3        0.000310597399    -0.002044633638     0.002544848278
       4       -0.000305617533    -0.003277857125     0.007261724696
       5       -0.000001772386     0.000034620593    -0.000016004488
       6       -0.000000302283    -0.000020382218     0.000015815935
       7       -0.000006055061    -0.000045264111     0.000019977121
       8       -0.000008555878     0.000018955337    -0.000036072583
       9        0.000326339432     0.001406840636    -0.003970274743
      10        0.000011093089     0.000030471133    -0.000024904820
      11        0.000007407973    -0.000001197502    -0.000011944358
      12       -0.000013717282    -0.000007722512    -0.000005196658

  **** Optimization is complete! (in 19 steps) ****
    Final optimized geometry and variables:
    Molecular point group: c1

    Geometry (in Angstrom), charge = 0, multiplicity = 1:

    H           -0.535274753242    -1.517570030379    -0.573041167874
    N           -0.652582758321    -0.554644327196    -0.369312161547
    C           -1.953392845651    -0.161243387844     0.130416739593
    C            0.466687742173     0.121819826628    -0.001402358701
    H           -2.716596876845    -0.689311198979    -0.423951280849
    H           -2.088651048008     0.898366974579    -0.013708638229
    H           -2.069437473602    -0.379953952425     1.186652257543
    C            1.767931624429    -0.613670222728    -0.226793371849
    O            0.432443275273     1.231976900455     0.435921764969
    H            1.737393910489    -1.223725896521    -1.120655580067
    H            2.569209922987     0.104157099392    -0.299905224049
    H            1.958865140193    -1.261632073291     0.621805107912

  Mulliken Charges: (a.u.)
   Center  Symbol    Alpha    Beta     Spin     Total
       1     H     0.41831  0.41831  0.00000  0.16338
       2     N     3.61402  3.61402  0.00000 -0.22804
       3     C     3.08188  3.08188  0.00000 -0.16376
       4     C     2.83854  2.83854  0.00000  0.32291
       5     H     0.45369  0.45369  0.00000  0.09262
       6     H     0.43663  0.43663  0.00000  0.12674
       7     H     0.45924  0.45924  0.00000  0.08152
       8     C     3.15178  3.15178  0.00000 -0.30356
       9     O     4.21163  4.21163  0.00000 -0.42326
      10     H     0.45314  0.45314  0.00000  0.09373
      11     H     0.43428  0.43428  0.00000  0.13144
      12     H     0.44685  0.44685  0.00000  0.10629

   Total alpha = 20.00000, Total beta = 20.00000, Total charge =  0.00000
