                              Psi4 1.0.54 Driver

  ==> Input File <==

--------------------------------------------------------------------------
set {
	reference rhf
	basis cc-pvtz
}

set_num_threads( 4 )
memory 2 gb

molecule MOL {
0 1

H	 1.914002	 -1.585493	 0.088459
O	 1.235914	 -1.014684	 -0.222070
C	 1.135873	 0.113391	 0.608264
C	 0.027642	 1.012027	 0.090274
H	 2.071164	 0.667466	 0.607808
H	 0.937232	 -0.186777	 1.633399
C	 -1.138737	 0.285728	 -0.581921
H	 0.464661	 1.708096	 -0.618252
H	 -0.340737	 1.603071	 0.925246
C	 -1.933983	 -0.631436	 0.343653
H	 -0.763151	 -0.285569	 -1.422081
H	 -1.808359	 1.035291	 -0.992333
H	 -2.789188	 -1.049673	 -0.174718
H	 -1.335629	 -1.461368	 0.700418
H	 -2.305435	 -0.092167	 1.209725

	symmetry c1
}
set optking {
	frozen_dihedral = ("
		2 3 4 8
	")
}

ee,wfn = optimize('scf', return_wfn=True)
oeprop( wfn, 'DIPOLE', 'QUADRUPOLE', 'MULLIKEN_CHARGES')
f=open( 'psi4out.xyz', 'w' )
f.write( "15  " )
f.write( str(ee) + "\n" )
f.write( MOL.save_string_xyz() )
f.close()
--------------------------------------------------------------------------

    Molecular point group: c1
  Charge       = 0
  Multiplicity = 1
  Basis Set: CC-PVTZ
  Basis Set:
  @DF-RHF Final Energy:  -232.23381387393172
    Total Energy =                       -232.2338138739316946
    Molecular point group: c1
  Basis Set: CC-PVTZ
  Basis Set:
  Basis Set: CC-PVTZ
  Basis Set:
  @DF-RHF Final Energy:  -232.16436891742234
    Total Energy =                       -232.1643689174222800
  Basis Set: CC-PVTZ
  Basis Set:
  Basis Set: CC-PVTZ
  Basis Set:
  @DF-RHF Final Energy:  -232.22734767381976
    Total Energy =                       -232.2273476738196223
  Basis Set: CC-PVTZ
  Basis Set:
  Basis Set: CC-PVTZ
  Basis Set:
  @DF-RHF Final Energy:  -232.23426621557766
    Total Energy =                       -232.2342662155776907
  Basis Set: CC-PVTZ
  Basis Set:
  Basis Set: CC-PVTZ
  Basis Set:
  @DF-RHF Final Energy:  -232.23452355513732
    Total Energy =                       -232.2345235551372866
  Basis Set: CC-PVTZ
  Basis Set:
  Basis Set: CC-PVTZ
  Basis Set:
  @DF-RHF Final Energy:  -232.23458951034016
    Total Energy =                       -232.2345895103402995
  Basis Set: CC-PVTZ
  Basis Set:
  Basis Set: CC-PVTZ
  Basis Set:
  @DF-RHF Final Energy:  -232.23459541907457
    Total Energy =                       -232.2345954190744806
  Basis Set: CC-PVTZ
  Basis Set:
  Charge       = 0
  Multiplicity = 1
  Basis Set: CC-PVTZ
  Basis Set:

    Orbital Energies (a.u.)
    -----------------------

    Doubly Occupied:

       1A    -20.547153     2A    -11.266600     3A    -11.211340
       4A    -11.205945     5A    -11.198728     6A     -1.364978
       7A     -1.062995     8A     -0.969771     9A     -0.867823
      10A     -0.774701    11A     -0.705709    12A     -0.651405
      13A     -0.609084    14A     -0.571848    15A     -0.565754
      16A     -0.528510    17A     -0.508916    18A     -0.477752
      19A     -0.463779    20A     -0.452408    21A     -0.431171

  @DF-RHF Final Energy:  -232.23459581253465

   => Energetics <=

    Nuclear Repulsion Energy =            193.3197939296752281
    One-Electron Energy =                -698.2360379555788086
    Two-Electron Energy =                 272.6816482133689306
    DFT Exchange-Correlation Energy =       0.0000000000000000
    Empirical Dispersion Energy =           0.0000000000000000
    PCM Polarization Energy =               0.0000000000000000
    EFP Energy =                            0.0000000000000000
    Total Energy =                       -232.2345958125346215
    Molecular point group: c1
  Basis Set: CC-PVTZ
  Basis Set:

  -Total Gradient:
     Atom            X                  Y                   Z
    ------   -----------------  -----------------  -----------------
       1       -0.000006604482     0.000003358077     0.000006168426
       2       -0.003209212599    -0.002811797792     0.001965623803
       3        0.003923905528     0.004697501118    -0.001653045629
       4        0.000566469162    -0.006286437490    -0.004415651124
       5       -0.000001368211     0.000004269339     0.000001329882
       6       -0.000006554222     0.000015378349     0.000001043819
       7       -0.000026619649     0.000040682987     0.000007632098
       8       -0.001264604787     0.004348028062     0.004062229476
       9       -0.000006433963     0.000006924185    -0.000000149818
      10        0.000017594066    -0.000012548949     0.000006899615
      11       -0.000011143815     0.000002453612     0.000010316152
      12        0.000018112490    -0.000001241776     0.000011802661
      13        0.000002508595    -0.000010183475     0.000007038828
      14       -0.000003862631     0.000010514596     0.000009159137
      15        0.000007814515    -0.000006900847    -0.000020397323

  **** Optimization is complete! (in 8 steps) ****
    Final optimized geometry and variables:
    Molecular point group: c1

    Geometry (in Angstrom), charge = 0, multiplicity = 1:

    H            2.256878255785    -0.905912400032     0.778488696328
    O            1.566207613170    -0.595280703642     0.223149303062
    C            0.950827416377     0.524582475899     0.806526622413
    C           -0.120984088764     1.083996682765    -0.127693885110
    H            1.681795705119     1.298157778478     1.022613635997
    H            0.497202754300     0.234561786243     1.750953930051
    C           -0.904125965214     0.051957522237    -0.936015925038
    H            0.324007534370     1.825727717276    -0.782842977394
    H           -0.815468058242     1.647274027621     0.492428495818
    C           -1.709728506738    -0.923046942408    -0.081865250542
    H           -0.223805937719    -0.501126167067    -1.570156637153
    H           -1.579989117471     0.588619032348    -1.594886905090
    H           -2.285290942641    -1.596404796321    -0.706804844276
    H           -1.063320281665    -1.527319646955     0.542187333199
    H           -2.406946236265    -0.397204552448     0.563469567492

  Mulliken Charges: (a.u.)
   Center  Symbol    Alpha    Beta     Spin     Total
       1     H     0.39624  0.39624  0.00000  0.20751
       2     O     4.19708  4.19708  0.00000 -0.39417
       3     C     2.98061  2.98061  0.00000  0.03878
       4     C     3.09786  3.09786  0.00000 -0.19572
       5     H     0.46077  0.46077  0.00000  0.07847
       6     H     0.46964  0.46964  0.00000  0.06072
       7     C     3.08268  3.08268  0.00000 -0.16536
       8     H     0.44924  0.44924  0.00000  0.10153
       9     H     0.45704  0.45704  0.00000  0.08593
      10     C     3.15338  3.15338  0.00000 -0.30677
      11     H     0.44743  0.44743  0.00000  0.10514
      12     H     0.45089  0.45089  0.00000  0.09823
      13     H     0.44821  0.44821  0.00000  0.10358
      14     H     0.45055  0.45055  0.00000  0.09890
      15     H     0.45838  0.45838  0.00000  0.08324

   Total alpha = 21.00000, Total beta = 21.00000, Total charge = -0.00000

*** Psi4 exiting successfully. Buy a developer a beer!
