  ==> Input File <==

--------------------------------------------------------------------------
set {
	reference rhf
	basis 6-31G*
}

set_num_threads( 4 )
memory 2 gb

molecule MOL {
0 1

H	 2.080604	 0.293230	 0.944473
O	 1.310038	 -0.264124	 0.992584
C	 0.489431	 0.077273	 0.000046
C	 -0.764129	 -0.759190	 0.000191
O	 0.752213	 0.942414	 -0.770046
C	 -2.038368	 0.075731	 -0.000248
H	 -0.717284	 -1.412404	 -0.866059
H	 -0.717458	 -1.411724	 0.866967
H	 -2.086483	 0.712501	 -0.875098
H	 -2.908485	 -0.571682	 -0.000042
H	 -2.086576	 0.713280	 0.874068

	symmetry c1
}
set optking {
	frozen_dihedral = ("
		2 3 4 7
	")
}

ee = optimize('scf')
oeprop('DIPOLE', 'QUADRUPOLE', 'MULLIKEN_CHARGES')
f=open( 'psi4out.xyz', 'w' )
f.write( "11  " )
f.write( str(ee) + "\n" )
f.write( MOL.save_string_xyz() )
f.close()
--------------------------------------------------------------------------

    Molecular point group: c1
  Charge       = 0
  Multiplicity = 1
  Basis Set: 6-31G*
  Basis Set:
  @DF-RHF Final Energy:  -266.84383882303985
    Total Energy =                       -266.8438388230397891
    Molecular point group: c1
  Basis Set: 6-31G*
  Basis Set:
  Basis Set: 6-31G*
  Basis Set:
  @DF-RHF Final Energy:  -266.84446280138241
    Total Energy =                       -266.8444628013826332
  Basis Set: 6-31G*
  Basis Set:
  Basis Set: 6-31G*
  Basis Set:
  @DF-RHF Final Energy:  -266.84448670095276
    Total Energy =                       -266.8444867009527002
  Basis Set: 6-31G*
  Basis Set:
  Basis Set: 6-31G*
  Basis Set:
  @DF-RHF Final Energy:  -266.84448512602501
    Total Energy =                       -266.8444851260248925
  Basis Set: 6-31G*
  Basis Set:
  Basis Set: 6-31G*
  Basis Set:
  @DF-RHF Final Energy:  -266.84448829879750
    Total Energy =                       -266.8444882987976712
  Basis Set: 6-31G*
  Basis Set:
  Charge       = 0
  Multiplicity = 1
  Basis Set: 6-31G*
  Basis Set:

    Orbital Energies (a.u.)
    -----------------------

    Doubly Occupied:

       1A    -20.616071     2A    -20.550026     3A    -11.382087
       4A    -11.243204     5A    -11.225599     6A     -1.476419
       7A     -1.366115     8A     -1.065504     9A     -0.915220
      10A     -0.808262    11A     -0.703066    12A     -0.689237
      13A     -0.650957    14A     -0.607353    15A     -0.593364
      16A     -0.535359    17A     -0.525738    18A     -0.509948
      19A     -0.475023    20A     -0.443635

  @DF-RHF Final Energy:  -266.84448959273288

   => Energetics <=

    Nuclear Repulsion Energy =            179.7250363231965480
    One-Electron Energy =                -720.3746753976402033
    Two-Electron Energy =                 273.8051494817103730
    DFT Exchange-Correlation Energy =       0.0000000000000000
    Empirical Dispersion Energy =           0.0000000000000000
    PCM Polarization Energy =               0.0000000000000000
    EFP Energy =                            0.0000000000000000
    Total Energy =                       -266.8444895927333391
    Molecular point group: c1
  Basis Set: 6-31G*
  Basis Set:

  -Total Gradient:
     Atom            X                  Y                   Z
    ------   -----------------  -----------------  -----------------
       1       -0.000011184962     0.000004292376    -0.000002687638
       2       -0.000380676997     0.000527331518     0.000531591264
       3        0.000387729701    -0.000565519821    -0.000833944507
       4        0.000476671112    -0.000680450115     0.000818400806
       5        0.000009849952     0.000004996141    -0.000006089695
       6       -0.000004587098     0.000028706631    -0.000014608836
       7       -0.000492935666     0.000714148553    -0.000500398232
       8        0.000000357319    -0.000016596110     0.000009085994
       9       -0.000000096500     0.000004708339     0.000000220799
      10        0.000006316968    -0.000011259641     0.000002572942
      11        0.000008556170    -0.000010357875    -0.000004142896

  **** Optimization is complete! (in 6 steps) ****
    Final optimized geometry and variables:
    Molecular point group: c1

    Geometry (in Angstrom), charge = 0, multiplicity = 1:

    H            2.130694422299     0.281669451236     0.822948154419
    O            1.370966563823    -0.287375949670     0.903700584240
    C            0.502740033994     0.047248278310    -0.046825476631
    C           -0.743124587676    -0.804034297173    -0.033878182875
    O            0.713709068013     0.929567714695    -0.814989457831
    C           -2.010301866766     0.052721539360    -0.077155737538
    H           -0.700321462276    -1.429096529901    -0.920992072053
    H           -0.731176378391    -1.453096470383     0.831320545995
    H           -2.002632810124     0.701066579900    -0.943716149013
    H           -2.888107573208    -0.581653320406    -0.127351684646
    H           -2.095233658361     0.672236091245     0.809486049834

  Mulliken Charges: (a.u.)
   Center  Symbol    Alpha    Beta     Spin     Total
       1     H     0.26819  0.26819  0.00000  0.46362
       2     O     4.34802  4.34802  0.00000 -0.69604
       3     C     2.62495  2.62495  0.00000  0.75010
       4     C     3.20732  3.20732  0.00000 -0.41465
       5     O     4.27975  4.27975  0.00000 -0.55950
       6     C     3.24693  3.24693  0.00000 -0.49387
       7     H     0.39777  0.39777  0.00000  0.20447
       8     H     0.39830  0.39830  0.00000  0.20341
       9     H     0.40125  0.40125  0.00000  0.19750
      10     H     0.41358  0.41358  0.00000  0.17284
      11     H     0.41394  0.41394  0.00000  0.17212

   Total alpha = 20.00000, Total beta = 20.00000, Total charge = -0.00000
