  ==> Input File <==

--------------------------------------------------------------------------
set {
	reference rhf
	basis 6-31G*
}

set_num_threads( 1 )
memory 2 gb

molecule MOL {
0 1

O	 2.824497	 1.417205	 -0.502110
C	 2.785376	 0.256629	 -0.774674
C	 1.489120	 -0.533682	 -0.766415
C	 4.038076	 -0.508479	 -1.149519
C	 0.262506	 0.287782	 -0.380608
H	 1.361751	 -0.975117	 -1.753989
H	 1.616935	 -1.376434	 -0.088304
C	 -1.022970	 -0.541257	 -0.383627
H	 0.164324	 1.123780	 -1.065880
H	 0.419633	 0.721846	 0.601761
C	 -2.259874	 0.272531	 0.000494
H	 -1.172570	 -0.976400	 -1.370702
H	 -0.917054	 -1.378780	 0.304417
C	 -3.549786	 -0.549746	 -0.000374
H	 -2.367142	 1.109639	 -0.687084
H	 -2.111808	 0.707293	 0.987436
C	 -4.809590	 0.315458	 -0.000369
H	 -3.560515	 -1.202009	 -0.871156
H	 -3.561123	 -1.202955	 0.869711
H	 -4.844746	 0.956611	 -0.876632
H	 -5.706986	 -0.295590	 -0.001609
H	 -4.845960	 0.954827	 0.877144
H	 3.939493	 -0.932945	 -2.144370
H	 4.891958	 0.154095	 -1.122758
H	 4.197889	 -1.333624	 -0.461601

	symmetry c1
}
set optking {
	frozen_dihedral = ("
		9 5 8 12,
		15 11 8 12,
		1 2 3 6,
		9 5 3 6
	")
}

ee = energy('scf')
oeprop('DIPOLE', 'QUADRUPOLE', 'MULLIKEN_CHARGES')
f=open( 'psi4out.xyz', 'w' )
f.write( "25  " )
f.write( str(ee) + "\n" )
f.write( MOL.save_string_xyz() )
f.close()
--------------------------------------------------------------------------

    Molecular point group: c1

    Geometry (in Angstrom), charge = 0, multiplicity = 1:

       Center              X                  Y                   Z               Mass
    ------------   -----------------  -----------------  -----------------  -----------------
           O          2.857449028025     1.365048738319    -0.062294869997    15.994914619560
           C          2.818328028025     0.204472738319    -0.334858869997    12.000000000000
           C          1.522072028025    -0.585838261681    -0.326599869997    12.000000000000
           C          4.071028028025    -0.560635261681    -0.709703869997    12.000000000000
           C          0.295458028025     0.235625738319     0.059207130003    12.000000000000
           H          1.394703028025    -1.027273261681    -1.314173869997     1.007825032070
           H          1.649887028025    -1.428590261681     0.351511130003     1.007825032070
           C         -0.990017971975    -0.593413261681     0.056188130003    12.000000000000
           H          0.197276028025     1.071623738319    -0.626064869997     1.007825032070
           H          0.452585028025     0.669689738319     1.041576130003     1.007825032070
           C         -2.226921971975     0.220374738319     0.440309130003    12.000000000000
           H         -1.139617971975    -1.028556261681    -0.930886869997     1.007825032070
           H         -0.884101971975    -1.430936261681     0.744232130003     1.007825032070
           C         -3.516833971975    -0.601902261681     0.439441130003    12.000000000000
           H         -2.334189971975     1.057482738319    -0.247268869997     1.007825032070
           H         -2.078855971975     0.655136738319     1.427251130003     1.007825032070
           C         -4.776637971975     0.263301738319     0.439446130003    12.000000000000
           H         -3.527562971975    -1.254165261681    -0.431340869997     1.007825032070
           H         -3.528170971975    -1.255111261681     1.309526130003     1.007825032070
           H         -4.811793971975     0.904454738319    -0.436816869997     1.007825032070
           H         -5.674033971975    -0.347746261681     0.438206130003     1.007825032070
           H         -4.813007971975     0.902670738319     1.316959130003     1.007825032070
           H          3.972445028025    -0.985101261681    -1.704554869997     1.007825032070
           H          4.924910028025     0.101938738319    -0.682942869997     1.007825032070
           H          4.230841028025    -1.385780261681    -0.021785869997     1.007825032070

  Charge       = 0
  Multiplicity = 1
  Basis Set: 6-31G*
  Basis Set:

    Orbital Energies (a.u.)
    -----------------------

    Doubly Occupied:

       1A    -20.550487     2A    -11.326285     3A    -11.231872
       4A    -11.228349     5A    -11.217126     6A    -11.216498
       7A    -11.215082     8A    -11.213253     9A    -11.208341
      10A     -1.395772    11A     -1.093625    12A     -1.056307
      13A     -1.014480    14A     -0.969189    15A     -0.890742
      16A     -0.814236    17A     -0.790769    18A     -0.729909
      19A     -0.661268    20A     -0.652006    21A     -0.631418
      22A     -0.624069    23A     -0.596312    24A     -0.584561
      25A     -0.567021    26A     -0.559569    27A     -0.539599
      28A     -0.526531    29A     -0.512996    30A     -0.489963
      31A     -0.487410    32A     -0.473753    33A     -0.463631
      34A     -0.461334    35A     -0.450513    36A     -0.399406

  @DF-RHF Final Energy:  -387.13559723868838

   => Energetics <=

    Nuclear Repulsion Energy =            438.4475678651218118
    One-Electron Energy =               -1393.4785100394801702
    Two-Electron Energy =                 567.8953449356697547
    DFT Exchange-Correlation Energy =       0.0000000000000000
    Empirical Dispersion Energy =           0.0000000000000000
    PCM Polarization Energy =               0.0000000000000000
    EFP Energy =                            0.0000000000000000
    Total Energy =                       -387.1355972386886606

  Mulliken Charges: (a.u.)
   Center  Symbol    Alpha    Beta     Spin     Total
       1     O     4.26115  4.26115  0.00000 -0.52231
       2     C     2.73570  2.73570  0.00000  0.52861
       3     C     3.21086  3.21086  0.00000 -0.42173
       4     C     3.28663  3.28663  0.00000 -0.57327
       5     C     3.14813  3.14813  0.00000 -0.29626
       6     H     0.41002  0.41002  0.00000  0.17996
       7     H     0.41000  0.41000  0.00000  0.17999
       8     C     3.15435  3.15435  0.00000 -0.30869
       9     H     0.41210  0.41210  0.00000  0.17580
      10     H     0.41219  0.41219  0.00000  0.17561
      11     C     3.15124  3.15124  0.00000 -0.30248
      12     H     0.42472  0.42472  0.00000  0.15055
      13     H     0.42484  0.42484  0.00000  0.15032
      14     C     3.15186  3.15186  0.00000 -0.30372
      15     H     0.42248  0.42248  0.00000  0.15503
      16     H     0.42158  0.42158  0.00000  0.15684
      17     C     3.23952  3.23952  0.00000 -0.47904
      18     H     0.42370  0.42370  0.00000  0.15259
      19     H     0.42256  0.42256  0.00000  0.15488
      20     H     0.42142  0.42142  0.00000  0.15716
      21     H     0.41976  0.41976  0.00000  0.16047
      22     H     0.42128  0.42128  0.00000  0.15745
      23     H     0.40874  0.40874  0.00000  0.18252
      24     H     0.39646  0.39646  0.00000  0.20708
      25     H     0.40869  0.40869  0.00000  0.18261

   Total alpha = 36.00000, Total beta = 36.00000, Total charge =  0.00000
