  ==> Input File <==

--------------------------------------------------------------------------
set {
	reference rhf
	basis 6-31G*
}

set_num_threads( 4 )
memory 2 gb

molecule MOL {
0 1

O	 -2.042549	 -1.228399	 -0.269030
C	 -1.653912	 -0.146171	 0.050137
C	 -0.332303	 0.024011	 0.778412
C	 -2.438579	 1.106236	 -0.272369
C	 0.845713	 -0.001731	 -0.208243
H	 -0.323783	 0.953829	 1.340327
H	 -0.235459	 -0.796807	 1.480410
C	 1.388900	 1.395005	 -0.513378
H	 0.536985	 -0.477136	 -1.137630
H	 1.634369	 -0.619750	 0.210343
C	 2.566203	 1.371672	 -1.487349
H	 0.591840	 2.011336	 -0.923568
H	 1.696729	 1.869827	 0.415252
H	 2.280102	 0.932726	 -2.438940
H	 3.391929	 0.789073	 -1.089608
H	 2.932360	 2.374558	 -1.682737
H	 -3.277823	 0.863061	 -0.908988
H	 -1.806773	 1.843019	 -0.759671
H	 -2.802853	 1.554979	 0.648059

	symmetry c1
}
set optking {
	frozen_dihedral = ("
		9 5 3 2
	")
}

ee = optimize('scf')
oeprop('DIPOLE', 'QUADRUPOLE', 'MULLIKEN_CHARGES')
f=open( 'psi4out.xyz', 'w' )
f.write( "19  " )
f.write( str(ee) + "\n" )
f.write( MOL.save_string_xyz() )
f.close()
--------------------------------------------------------------------------

    Molecular point group: c1
  Charge       = 0
  Multiplicity = 1
  Basis Set: 6-31G*
  Basis Set:
  @DF-RHF Final Energy:  -309.05975583448270
    Total Energy =                       -309.0597558344828144
    Molecular point group: c1
  Basis Set: 6-31G*
  Basis Set:
  Basis Set: 6-31G*
  Basis Set:
  @DF-RHF Final Energy:  -309.06004437818819
    Total Energy =                       -309.0600443781882518
  Basis Set: 6-31G*
  Basis Set:
  Basis Set: 6-31G*
  Basis Set:
  @DF-RHF Final Energy:  -309.05766514481473
    Total Energy =                       -309.0576651448147913
  Basis Set: 6-31G*
  Basis Set:
  Basis Set: 6-31G*
  Basis Set:
  @DF-RHF Final Energy:  -309.06033104194807
    Total Energy =                       -309.0603310419481886
  Basis Set: 6-31G*
  Basis Set:
  @DF-RHF Final Energy:  -309.06054576100365
    Total Energy =                       -309.0605457610037092
  @DF-RHF Final Energy:  -309.06132368901660
    Total Energy =                       -309.0613236890167741
  @DF-RHF Final Energy:  -309.06175730677626
    Total Energy =                       -309.0617573067761441
  @DF-RHF Final Energy:  -309.06003609797062
    Total Energy =                       -309.0600360979706238
  @DF-RHF Final Energy:  -309.06288201294831
    Total Energy =                       -309.0628820129483643
  @DF-RHF Final Energy:  -309.06370728319098
    Total Energy =                       -309.0637072831915475
  Basis Set: 6-31G*
  Basis Set:
  @DF-RHF Final Energy:  -309.06387053664082
    Total Energy =                       -309.0638705366407635
  Basis Set: 6-31G*
  Basis Set:
  Basis Set: 6-31G*
  Basis Set:
  @DF-RHF Final Energy:  -309.06388637503517
    Total Energy =                       -309.0638863750350538
  Basis Set: 6-31G*
  Basis Set:
  Basis Set: 6-31G*
  Basis Set:
  @DF-RHF Final Energy:  -309.06391432609468
    Total Energy =                       -309.0639143260947321
  Basis Set: 6-31G*
  Basis Set:
  Charge       = 0
  Multiplicity = 1
  Basis Set: 6-31G*
  Basis Set:

    Orbital Energies (a.u.)
    -----------------------

    Doubly Occupied:

       1A    -20.551567     2A    -11.327852     3A    -11.232272
       4A    -11.229054     5A    -11.216659     6A    -11.215322
       7A    -11.207628     8A     -1.397134     9A     -1.083227
      10A     -1.029378    11A     -0.982035    12A     -0.885523
      13A     -0.801383    14A     -0.729855    15A     -0.666508
      16A     -0.631650    17A     -0.625362    18A     -0.614681
      19A     -0.580007    20A     -0.571230    21A     -0.558741
      22A     -0.522524    23A     -0.516304    24A     -0.493229
      25A     -0.475640    26A     -0.466951    27A     -0.458330
      28A     -0.402635

  @DF-RHF Final Energy:  -309.06391514590598

   => Energetics <=

    Nuclear Repulsion Energy =            304.0563383962885382
    One-Electron Energy =               -1021.2951436980548579
    Two-Electron Energy =                 408.1748901558603393
    DFT Exchange-Correlation Energy =       0.0000000000000000
    Empirical Dispersion Energy =           0.0000000000000000
    PCM Polarization Energy =               0.0000000000000000
    EFP Energy =                            0.0000000000000000
    Total Energy =                       -309.0639151459059804
    Molecular point group: c1
  Basis Set: 6-31G*
  Basis Set:

  -Total Gradient:
     Atom            X                  Y                   Z
    ------   -----------------  -----------------  -----------------
       1       -0.000011999297    -0.000020223658    -0.000051418388
       2       -0.000175147339    -0.002402906625     0.000805278112
       3        0.000285256812     0.004165960318    -0.001707530647
       4        0.000020863625    -0.000157454789     0.000094297749
       5        0.000343595412    -0.004521513387     0.002880551092
       6        0.000034599530     0.000004664897     0.000003114401
       7       -0.000047657409    -0.000038176767     0.000021965249
       8       -0.000019149234     0.000039943326     0.000012139586
       9       -0.000391189766     0.002833770801    -0.002071323373
      10       -0.000055325814     0.000010601231     0.000050930322
      11        0.000003363706    -0.000022601625     0.000007679821
      12       -0.000026244971     0.000016828378    -0.000007243243
      13        0.000005004502     0.000006501272    -0.000005992155
      14        0.000000353048     0.000002461474    -0.000008671253
      15        0.000007556501    -0.000007875488    -0.000001803478
      16       -0.000012936915    -0.000001189691     0.000014403491
      17        0.000023404167     0.000004783511    -0.000004632191
      18        0.000015654881     0.000043675815    -0.000036450256
      19       -0.000000001440     0.000042751011     0.000004705157

  **** Optimization is complete! (in 14 steps) ****
    Final optimized geometry and variables:
    Molecular point group: c1

    Geometry (in Angstrom), charge = 0, multiplicity = 1:

    O           -1.455761677424    -0.753159126477    -0.952187773043
    C           -1.494183367783    -0.271908600634     0.138293136818
    C           -0.254261985197    -0.073034763157     0.996630691026
    C           -2.803610694064     0.180432061589     0.751299119876
    C            1.071159313231    -0.412870477772     0.303217042466
    H           -0.258248793166     0.948502352195     1.370906782309
    H           -0.399767557646    -0.697199451464     1.877236638209
    C            1.808341912441     0.827695718983    -0.210653876216
    H            0.865416261363    -1.058500627242    -0.541372549854
    H            1.715353281800    -0.956158092342     0.987962047755
    C            3.105001861891     0.484343490291    -0.941444927434
    H            1.151914761535     1.378701534330    -0.880869263484
    H            2.028026792389     1.492983951447     0.622312677908
    H            2.911653554266    -0.146708090619    -1.803819485412
    H            3.793067515636    -0.047561038220    -0.290013426724
    H            3.607798544927     1.380278662736    -1.292133085747
    H           -3.629073604462    -0.156478890070     0.139842127035
    H           -2.822781505219     1.265550309626     0.807898718088
    H           -2.915266520409    -0.197668880934     1.762515969136

  Mulliken Charges: (a.u.)
   Center  Symbol    Alpha    Beta     Spin     Total
       1     O     4.26116  4.26116  0.00000 -0.52231
       2     C     2.73752  2.73752  0.00000  0.52497
       3     C     3.21391  3.21391  0.00000 -0.42782
       4     C     3.28726  3.28726  0.00000 -0.57452
       5     C     3.15592  3.15592  0.00000 -0.31185
       6     H     0.40874  0.40874  0.00000  0.18251
       7     H     0.40591  0.40591  0.00000  0.18819
       8     C     3.15430  3.15430  0.00000 -0.30859
       9     H     0.39665  0.39665  0.00000  0.20670
      10     H     0.42056  0.42056  0.00000  0.15889
      11     C     3.24031  3.24031  0.00000 -0.48062
      12     H     0.41950  0.41950  0.00000  0.16100
      13     H     0.42550  0.42550  0.00000  0.14901
      14     H     0.41785  0.41785  0.00000  0.16429
      15     H     0.42249  0.42249  0.00000  0.15503
      16     H     0.41930  0.41930  0.00000  0.16140
      17     H     0.39641  0.39641  0.00000  0.20719
      18     H     0.40638  0.40638  0.00000  0.18724
      19     H     0.41035  0.41035  0.00000  0.17931

   Total alpha = 28.00000, Total beta = 28.00000, Total charge = -0.00000
