  ==> Input File <==

--------------------------------------------------------------------------
set {
	reference rhf
	basis 6-31G*
}

set_num_threads( 1 )
memory 2 gb

molecule MOL {
0 1

H	 2.840066	 -0.528072	 0.820634
N	 2.434251	 -0.367735	 -0.081097
C	 1.267428	 0.496480	 0.024474
H	 2.174905	 -1.264901	 -0.445442
C	 -0.016086	 -0.325158	 -0.029487
H	 1.288818	 1.183521	 -0.816092
H	 1.267576	 1.109062	 0.929528
C	 -1.282277	 0.529072	 0.046735
H	 -0.012495	 -0.908639	 -0.945788
H	 -0.015903	 -1.041248	 0.791956
C	 -2.563920	 -0.301775	 -0.006060
H	 -1.284084	 1.244622	 -0.773004
H	 -1.271387	 1.115393	 0.963286
H	 -2.621848	 -0.873522	 -0.927727
H	 -3.445135	 0.329952	 0.047812
H	 -2.609542	 -1.004582	 0.821105

	symmetry c1
}
set optking {
	frozen_dihedral = ("
		6 3 5 9,
		12 8 5 9
	")
}

ee = energy('scf')
oeprop('DIPOLE', 'QUADRUPOLE', 'MULLIKEN_CHARGES')
f=open( 'psi4out.xyz', 'w' )
f.write( "16  " )
f.write( str(ee) + "\n" )
f.write( MOL.save_string_xyz() )
f.close()
--------------------------------------------------------------------------

    Molecular point group: c1

    Geometry (in Angstrom), charge = 0, multiplicity = 1:

       Center              X                  Y                   Z               Mass
    ------------   -----------------  -----------------  -----------------  -----------------
           H          2.850589571252    -0.514261440730     0.823886832091     1.007825032070
           N          2.444774571252    -0.353924440730    -0.077844167909    14.003074004780
           C          1.277951571252     0.510290559270     0.027726832091    12.000000000000
           H          2.185428571252    -1.251090440730    -0.442189167909     1.007825032070
           C         -0.005562428748    -0.311347440730    -0.026234167909    12.000000000000
           H          1.299341571252     1.197331559270    -0.812839167909     1.007825032070
           H          1.278099571252     1.122872559270     0.932780832091     1.007825032070
           C         -1.271753428748     0.542882559270     0.049987832091    12.000000000000
           H         -0.001971428748    -0.894828440730    -0.942535167909     1.007825032070
           H         -0.005379428748    -1.027437440730     0.795208832091     1.007825032070
           C         -2.553396428748    -0.287964440730    -0.002807167909    12.000000000000
           H         -1.273560428748     1.258432559270    -0.769751167909     1.007825032070
           H         -1.260863428748     1.129203559270     0.966538832091     1.007825032070
           H         -2.611324428748    -0.859711440730    -0.924474167909     1.007825032070
           H         -3.434611428748     0.343762559270     0.051064832091     1.007825032070
           H         -2.599018428748    -0.990771440730     0.824357832091     1.007825032070

  Charge       = 0
  Multiplicity = 1
  Basis Set: 6-31G*
  Basis Set:

    Orbital Energies (a.u.)
    -----------------------

    Doubly Occupied:

       1A    -15.529793     2A    -11.239617     3A    -11.217996
       4A    -11.214796     5A    -11.210785     6A     -1.177739
       7A     -1.061938     8A     -0.959608     9A     -0.847238
      10A     -0.799279    11A     -0.672201    12A     -0.630761
      13A     -0.597020    14A     -0.586028    15A     -0.560938
      16A     -0.524455    17A     -0.509246    18A     -0.478127
      19A     -0.474931    20A     -0.465290    21A     -0.373330

  @DF-RHF Final Energy:  -212.31218396332306

   => Energetics <=

    Nuclear Repulsion Energy =            186.7770311253712805
    One-Electron Energy =                -655.9162193937419261
    Two-Electron Energy =                 256.8270043050475238
    DFT Exchange-Correlation Energy =       0.0000000000000000
    Empirical Dispersion Energy =           0.0000000000000000
    PCM Polarization Energy =               0.0000000000000000
    EFP Energy =                            0.0000000000000000
    Total Energy =                       -212.3121839633230934

  Mulliken Charges: (a.u.)
   Center  Symbol    Alpha    Beta     Spin     Total
       1     H     0.33335  0.33335  0.00000  0.33331
       2     N     3.92547  3.92547  0.00000 -0.85095
       3     C     3.05302  3.05302  0.00000 -0.10604
       4     H     0.33182  0.33182  0.00000  0.33636
       5     C     3.16501  3.16501  0.00000 -0.33001
       6     H     0.41904  0.41904  0.00000  0.16192
       7     H     0.42322  0.42322  0.00000  0.15356
       8     C     3.15539  3.15539  0.00000 -0.31078
       9     H     0.42323  0.42323  0.00000  0.15354
      10     H     0.42572  0.42572  0.00000  0.14856
      11     C     3.23889  3.23889  0.00000 -0.47777
      12     H     0.42097  0.42097  0.00000  0.15806
      13     H     0.42276  0.42276  0.00000  0.15447
      14     H     0.42131  0.42131  0.00000  0.15737
      15     H     0.41880  0.41880  0.00000  0.16240
      16     H     0.42199  0.42199  0.00000  0.15601

   Total alpha = 21.00000, Total beta = 21.00000, Total charge = -0.00000
