                              Psi4 1.0.54 Driver

  ==> Input File <==

--------------------------------------------------------------------------
set {
	reference rhf
	basis cc-pvtz
}

set_num_threads( 4 )
memory 2 gb

molecule MOL {
0 1

H	 -3.941973	 0.934228	 -0.390224
C	 -3.240162	 0.342701	 0.161016
C	 -2.105997	 -0.000418	 -0.398703
H	 -3.485368	 0.047206	 1.162193
O	 -2.023599	 -0.361171	 -1.699815
H	 -1.177083	 -0.002508	 0.141892
C	 -0.810429	 -0.811977	 -2.187781
C	 -0.670667	 -2.314713	 -2.056310
H	 0.033014	 -0.353914	 -1.685231
H	 -0.761723	 -0.572004	 -3.239199
F	 0.484255	 -2.694256	 -2.565411
F	 -0.699722	 -2.702462	 -0.799205
F	 -1.620954	 -2.955633	 -2.692418

	symmetry c1
}
set optking {
	frozen_dihedral = ("
		6 3 2 1
	")
}

ee,wfn = optimize('scf', return_wfn=True)
oeprop( wfn, 'DIPOLE', 'QUADRUPOLE', 'MULLIKEN_CHARGES')
f=open( 'psi4out.xyz', 'w' )
f.write( "13  " )
f.write( str(ee) + "\n" )
f.write( MOL.save_string_xyz() )
f.close()
--------------------------------------------------------------------------

    Molecular point group: c1
  Charge       = 0
  Multiplicity = 1
  Basis Set: CC-PVTZ
  Basis Set:
  @DF-RHF Final Energy:  -527.70666653448211
    Total Energy =                       -527.7066665344817693
    Molecular point group: c1
  Basis Set: CC-PVTZ
  Basis Set:
  Basis Set: CC-PVTZ
  Basis Set:
  @DF-RHF Final Energy:  -527.72281061497938
    Total Energy =                       -527.7228106149792666
  Basis Set: CC-PVTZ
  Basis Set:
  Basis Set: CC-PVTZ
  Basis Set:
  @DF-RHF Final Energy:  -527.53607787527585
    Total Energy =                       -527.5360778752757369
  Basis Set: CC-PVTZ
  Basis Set:
  Basis Set: CC-PVTZ
  Basis Set:
  @DF-RHF Final Energy:  -527.54530161990579
    Total Energy =                       -527.5453016199056719
  Basis Set: CC-PVTZ
  Basis Set:
  @DF-RHF Final Energy:  -527.61208779927949
    Total Energy =                       -527.6120877992802889
  @DF-RHF Final Energy:  -527.72126313858598
    Total Energy =                       -527.7212631385860959
  @DF-RHF Final Energy:  -527.72602640741297
    Total Energy =                       -527.7260264074130873
  @DF-RHF Final Energy:  -527.72731384153974
    Total Energy =                       -527.7273138415396261
  @DF-RHF Final Energy:  -527.72760086416747
    Total Energy =                       -527.7276008641675844
  @DF-RHF Final Energy:  -527.72765390491259
    Total Energy =                       -527.7276539049123585
  @DF-RHF Final Energy:  -527.72769620255508
    Total Energy =                       -527.7276962025549665
  @DF-RHF Final Energy:  -527.72773094450076
    Total Energy =                       -527.7277309445005358
  @DF-RHF Final Energy:  -527.72773370178470
    Total Energy =                       -527.7277337017847003
  @DF-RHF Final Energy:  -527.33257106133487
    Total Energy =                       -527.3325710613346473
  @DF-RHF Final Energy:  -526.29012671783426
    Total Energy =                       -526.2901267178341413
  @DF-RHF Final Energy:  -527.33257106134397
    Total Energy =                       -527.3325710613439696
  @DF-RHF Final Energy:  -527.57470422939798
    Total Energy =                       -527.5747042293980940
  @DF-RHF Final Energy:  -527.71158168515558
    Total Energy =                       -527.7115816851548971
  @DF-RHF Final Energy:  -527.72168886115196
    Total Energy =                       -527.7216888611517334
  @DF-RHF Final Energy:  -527.72587270016322
    Total Energy =                       -527.7258727001631087
  @DF-RHF Final Energy:  -527.72711649945268
    Total Energy =                       -527.7271164994523360
  @DF-RHF Final Energy:  -527.72742836677651
    Total Energy =                       -527.7274283667765076
  @DF-RHF Final Energy:  -527.72769607603379
    Total Energy =                       -527.7276960760334532
  @DF-RHF Final Energy:  -527.72774164054113
    Total Energy =                       -527.7277416405411259
  Basis Set: CC-PVTZ
  Basis Set:
  @DF-RHF Final Energy:  -527.72774744576782
    Total Energy =                       -527.7277474457675908
  Basis Set: CC-PVTZ
  Basis Set:
  Basis Set: CC-PVTZ
  Basis Set:
  @DF-RHF Final Energy:  -527.72774798548653
    Total Energy =                       -527.7277479854863032
  Basis Set: CC-PVTZ
  Basis Set:
  Basis Set: CC-PVTZ
  Basis Set:
  @DF-RHF Final Energy:  -527.72774948629331
    Total Energy =                       -527.7277494862933054
  Basis Set: CC-PVTZ
  Basis Set:
  Charge       = 0
  Multiplicity = 1
  Basis Set: CC-PVTZ
  Basis Set:

    Orbital Energies (a.u.)
    -----------------------

    Doubly Occupied:

       1A    -26.341136     2A    -26.339532     3A    -26.337220
       4A    -20.603311     5A    -11.497126     6A    -11.320008
       7A    -11.302598     8A    -11.215033     9A     -1.749695
      10A     -1.646160    11A     -1.644566    12A     -1.443932
      13A     -1.088828    14A     -1.020418    15A     -0.931578
      16A     -0.843632    17A     -0.838821    18A     -0.826549
      19A     -0.799480    20A     -0.727198    21A     -0.718616
      22A     -0.701983    23A     -0.681304    24A     -0.667575
      25A     -0.660984    26A     -0.650073    27A     -0.641443
      28A     -0.586466    29A     -0.565154    30A     -0.531327
      31A     -0.515821    32A     -0.352336

  @DF-RHF Final Energy:  -527.72774973333742

   => Energetics <=

    Nuclear Repulsion Energy =            412.8138286154988918
    One-Electron Energy =               -1549.5033503240852042
    Two-Electron Energy =                 608.9617719752488938
    DFT Exchange-Correlation Energy =       0.0000000000000000
    Empirical Dispersion Energy =           0.0000000000000000
    PCM Polarization Energy =               0.0000000000000000
    EFP Energy =                            0.0000000000000000
    Total Energy =                       -527.7277497333373049
    Molecular point group: c1
  Basis Set: CC-PVTZ
  Basis Set:

  -Total Gradient:
     Atom            X                  Y                   Z
    ------   -----------------  -----------------  -----------------
       1        0.016719444408    -0.002998983112     0.016017730493
       2       -0.015079058285     0.008271980880    -0.020169021647
       3       -0.021918108878    -0.014492574959    -0.002267100158
       4        0.000004688188     0.000021297071    -0.000039460385
       5       -0.000021712814    -0.000024955073    -0.000049702939
       6        0.020330974872     0.009267639097     0.006476710450
       7       -0.000042990002    -0.000120689110     0.000030202938
       8       -0.000000960725     0.000017142683     0.000019930960
       9        0.000017727160     0.000028713967    -0.000025776982
      10       -0.000048306445     0.000006425303     0.000043537874
      11       -0.000049331272     0.000007441544     0.000028140462
      12        0.000090642299     0.000000161634    -0.000032001749
      13       -0.000003008500     0.000016400081    -0.000033189320

  **** Optimization is complete! (in 13 steps) ****
    Final optimized geometry and variables:
    Molecular point group: c1

    Geometry (in Angstrom), charge = 0, multiplicity = 1:

    H           -0.667284350162     2.429215927222     2.878549378763
    C           -0.846403858649     1.371836627913     2.872748708925
    C           -0.215957609810     0.549030588734     2.064889761559
    H           -1.246160702891     0.958390258424     3.778727926499
    O            0.372263770066     1.000443003467     0.930058930121
    H            0.129279627368    -0.421440567979     2.373463303733
    C            1.034163587961     0.098273542666     0.117345054668
    C            0.122895197532    -0.469465609156    -0.951455122814
    H            1.452674289307    -0.732674062273     0.672543137580
    H            1.836142659563     0.620174793423    -0.382663176429
    F            0.806441724857    -1.298296510253    -1.715316399211
    F           -0.882309471286    -1.140906322918    -0.433206587910
    F           -0.377176669500     0.466716084587    -1.720860553421

  Mulliken Charges: (a.u.)
   Center  Symbol    Alpha    Beta     Spin     Total
       1     H     0.42371  0.42371  0.00000  0.15257
       2     C     3.19208  3.19208  0.00000 -0.38416
       3     C     2.95806  2.95806  0.00000  0.08387
       4     H     0.43265  0.43265  0.00000  0.13471
       5     O     4.14603  4.14603  0.00000 -0.29207
       6     H     0.43222  0.43222  0.00000  0.13556
       7     C     3.01925  3.01925  0.00000 -0.03850
       8     C     2.67619  2.67619  0.00000  0.64763
       9     H     0.45558  0.45558  0.00000  0.08883
      10     H     0.43529  0.43529  0.00000  0.12943
      11     F     4.61293  4.61293  0.00000 -0.22586
      12     F     4.60946  4.60946  0.00000 -0.21893
      13     F     4.60654  4.60654  0.00000 -0.21307

   Total alpha = 32.00000, Total beta = 32.00000, Total charge = -0.00000

*** Psi4 exiting successfully. Buy a developer a beer!
