  ==> Input File <==

--------------------------------------------------------------------------
set {
	reference rhf
	basis 6-31G*
}

set_num_threads( 1 )
memory 2 gb

molecule MOL {
0 1

O	 0.749854	 1.307668	 -0.000040
C	 0.576249	 0.131685	 -0.000108
C	 -0.766779	 -0.556801	 -0.000461
O	 1.568443	 -0.749345	 -0.000005
C	 -1.945214	 0.412366	 0.000161
H	 -0.796911	 -1.211249	 -0.867467
H	 -0.796854	 -1.212390	 0.865687
C	 -1.636638	 1.691123	 -0.777097
H	 -2.207979	 0.655811	 1.024022
H	 -2.813197	 -0.079258	 -0.425850
H	 -0.788728	 2.219191	 -0.349727
H	 -2.485963	 2.366313	 -0.764187
H	 -1.401775	 1.476099	 -1.815884
C	 2.886820	 -0.232538	 0.000322
H	 3.059106	 0.369571	 -0.880203
H	 3.540187	 -1.091012	 0.000050
H	 3.059019	 0.368956	 0.881266

	symmetry c1
}
set optking {
	frozen_dihedral = ("
		1 2 3 6,
		14 4 2 1
	")
}

ee = energy('scf')
oeprop('DIPOLE', 'QUADRUPOLE', 'MULLIKEN_CHARGES')
f=open( 'psi4out.xyz', 'w' )
f.write( "17  " )
f.write( str(ee) + "\n" )
f.write( MOL.save_string_xyz() )
f.close()
--------------------------------------------------------------------------

    Molecular point group: c1

    Geometry (in Angstrom), charge = 0, multiplicity = 1:

       Center              X                  Y                   Z               Mass
    ------------   -----------------  -----------------  -----------------  -----------------
           O          0.506797163190     1.012055489512     0.114368530944    15.994914619560
           C          0.333192163190    -0.163927510488     0.114300530944    12.000000000000
           C         -1.009835836810    -0.852413510488     0.113947530944    12.000000000000
           O          1.325386163190    -1.044957510488     0.114403530944    15.994914619560
           C         -2.188270836810     0.116753489512     0.114569530944    12.000000000000
           H         -1.039967836810    -1.506861510488    -0.753058469056     1.007825032070
           H         -1.039910836810    -1.508002510488     0.980095530944     1.007825032070
           C         -1.879694836810     1.395510489512    -0.662688469056    12.000000000000
           H         -2.451035836810     0.360198489512     1.138430530944     1.007825032070
           H         -3.056253836810    -0.374870510488    -0.311441469056     1.007825032070
           H         -1.031784836810     1.923578489512    -0.235318469056     1.007825032070
           H         -2.729019836810     2.070700489512    -0.649778469056     1.007825032070
           H         -1.644831836810     1.180486489512    -1.701475469056     1.007825032070
           C          2.643763163190    -0.528150510488     0.114730530944    12.000000000000
           H          2.816049163190     0.073958489512    -0.765794469056     1.007825032070
           H          3.297130163190    -1.386624510488     0.114458530944     1.007825032070
           H          2.815962163190     0.073343489512     0.995674530944     1.007825032070

  Charge       = 0
  Multiplicity = 1
  Basis Set: 6-31G*
  Basis Set:

    Orbital Energies (a.u.)
    -----------------------

    Doubly Occupied:

       1A    -20.606762     2A    -20.546407     3A    -11.377077
       4A    -11.283027     5A    -11.236315     6A    -11.219236
       7A    -11.184519     8A     -1.473876     9A     -1.369782
      10A     -1.077770    11A     -0.998363    12A     -0.932173
      13A     -0.825353    14A     -0.773713    15A     -0.699427
      16A     -0.685458    17A     -0.674535    18A     -0.628970
      19A     -0.614577    20A     -0.561565    21A     -0.553896
      22A     -0.530777    23A     -0.518707    24A     -0.509492
      25A     -0.477248    26A     -0.470069    27A     -0.459658
      28A     -0.412247

  @DF-RHF Final Energy:  -344.88478297980811

   => Energetics <=

    Nuclear Repulsion Energy =            323.5038251966502116
    One-Electron Energy =               -1111.3752843218362614
    Two-Electron Energy =                 442.9866761453782829
    DFT Exchange-Correlation Energy =       0.0000000000000000
    Empirical Dispersion Energy =           0.0000000000000000
    PCM Polarization Energy =               0.0000000000000000
    EFP Energy =                            0.0000000000000000
    Total Energy =                       -344.8847829798077100

  Mulliken Charges: (a.u.)
   Center  Symbol    Alpha    Beta     Spin     Total
       1     O     4.28880  4.28880  0.00000 -0.57759
       2     C     2.60172  2.60172  0.00000  0.79657
       3     C     3.21022  3.21022  0.00000 -0.42045
       4     O     4.30686  4.30686  0.00000 -0.61373
       5     C     3.15379  3.15379  0.00000 -0.30758
       6     H     0.39887  0.39887  0.00000  0.20225
       7     H     0.39761  0.39761  0.00000  0.20477
       8     C     3.25740  3.25740  0.00000 -0.51480
       9     H     0.41734  0.41734  0.00000  0.16532
      10     H     0.41713  0.41713  0.00000  0.16573
      11     H     0.37469  0.37469  0.00000  0.25063
      12     H     0.42750  0.42750  0.00000  0.14500
      13     H     0.42969  0.42969  0.00000  0.14062
      14     C     3.09278  3.09278  0.00000 -0.18557
      15     H     0.40885  0.40885  0.00000  0.18230
      16     H     0.40783  0.40783  0.00000  0.18434
      17     H     0.40891  0.40891  0.00000  0.18218

   Total alpha = 28.00000, Total beta = 28.00000, Total charge = -0.00000
