                              Psi4 1.0.54 Driver

  ==> Input File <==

--------------------------------------------------------------------------
set {
	reference rhf
	basis cc-pvtz
}

set_num_threads( 4 )
memory 2 gb

molecule MOL {
0 1

O	 -2.081319	 -0.951530	 -0.502732
N	 -1.613558	 0.006676	 0.014756
C	 -0.329345	 -0.171618	 0.743966
O	 -2.068523	 1.100482	 -0.024385
C	 -0.442626	 -1.355710	 1.695901
H	 -0.154985	 0.751258	 1.271524
H	 0.422354	 -0.333969	 -0.010238
C	 0.856843	 -1.576696	 2.465779
H	 -1.257068	 -1.174522	 2.387575
H	 -0.690897	 -2.243223	 1.125446
C	 0.772686	 -2.761673	 3.421409
H	 1.102627	 -0.678438	 3.024491
H	 1.669846	 -1.735739	 1.763540
H	 -0.010508	 -2.615637	 4.156922
H	 0.558665	 -3.680414	 2.886783
H	 1.706434	 -2.897066	 3.953334

	symmetry c1
}
set optking {
	frozen_dihedral = ("
		5 3 2 1
	")
}

ee,wfn = optimize('scf', return_wfn=True)
oeprop( wfn, 'DIPOLE', 'QUADRUPOLE', 'MULLIKEN_CHARGES')
f=open( 'psi4out.xyz', 'w' )
f.write( "16  " )
f.write( str(ee) + "\n" )
f.write( MOL.save_string_xyz() )
f.close()
--------------------------------------------------------------------------

    Molecular point group: c1
  Charge       = 0
  Multiplicity = 1
  Basis Set: CC-PVTZ
  Basis Set:
  @DF-RHF Final Energy:  -360.90856178759634
    Total Energy =                       -360.9085617875964545
    Molecular point group: c1
  Basis Set: CC-PVTZ
  Basis Set:
  Basis Set: CC-PVTZ
  Basis Set:
  @DF-RHF Final Energy:  -360.90498201648757
    Total Energy =                       -360.9049820164875655
  Basis Set: CC-PVTZ
  Basis Set:
  Basis Set: CC-PVTZ
  Basis Set:
  @DF-RHF Final Energy:  -360.90709327842029
    Total Energy =                       -360.9070932784197225
  Basis Set: CC-PVTZ
  Basis Set:
  Basis Set: CC-PVTZ
  Basis Set:
  @DF-RHF Final Energy:  -360.90900162314387
    Total Energy =                       -360.9090016231435811
  Basis Set: CC-PVTZ
  Basis Set:
  Basis Set: CC-PVTZ
  Basis Set:
  @DF-RHF Final Energy:  -360.90902008808496
    Total Energy =                       -360.9090200880849579
  Basis Set: CC-PVTZ
  Basis Set:
  Basis Set: CC-PVTZ
  Basis Set:
  @DF-RHF Final Energy:  -360.90902630449204
    Total Energy =                       -360.9090263044915332
  Basis Set: CC-PVTZ
  Basis Set:
  Charge       = 0
  Multiplicity = 1
  Basis Set: CC-PVTZ
  Basis Set:

    Orbital Energies (a.u.)
    -----------------------

    Doubly Occupied:

       1A    -20.591546     2A    -20.588828     3A    -15.837036
       4A    -11.297145     5A    -11.246974     6A    -11.240699
       7A    -11.224993     8A     -1.635988     9A     -1.420066
      10A     -1.135090    11A     -1.059358    12A     -0.948864
      13A     -0.843510    14A     -0.825493    15A     -0.759448
      16A     -0.742864    17A     -0.729582    18A     -0.674132
      19A     -0.615342    20A     -0.605868    21A     -0.566653
      22A     -0.539054    23A     -0.518589    24A     -0.502991
      25A     -0.495744    26A     -0.485831    27A     -0.469524
      28A     -0.453551

  @DF-RHF Final Energy:  -360.90902672465086

   => Energetics <=

    Nuclear Repulsion Energy =            312.6574987077281094
    One-Electron Energy =               -1111.0235243397055456
    Two-Electron Energy =                 437.4569989073270335
    DFT Exchange-Correlation Energy =       0.0000000000000000
    Empirical Dispersion Energy =           0.0000000000000000
    PCM Polarization Energy =               0.0000000000000000
    EFP Energy =                            0.0000000000000000
    Total Energy =                       -360.9090267246504027
    Molecular point group: c1
  Basis Set: CC-PVTZ
  Basis Set:

  -Total Gradient:
     Atom            X                  Y                   Z
    ------   -----------------  -----------------  -----------------
       1       -0.000327500916    -0.000090116231     0.000479338038
       2        0.000467764935     0.000086919260    -0.000763481811
       3       -0.000312443856     0.000281848708     0.000613109237
       4       -0.000001615494    -0.000049248257    -0.000024554058
       5        0.000162157286    -0.000235100055    -0.000352081136
       6        0.000002929963     0.000002949577     0.000011192188
       7        0.000026406561     0.000003081041    -0.000011260539
       8       -0.000030166441     0.000023388278     0.000022968136
       9        0.000004266445    -0.000004335552     0.000017692070
      10       -0.000010146178    -0.000001887806    -0.000007703408
      11        0.000023294539    -0.000017147000     0.000001313647
      12        0.000006038211     0.000005720743     0.000015547891
      13       -0.000013603002     0.000003177018    -0.000002054773
      14        0.000002180951     0.000009526924     0.000001306560
      15       -0.000005151913    -0.000006893602    -0.000003022612
      16        0.000005588910    -0.000011883048     0.000001690572

  **** Optimization is complete! (in 7 steps) ****
    Final optimized geometry and variables:
    Molecular point group: c1

    Geometry (in Angstrom), charge = 0, multiplicity = 1:

    O           -1.364116797560    -0.123988627461    -1.630831107007
    N           -0.890436594124     0.815738291170    -1.085034588136
    C            0.380127152271     0.604143026828    -0.333529542643
    O           -1.336493710099     1.912950110094    -1.100713044112
    C            0.289725149600    -0.584013927285     0.609061578323
    H            0.572288690231     1.531239853338     0.177774937475
    H            1.130117025451     0.447078712343    -1.096173286170
    C            1.592398362213    -0.771265840913     1.383604856995
    H           -0.530252729361    -0.426945781739     1.302381016620
    H            0.060807909005    -1.474169478192     0.039993251356
    C            1.534780992875    -1.956882682134     2.340475853495
    H            1.818155538803     0.132470632621     1.942045159431
    H            2.410728519845    -0.912644927195     0.683275881135
    H            0.747395182721    -1.828340460003     3.074893335381
    H            1.342274787536    -2.880691214507     1.806489571129
    H            2.470566101597    -2.070344480435     2.874054895709

  Mulliken Charges: (a.u.)
   Center  Symbol    Alpha    Beta     Spin     Total
       1     O     4.17329  4.17329  0.00000 -0.34658
       2     N     3.27626  3.27626  0.00000  0.44748
       3     C     3.04363  3.04363  0.00000 -0.08727
       4     O     4.16939  4.16939  0.00000 -0.33878
       5     C     3.09996  3.09996  0.00000 -0.19993
       6     H     0.43137  0.43137  0.00000  0.13727
       7     H     0.43680  0.43680  0.00000  0.12640
       8     C     3.09393  3.09393  0.00000 -0.18786
       9     H     0.44368  0.44368  0.00000  0.11264
      10     H     0.43262  0.43262  0.00000  0.13476
      11     C     3.14801  3.14801  0.00000 -0.29601
      12     H     0.45067  0.45067  0.00000  0.09867
      13     H     0.45126  0.45126  0.00000  0.09749
      14     H     0.45213  0.45213  0.00000  0.09574
      15     H     0.45156  0.45156  0.00000  0.09687
      16     H     0.44544  0.44544  0.00000  0.10912

   Total alpha = 28.00000, Total beta = 28.00000, Total charge =  0.00000

*** Psi4 exiting successfully. Buy a developer a beer!
