                              Psi4 1.0.54 Driver

  ==> Input File <==

--------------------------------------------------------------------------
set {
	reference rhf
	basis cc-pvtz
}

set_num_threads( 4 )
memory 2 gb

molecule MOL {
0 1

H	 3.268561	 0.166663	 0.191188
N	 2.422809	 -0.362321	 0.212824
C	 1.263552	 0.494993	 0.021953
H	 2.384804	 -0.820947	 1.099139
C	 -0.016533	 -0.325589	 -0.026925
H	 1.389455	 1.017524	 -0.920440
H	 1.169850	 1.260121	 0.793823
C	 -1.280353	 0.525521	 0.047747
H	 -0.016686	 -0.912532	 -0.939714
H	 -0.014099	 -1.037598	 0.796369
C	 -2.560681	 -0.301323	 -0.007747
H	 -1.279957	 1.241025	 -0.770189
H	 -1.270445	 1.110526	 0.963468
H	 -2.617064	 -0.872870	 -0.928010
H	 -3.439525	 0.331102	 0.043462
H	 -2.609427	 -1.002736	 0.818585

	symmetry c1
}
set optking {
	frozen_dihedral = ("
		6 3 5 9
	")
}

ee,wfn = optimize('scf', return_wfn=True)
oeprop( wfn, 'DIPOLE', 'QUADRUPOLE', 'MULLIKEN_CHARGES')
f=open( 'psi4out.xyz', 'w' )
f.write( "16  " )
f.write( str(ee) + "\n" )
f.write( MOL.save_string_xyz() )
f.close()
--------------------------------------------------------------------------

    Molecular point group: c1
  Charge       = 0
  Multiplicity = 1
  Basis Set: CC-PVTZ
  Basis Set:
  @DF-RHF Final Energy:  -212.39970071552054
    Total Energy =                       -212.3997007155205665
    Molecular point group: c1
  Basis Set: CC-PVTZ
  Basis Set:
  Basis Set: CC-PVTZ
  Basis Set:
  @DF-RHF Final Energy:  -212.39977289309772
    Total Energy =                       -212.3997728930978610
  Basis Set: CC-PVTZ
  Basis Set:
  Basis Set: CC-PVTZ
  Basis Set:
  @DF-RHF Final Energy:  -212.39979701049955
    Total Energy =                       -212.3997970104995829
  Basis Set: CC-PVTZ
  Basis Set:
  Charge       = 0
  Multiplicity = 1
  Basis Set: CC-PVTZ
  Basis Set:

    Orbital Energies (a.u.)
    -----------------------

    Doubly Occupied:

       1A    -15.526267     2A    -11.238186     3A    -11.212790
       4A    -11.208038     5A    -11.205823     6A     -1.177928
       7A     -1.060683     8A     -0.959468     9A     -0.844316
      10A     -0.791919    11A     -0.667944    12A     -0.634147
      13A     -0.609992    14A     -0.576029    15A     -0.562853
      16A     -0.527792    17A     -0.500975    18A     -0.470791
      19A     -0.465828    20A     -0.461002    21A     -0.383880

  @DF-RHF Final Energy:  -212.39979737104557

   => Energetics <=

    Nuclear Repulsion Energy =            186.5664562504930473
    One-Electron Energy =                -655.7592033091937083
    Two-Electron Energy =                 256.7929496876552093
    DFT Exchange-Correlation Energy =       0.0000000000000000
    Empirical Dispersion Energy =           0.0000000000000000
    PCM Polarization Energy =               0.0000000000000000
    EFP Energy =                            0.0000000000000000
    Total Energy =                       -212.3997973710454517
    Molecular point group: c1
  Basis Set: CC-PVTZ
  Basis Set:

  -Total Gradient:
     Atom            X                  Y                   Z
    ------   -----------------  -----------------  -----------------
       1       -0.000003816414    -0.000024686077     0.000014584382
       2        0.000021503145     0.000036514841     0.000000495558
       3       -0.001816431657     0.002784868638     0.000816211669
       4        0.000003650504     0.000011464416    -0.000017735359
       5        0.001705293657    -0.002698568229     0.001248587243
       6        0.001271710544    -0.001945517099    -0.000894281363
       7       -0.000008622795    -0.000023943766    -0.000010373304
       8        0.000004885917    -0.000025076580     0.000069292425
       9       -0.001140475508     0.001839199370    -0.001198462603
      10       -0.000009251028     0.000034219644    -0.000009795397
      11       -0.000016492187     0.000003385316    -0.000027726324
      12       -0.000000838209    -0.000011354150     0.000011152730
      13       -0.000015222218     0.000012499765     0.000004514033
      14        0.000002544394    -0.000010432038     0.000004082698
      15       -0.000003311196     0.000003293297    -0.000011745033
      16        0.000004873052     0.000014132652     0.000001198644

  **** Optimization is complete! (in 4 steps) ****
    Final optimized geometry and variables:
    Molecular point group: c1

    Geometry (in Angstrom), charge = 0, multiplicity = 1:

    H            3.275404371941     0.162152380822     0.072731311066
    N            2.429207431531    -0.363370003938     0.130772337333
    C            1.265198913993     0.495136549305    -0.030960172964
    H            2.420958599367    -0.811928232976     1.022849902256
    C           -0.013600852513    -0.331312329101    -0.059934202351
    H            1.378236983928     1.008808137585    -0.979473178951
    H            1.189426689821     1.258192938467     0.744053882237
    C           -1.277883197590     0.522448078979    -0.006825038977
    H           -0.022452925464    -0.927075187703    -0.966778599386
    H           -0.012454051015    -1.026293570836     0.776405917108
    C           -2.558507740201    -0.301420041654    -0.090460202685
    H           -1.260523455791     1.241504681274    -0.821841228315
    H           -1.284296138076     1.104068711352     0.910939550546
    H           -2.600694478790    -0.865934420237    -1.015816296296
    H           -3.437128908403     0.332093543445    -0.048947766772
    H           -2.622049654589    -1.009168768420     0.729502307305

  Mulliken Charges: (a.u.)
   Center  Symbol    Alpha    Beta     Spin     Total
       1     H     0.42993  0.42993  0.00000  0.14015
       2     N     3.69052  3.69052  0.00000 -0.38103
       3     C     3.02711  3.02711  0.00000 -0.05421
       4     H     0.43079  0.43079  0.00000  0.13842
       5     C     3.07783  3.07783  0.00000 -0.15567
       6     H     0.45615  0.45615  0.00000  0.08770
       7     H     0.46860  0.46860  0.00000  0.06280
       8     C     3.08900  3.08900  0.00000 -0.17801
       9     H     0.45088  0.45088  0.00000  0.09824
      10     H     0.45973  0.45973  0.00000  0.08055
      11     C     3.14942  3.14942  0.00000 -0.29884
      12     H     0.45524  0.45524  0.00000  0.08953
      13     H     0.45635  0.45635  0.00000  0.08729
      14     H     0.45432  0.45432  0.00000  0.09136
      15     H     0.44879  0.44879  0.00000  0.10243
      16     H     0.45536  0.45536  0.00000  0.08929

   Total alpha = 21.00000, Total beta = 21.00000, Total charge = -0.00000

*** Psi4 exiting successfully. Buy a developer a beer!
