  ==> Input File <==

--------------------------------------------------------------------------
set {
	reference rhf
	basis 6-31G*
}

set_num_threads( 1 )
memory 2 gb

molecule MOL {
0 1

O	 -1.851455	 -2.293994	 0.445248
C	 -1.281625	 -1.924252	 -0.536088
C	 -0.889235	 -0.467034	 -0.705952
C	 -0.894350	 -2.884457	 -1.638539
C	 0.379448	 -0.143569	 0.099626
H	 -1.712222	 0.139506	 -0.343868
H	 -0.732601	 -0.233143	 -1.755136
C	 1.631333	 -0.777471	 -0.511575
H	 0.482768	 0.934507	 0.149241
H	 0.263088	 -0.495696	 1.123449
C	 2.915987	 -0.544314	 0.291766
H	 1.766672	 -0.399098	 -1.523130
H	 1.471257	 -1.849544	 -0.605828
C	 3.373361	 0.914346	 0.347591
H	 3.708709	 -1.142521	 -0.150311
H	 2.780642	 -0.921148	 1.303579
H	 3.506512	 1.320010	 -0.651625
H	 4.322697	 0.999599	 0.867103
H	 2.660624	 1.545032	 0.868198
H	 -1.452737	 -2.649086	 -2.540796
H	 -1.110103	 -3.900173	 -1.337611
H	 0.160125	 -2.787177	 -1.880247

	symmetry c1
}
set optking {
	frozen_dihedral = ("
		6 3 2 1,
		3 5 8 12,
		12 8 11 15
	")
}

ee = energy('scf')
oeprop('DIPOLE', 'QUADRUPOLE', 'MULLIKEN_CHARGES')
f=open( 'psi4out.xyz', 'w' )
f.write( "22  " )
f.write( str(ee) + "\n" )
f.write( MOL.save_string_xyz() )
f.close()
--------------------------------------------------------------------------

    Molecular point group: c1

    Geometry (in Angstrom), charge = 0, multiplicity = 1:

       Center              X                  Y                   Z               Mass
    ------------   -----------------  -----------------  -----------------  -----------------
           O         -2.284800865017    -1.276277103088     0.719067370947    15.994914619560
           C         -1.714970865017    -0.906535103088    -0.262268629053    12.000000000000
           C         -1.322580865017     0.550682896912    -0.432132629053    12.000000000000
           C         -1.327695865017    -1.866740103088    -1.364719629053    12.000000000000
           C         -0.053897865017     0.874147896912     0.373445370947    12.000000000000
           H         -2.145567865017     1.157222896912    -0.070048629053     1.007825032070
           H         -1.165946865017     0.784573896912    -1.481316629053     1.007825032070
           C          1.197987134983     0.240245896912    -0.237755629053    12.000000000000
           H          0.049422134983     1.952223896912     0.423060370947     1.007825032070
           H         -0.170257865017     0.522020896912     1.397268370947     1.007825032070
           C          2.482641134983     0.473402896912     0.565585370947    12.000000000000
           H          1.333326134983     0.618618896912    -1.249310629053     1.007825032070
           H          1.037911134983    -0.831827103088    -0.332008629053     1.007825032070
           C          2.940015134983     1.932062896912     0.621410370947    12.000000000000
           H          3.275363134983    -0.124804103088     0.123508370947     1.007825032070
           H          2.347296134983     0.096568896912     1.577398370947     1.007825032070
           H          3.073166134983     2.337726896912    -0.377805629053     1.007825032070
           H          3.889351134983     2.017315896912     1.140922370947     1.007825032070
           H          2.227278134983     2.562748896912     1.142017370947     1.007825032070
           H         -1.886082865017    -1.631369103088    -2.266976629053     1.007825032070
           H         -1.543448865017    -2.882456103088    -1.063791629053     1.007825032070
           H         -0.273220865017    -1.769460103088    -1.606427629053     1.007825032070

  Charge       = 0
  Multiplicity = 1
  Basis Set: 6-31G*
  Basis Set:

    Orbital Energies (a.u.)
    -----------------------

    Doubly Occupied:

       1A    -20.547483     2A    -11.324050     3A    -11.229279
       4A    -11.228686     5A    -11.226757     6A    -11.224213
       7A    -11.221817     8A    -11.213480     9A     -1.393132
      10A     -1.098370    11A     -1.043633    12A     -0.998601
      13A     -0.940632    14A     -0.858936    15A     -0.790170
      16A     -0.731809    17A     -0.664248    18A     -0.641388
      19A     -0.628903    20A     -0.616470    21A     -0.594330
      22A     -0.587698    23A     -0.563892    24A     -0.551879
      25A     -0.532582    26A     -0.520956    27A     -0.499263
      28A     -0.493149    29A     -0.471534    30A     -0.463959
      31A     -0.452065    32A     -0.397569

  @DF-RHF Final Energy:  -348.09450071314967

   => Energetics <=

    Nuclear Repulsion Energy =            381.0736892694807807
    One-Electron Energy =               -1226.8346299278318838
    Two-Electron Energy =                 497.6664399452020575
    DFT Exchange-Correlation Energy =       0.0000000000000000
    Empirical Dispersion Energy =           0.0000000000000000
    PCM Polarization Energy =               0.0000000000000000
    EFP Energy =                            0.0000000000000000
    Total Energy =                       -348.0945007131489888

  Mulliken Charges: (a.u.)
   Center  Symbol    Alpha    Beta     Spin     Total
       1     O     4.26277  4.26277  0.00000 -0.52554
       2     C     2.73891  2.73891  0.00000  0.52218
       3     C     3.20065  3.20065  0.00000 -0.40130
       4     C     3.29048  3.29048  0.00000 -0.58095
       5     C     3.16365  3.16365  0.00000 -0.32729
       6     H     0.39932  0.39932  0.00000  0.20137
       7     H     0.41659  0.41659  0.00000  0.16682
       8     C     3.15900  3.15900  0.00000 -0.31801
       9     H     0.41266  0.41266  0.00000  0.17468
      10     H     0.40680  0.40680  0.00000  0.18639
      11     C     3.15221  3.15221  0.00000 -0.30441
      12     H     0.42355  0.42355  0.00000  0.15290
      13     H     0.42059  0.42059  0.00000  0.15881
      14     C     3.24212  3.24212  0.00000 -0.48424
      15     H     0.41981  0.41981  0.00000  0.16037
      16     H     0.41987  0.41987  0.00000  0.16026
      17     H     0.42214  0.42214  0.00000  0.15573
      18     H     0.41730  0.41730  0.00000  0.16540
      19     H     0.41938  0.41938  0.00000  0.16124
      20     H     0.40734  0.40734  0.00000  0.18532
      21     H     0.39773  0.39773  0.00000  0.20454
      22     H     0.40713  0.40713  0.00000  0.18575

   Total alpha = 32.00000, Total beta = 32.00000, Total charge = -0.00000
