  ==> Input File <==

--------------------------------------------------------------------------
set {
	reference rhf
	basis 6-31G*
}

set_num_threads( 1 )
memory 2 gb

molecule MOL {
0 1

H	 -3.246233	 -0.966892	 -0.412327
O	 -2.310168	 -0.871793	 -0.309793
C	 -2.026376	 0.340750	 0.341611
C	 -0.673256	 0.843270	 -0.132153
H	 -2.792215	 1.080697	 0.115987
H	 -2.013526	 0.200402	 1.421792
C	 0.486613	 -0.083066	 0.235839
H	 -0.715586	 0.970948	 -1.210718
H	 -0.508072	 1.829858	 0.297090
C	 1.840406	 0.433480	 -0.254303
H	 0.300215	 -1.068318	 -0.178947
H	 0.519509	 -0.203625	 1.318070
C	 3.000220	 -0.489290	 0.118523
H	 1.809207	 0.553576	 -1.335192
H	 2.021860	 1.424500	 0.157276
H	 2.864959	 -1.479103	 -0.307933
H	 3.946603	 -0.099227	 -0.243630
H	 3.080049	 -0.602997	 1.196117

	symmetry c1
}
set optking {
	frozen_dihedral = ("
		14 10 7 11,
		10 7 4 8,
		2 3 4 8
	")
}

ee = energy('scf')
oeprop('DIPOLE', 'QUADRUPOLE', 'MULLIKEN_CHARGES')
f=open( 'psi4out.xyz', 'w' )
f.write( "18  " )
f.write( str(ee) + "\n" )
f.write( MOL.save_string_xyz() )
f.close()
--------------------------------------------------------------------------

    Molecular point group: c1

    Geometry (in Angstrom), charge = 0, multiplicity = 1:

       Center              X                  Y                   Z               Mass
    ------------   -----------------  -----------------  -----------------  -----------------
           H         -3.244965265014    -0.969731452833    -0.407593981899     1.007825032070
           O         -2.308900265014    -0.874632452833    -0.305059981899    15.994914619560
           C         -2.025108265014     0.337910547167     0.346344018101    12.000000000000
           C         -0.671988265014     0.840430547167    -0.127419981899    12.000000000000
           H         -2.790947265014     1.077857547167     0.120720018101     1.007825032070
           H         -2.012258265014     0.197562547167     1.426525018101     1.007825032070
           C          0.487880734986    -0.085905452833     0.240572018101    12.000000000000
           H         -0.714318265014     0.968108547167    -1.205984981899     1.007825032070
           H         -0.506804265014     1.827018547167     0.301823018101     1.007825032070
           C          1.841673734986     0.430640547167    -0.249569981899    12.000000000000
           H          0.301482734986    -1.071157452833    -0.174213981899     1.007825032070
           H          0.520776734986    -0.206464452833     1.322803018101     1.007825032070
           C          3.001487734986    -0.492129452833     0.123256018101    12.000000000000
           H          1.810474734986     0.550736547167    -1.330458981899     1.007825032070
           H          2.023127734986     1.421660547167     0.162009018101     1.007825032070
           H          2.866226734986    -1.481942452833    -0.303199981899     1.007825032070
           H          3.947870734986    -0.102066452833    -0.238896981899     1.007825032070
           H          3.081316734986    -0.605836452833     1.200850018101     1.007825032070

  Charge       = 0
  Multiplicity = 1
  Basis Set: 6-31G*
  Basis Set:

    Orbital Energies (a.u.)
    -----------------------

    Doubly Occupied:

       1A    -20.552414     2A    -11.268079     3A    -11.211008
       4A    -11.210421     5A    -11.206000     6A    -11.204115
       7A     -1.359660     8A     -1.074326     9A     -1.008270
      10A     -0.912687    11A     -0.817785    12A     -0.784358
      13A     -0.703151    14A     -0.646809    15A     -0.619244
      16A     -0.579378    17A     -0.573948    18A     -0.552832
      19A     -0.517913    20A     -0.510723    21A     -0.488495
      22A     -0.466404    23A     -0.457914    24A     -0.441876
      25A     -0.430219

  @DF-RHF Final Energy:  -271.17875036738445

   => Energetics <=

    Nuclear Repulsion Energy =            249.0288677912839717
    One-Electron Energy =                -861.2190053719789375
    Two-Electron Energy =                 341.0113872133107407
    DFT Exchange-Correlation Energy =       0.0000000000000000
    Empirical Dispersion Energy =           0.0000000000000000
    PCM Polarization Energy =               0.0000000000000000
    EFP Energy =                            0.0000000000000000
    Total Energy =                       -271.1787503673841684

  Mulliken Charges: (a.u.)
   Center  Symbol    Alpha    Beta     Spin     Total
       1     H     0.27989  0.27989  0.00000  0.44022
       2     O     4.37039  4.37039  0.00000 -0.74078
       3     C     2.99856  2.99856  0.00000  0.00288
       4     C     3.15751  3.15751  0.00000 -0.31502
       5     H     0.43031  0.43031  0.00000  0.13938
       6     H     0.42949  0.42949  0.00000  0.14103
       7     C     3.15366  3.15366  0.00000 -0.30732
       8     H     0.41769  0.41769  0.00000  0.16462
       9     H     0.42563  0.42563  0.00000  0.14875
      10     C     3.15164  3.15164  0.00000 -0.30327
      11     H     0.40775  0.40775  0.00000  0.18450
      12     H     0.42662  0.42662  0.00000  0.14675
      13     C     3.23894  3.23894  0.00000 -0.47787
      14     H     0.42284  0.42284  0.00000  0.15432
      15     H     0.42531  0.42531  0.00000  0.14938
      16     H     0.42079  0.42079  0.00000  0.15842
      17     H     0.42053  0.42053  0.00000  0.15895
      18     H     0.42247  0.42247  0.00000  0.15507

   Total alpha = 25.00000, Total beta = 25.00000, Total charge =  0.00000
