                              Psi4 1.0.54 Driver

  ==> Input File <==

--------------------------------------------------------------------------
set {
	reference rhf
	basis cc-pvtz
}

set_num_threads( 4 )
memory 2 gb

molecule MOL {
0 1

H	 2.211839	 1.002192	 -2.262312
O	 1.376117	 1.163166	 -1.865183
C	 1.391238	 0.750324	 -0.523040
C	 0.027642	 1.012027	 0.090274
H	 2.142931	 1.303525	 0.034360
H	 1.646116	 -0.303546	 -0.453354
C	 -1.138737	 0.285728	 -0.581921
H	 -0.155663	 2.080988	 0.055217
H	 0.075319	 0.735483	 1.140733
C	 -1.933983	 -0.631436	 0.343653
H	 -0.763151	 -0.285569	 -1.422081
H	 -1.808359	 1.035291	 -0.992333
H	 -2.789188	 -1.049673	 -0.174718
H	 -1.335629	 -1.461368	 0.700418
H	 -2.305435	 -0.092167	 1.209725

	symmetry c1
}
set optking {
	frozen_dihedral = ("
		8 4 7 11
	")
}

ee,wfn = optimize('scf', return_wfn=True)
oeprop( wfn, 'DIPOLE', 'QUADRUPOLE', 'MULLIKEN_CHARGES')
f=open( 'psi4out.xyz', 'w' )
f.write( "15  " )
f.write( str(ee) + "\n" )
f.write( MOL.save_string_xyz() )
f.close()
--------------------------------------------------------------------------

    Molecular point group: c1
  Charge       = 0
  Multiplicity = 1
  Basis Set: CC-PVTZ
  Basis Set:
  @DF-RHF Final Energy:  -232.23322281055175
    Total Energy =                       -232.2332228105518084
    Molecular point group: c1
  Basis Set: CC-PVTZ
  Basis Set:
  Basis Set: CC-PVTZ
  Basis Set:
  @DF-RHF Final Energy:  -232.23379918751166
    Total Energy =                       -232.2337991875114653
  Basis Set: CC-PVTZ
  Basis Set:
  Basis Set: CC-PVTZ
  Basis Set:
  @DF-RHF Final Energy:  -232.23384619187803
    Total Energy =                       -232.2338461918780013
  Basis Set: CC-PVTZ
  Basis Set:
  Basis Set: CC-PVTZ
  Basis Set:
  @DF-RHF Final Energy:  -232.23384863419278
    Total Energy =                       -232.2338486341927251
  Basis Set: CC-PVTZ
  Basis Set:
  Charge       = 0
  Multiplicity = 1
  Basis Set: CC-PVTZ
  Basis Set:

    Orbital Energies (a.u.)
    -----------------------

    Doubly Occupied:

       1A    -20.546372     2A    -11.266263     3A    -11.210343
       4A    -11.207884     5A    -11.204557     6A     -1.364444
       7A     -1.064037     8A     -0.975026     9A     -0.859281
      10A     -0.786660    11A     -0.706161    12A     -0.649573
      13A     -0.603009    14A     -0.585914    15A     -0.557697
      16A     -0.537796    17A     -0.503485    18A     -0.476265
      19A     -0.471111    20A     -0.453437    21A     -0.432626

  @DF-RHF Final Energy:  -232.23384924332410

   => Energetics <=

    Nuclear Repulsion Energy =            189.0689587182675098
    One-Electron Energy =                -689.6817335000309868
    Two-Electron Energy =                 268.3789255384395460
    DFT Exchange-Correlation Energy =       0.0000000000000000
    Empirical Dispersion Energy =           0.0000000000000000
    PCM Polarization Energy =               0.0000000000000000
    EFP Energy =                            0.0000000000000000
    Total Energy =                       -232.2338492433239594
    Molecular point group: c1
  Basis Set: CC-PVTZ
  Basis Set:

  -Total Gradient:
     Atom            X                  Y                   Z
    ------   -----------------  -----------------  -----------------
       1       -0.000001001335     0.000003049806     0.000021276923
       2       -0.000023121913     0.000035530800     0.000013077858
       3        0.000046226274    -0.000054954334    -0.000014139061
       4       -0.000136659163     0.000023907359     0.000150325240
       5        0.000006674686    -0.000000653760    -0.000030177042
       6        0.000004645131    -0.000002180150     0.000032281728
       7        0.000089204966    -0.000172467120     0.000121204486
       8        0.000066969389     0.000010883553    -0.000169693178
       9       -0.000003545304    -0.000001545665    -0.000021089337
      10       -0.000013468014    -0.000005699122    -0.000035583487
      11       -0.000028828508     0.000147341377    -0.000101260015
      12       -0.000000181718     0.000020242795     0.000017588038
      13       -0.000004175295    -0.000016108702     0.000018687206
      14        0.000005732479    -0.000000161148    -0.000001710205
      15       -0.000008471676     0.000012814311    -0.000000789154

  **** Optimization is complete! (in 5 steps) ****
    Final optimized geometry and variables:
    Molecular point group: c1

    Geometry (in Angstrom), charge = 0, multiplicity = 1:

    H            2.228958341206     0.413788308128    -1.718361736980
    O            1.412886338950     0.642353524888    -1.313697790805
    C            1.390059976913     0.195681918490     0.016914524236
    C            0.033017317358     0.509657958992     0.615239786301
    H            2.168297063861     0.688554707651     0.594319439385
    H            1.575017367843    -0.876190704352     0.061275151010
    C           -1.134026382118    -0.239850071598    -0.058288461895
    H           -0.118999570044     1.581154678415     0.553005817945
    H            0.073438747639     0.263538175160     1.672048507030
    C           -1.920362164756    -1.123967276944     0.905366833042
    H           -0.752426984710    -0.844813338512    -0.872345144606
    H           -1.809491544436     0.472966637533    -0.516243177066
    H           -2.729346853360    -1.636845290399     0.397399984321
    H           -1.281953414602    -1.877941459329     1.355270156326
    H           -2.353281044359    -0.538449858757     1.709998145573

  Mulliken Charges: (a.u.)
   Center  Symbol    Alpha    Beta     Spin     Total
       1     H     0.39547  0.39547  0.00000  0.20906
       2     O     4.19954  4.19954  0.00000 -0.39908
       3     C     2.97319  2.97319  0.00000  0.05362
       4     C     3.09291  3.09291  0.00000 -0.18583
       5     H     0.46514  0.46514  0.00000  0.06973
       6     H     0.47371  0.47371  0.00000  0.05259
       7     C     3.08623  3.08623  0.00000 -0.17246
       8     H     0.44867  0.44867  0.00000  0.10266
       9     H     0.45516  0.45516  0.00000  0.08968
      10     C     3.14811  3.14811  0.00000 -0.29621
      11     H     0.44935  0.44935  0.00000  0.10130
      12     H     0.44961  0.44961  0.00000  0.10077
      13     H     0.44968  0.44968  0.00000  0.10064
      14     H     0.45766  0.45766  0.00000  0.08468
      15     H     0.45558  0.45558  0.00000  0.08884

   Total alpha = 21.00000, Total beta = 21.00000, Total charge = -0.00000

*** Psi4 exiting successfully. Buy a developer a beer!
