                              Psi4 1.0.54 Driver

  ==> Input File <==

--------------------------------------------------------------------------
set {
	reference rhf
	basis cc-pvtz
}

set_num_threads( 4 )
memory 2 gb

molecule MOL {
0 1

H	 2.719805	 -0.518204	 0.792635
N	 2.326826	 -0.066186	 0.000000
C	 0.934676	 -0.005420	 0.000000
H	 2.777373	 0.800679	 -0.180483
C	 0.226436	 -0.001077	 -1.195129
C	 0.226436	 -0.001077	 1.195129
H	 0.759091	 -0.011439	 -2.128123
C	 -1.153391	 0.009141	 -1.189028
H	 0.759091	 -0.011439	 2.128123
C	 -1.153391	 0.009141	 1.189028
H	 -1.680905	 0.012964	 -2.124348
C	 -1.857876	 0.014675	 0.000000
H	 -1.680905	 0.012964	 2.124348
H	 -2.930222	 0.022904	 0.000000

	symmetry c1
}
set optking {
	frozen_dihedral = ("
		1 2 3 5
	")
}

ee,wfn = optimize('scf', return_wfn=True)
oeprop( wfn, 'DIPOLE', 'QUADRUPOLE', 'MULLIKEN_CHARGES')
f=open( 'psi4out.xyz', 'w' )
f.write( "14  " )
f.write( str(ee) + "\n" )
f.write( MOL.save_string_xyz() )
f.close()
--------------------------------------------------------------------------

    Molecular point group: c1
  Charge       = 0
  Multiplicity = 1
  Basis Set: CC-PVTZ
  Basis Set:
  @DF-RHF Final Energy:  -285.82815612955147
    Total Energy =                       -285.8281561295515303
    Molecular point group: c1
  Basis Set: CC-PVTZ
  Basis Set:
  Basis Set: CC-PVTZ
  Basis Set:
  @DF-RHF Final Energy:  -285.82876932524920
    Total Energy =                       -285.8287693252495956
  Basis Set: CC-PVTZ
  Basis Set:
  Basis Set: CC-PVTZ
  Basis Set:
  @DF-RHF Final Energy:  -285.82884865169382
    Total Energy =                       -285.8288486516939884
  Basis Set: CC-PVTZ
  Basis Set:
  Basis Set: CC-PVTZ
  Basis Set:
  @DF-RHF Final Energy:  -285.82887883386053
    Total Energy =                       -285.8288788338605855
  Basis Set: CC-PVTZ
  Basis Set:
  Basis Set: CC-PVTZ
  Basis Set:
  @DF-RHF Final Energy:  -285.82888632514289
    Total Energy =                       -285.8288863251431735
  Basis Set: CC-PVTZ
  Basis Set:
  Charge       = 0
  Multiplicity = 1
  Basis Set: CC-PVTZ
  Basis Set:

    Orbital Energies (a.u.)
    -----------------------

    Doubly Occupied:

       1A    -15.544624     2A    -11.262554     3A    -11.227741
       4A    -11.226628     5A    -11.221453     6A    -11.220293
       7A    -11.218023     8A     -1.213295     9A     -1.131104
      10A     -1.014904    11A     -0.989364    12A     -0.830779
      13A     -0.811462    14A     -0.706274    15A     -0.675660
      16A     -0.649763    17A     -0.621820    18A     -0.594975
      19A     -0.584558    20A     -0.511443    21A     -0.504024
      22A     -0.493107    23A     -0.423922    24A     -0.335934
      25A     -0.315932

  @DF-RHF Final Energy:  -285.82888694407268

   => Energetics <=

    Nuclear Repulsion Energy =            273.1770724794274656
    One-Electron Energy =                -927.3526469960575014
    Two-Electron Energy =                 368.3466875725574141
    DFT Exchange-Correlation Energy =       0.0000000000000000
    Empirical Dispersion Energy =           0.0000000000000000
    PCM Polarization Energy =               0.0000000000000000
    EFP Energy =                            0.0000000000000000
    Total Energy =                       -285.8288869440726216
    Molecular point group: c1
  Basis Set: CC-PVTZ
  Basis Set:

  -Total Gradient:
     Atom            X                  Y                   Z
    ------   -----------------  -----------------  -----------------
       1       -0.000179573263    -0.003286035573    -0.001780875308
       2        0.000208304992     0.002859730063     0.002302009136
       3        0.000089965170     0.003253742587    -0.000515590121
       4       -0.000005508491    -0.000018479899     0.000001553112
       5       -0.000230805925    -0.002823239790     0.000017566628
       6        0.000088179193     0.000035694265    -0.000011393997
       7        0.000005234297     0.000002167385     0.000007709516
       8        0.000105209467     0.000010890966    -0.000047676079
       9       -0.000006830993    -0.000005865311    -0.000005845734
      10       -0.000060428930    -0.000028562064    -0.000042155318
      11       -0.000012564885    -0.000004859353    -0.000002078520
      12       -0.000002238606    -0.000005190878     0.000078474399
      13       -0.000004450992     0.000005200890     0.000004040346
      14        0.000005508966     0.000004806713    -0.000005738060

  **** Optimization is complete! (in 6 steps) ****
    Final optimized geometry and variables:
    Molecular point group: c1

    Geometry (in Angstrom), charge = 0, multiplicity = 1:

    H            2.732579723424    -0.513451778974     0.762905343302
    N            2.344819272850    -0.061518288436    -0.033947256094
    C            0.928497079191    -0.002758757476     0.001863007923
    H            2.775412008794     0.826066564610    -0.171609866040
    C            0.226181553451    -0.008457574200    -1.193786682053
    C            0.220570211634    -0.000776625164     1.193032387026
    H            0.773344062250    -0.044288969460    -2.115861240905
    C           -1.153906334835     0.023187524565    -1.195563140716
    H            0.753567018640    -0.002921930211     2.125839197643
    C           -1.162266151887     0.006080152984     1.189061124264
    H           -1.682593091131     0.025863390090    -2.129956702424
    C           -1.856464376185     0.026540898269    -0.004153067256
    H           -1.694712868094     0.003443018607     2.121328985075
    H           -2.929317247154     0.038341283943    -0.007303648033

  Mulliken Charges: (a.u.)
   Center  Symbol    Alpha    Beta     Spin     Total
       1     H     0.42011  0.42011  0.00000  0.15979
       2     N     3.70362  3.70362  0.00000 -0.40725
       3     C     2.89104  2.89104  0.00000  0.21792
       4     H     0.41927  0.41927  0.00000  0.16145
       5     C     3.10684  3.10684  0.00000 -0.21368
       6     C     3.11345  3.11345  0.00000 -0.22690
       7     H     0.42077  0.42077  0.00000  0.15845
       8     C     3.06469  3.06469  0.00000 -0.12937
       9     H     0.42917  0.42917  0.00000  0.14166
      10     C     3.06999  3.06999  0.00000 -0.13997
      11     H     0.42360  0.42360  0.00000  0.15279
      12     C     3.08931  3.08931  0.00000 -0.17861
      13     H     0.42399  0.42399  0.00000  0.15203
      14     H     0.42415  0.42415  0.00000  0.15170

   Total alpha = 25.00000, Total beta = 25.00000, Total charge =  0.00000

*** Psi4 exiting successfully. Buy a developer a beer!
