  ==> Input File <==

--------------------------------------------------------------------------
set {
	reference rhf
	basis cc-pvtz
}

set_num_threads( 4 )
memory 2 gb

molecule MOL {
0 1

H	 -0.000105	 1.988529	 0.748933
O	 -0.000098	 1.879786	 -0.188206
C	 -0.000014	 0.545691	 -0.532416
C	 -1.155657	 -0.178541	 0.160227
C	 1.377277	 -0.066804	 -0.272238
H	 -0.178496	 0.477190	 -1.595484
F	 -2.289597	 0.367759	 -0.203910
F	 -1.203864	 -1.449436	 -0.149956
F	 -1.067002	 -0.079202	 1.469290
F	 2.275481	 0.569127	 -0.983348
F	 1.428591	 -1.333314	 -0.599399
F	 1.719005	 0.043713	 0.993615

	symmetry c1
}
set optking {
	frozen_dihedral = ("
		6 3 2 1
	")
}

ee = optimize('scf')
oeprop('DIPOLE', 'QUADRUPOLE', 'MULLIKEN_CHARGES')
f=open( 'psi4out.xyz', 'w' )
f.write( "12  " )
f.write( str(ee) + "\n" )
f.write( MOL.save_string_xyz() )
f.close()
--------------------------------------------------------------------------

    Molecular point group: c1
  Charge       = 0
  Multiplicity = 1
  Basis Set: CC-PVTZ
  Basis Set:
  @DF-RHF Final Energy:  -786.58928935937456
    Total Energy =                       -786.5892893593747885
    Molecular point group: c1
  Basis Set: CC-PVTZ
  Basis Set:
  Basis Set: CC-PVTZ
  Basis Set:
  @DF-RHF Final Energy:  -786.58931314173219
    Total Energy =                       -786.5893131417324184
  Basis Set: CC-PVTZ
  Basis Set:
  Basis Set: CC-PVTZ
  Basis Set:
  @DF-RHF Final Energy:  -786.58932154654588
    Total Energy =                       -786.5893215465466710
  Basis Set: CC-PVTZ
  Basis Set:
  Charge       = 0
  Multiplicity = 1
  Basis Set: CC-PVTZ
  Basis Set:

    Orbital Energies (a.u.)
    -----------------------

    Doubly Occupied:

       1A    -26.360490     2A    -26.358985     3A    -26.356495
       4A    -26.355680     5A    -26.355480     6A    -26.352161
       7A    -20.609800     8A    -11.521630     9A    -11.518036
      10A    -11.351604    11A     -1.772559    12A     -1.766018
      13A     -1.668468    14A     -1.664249    15A     -1.662452
      16A     -1.660210    17A     -1.439708    18A     -1.103243
      19A     -1.002004    20A     -0.945346    21A     -0.871285
      22A     -0.869053    23A     -0.859757    24A     -0.852023
      25A     -0.839851    26A     -0.821756    27A     -0.749839
      28A     -0.734827    29A     -0.730801    30A     -0.725512
      31A     -0.696495    32A     -0.692466    33A     -0.690368
      34A     -0.681349    35A     -0.677315    36A     -0.669817
      37A     -0.663042    38A     -0.657983    39A     -0.625230
      40A     -0.553908    41A     -0.510186

  @DF-RHF Final Energy:  -786.58932196390765

   => Energetics <=

    Nuclear Repulsion Energy =            670.8577024033645557
    One-Electron Energy =               -2428.8990927847753483
    Two-Electron Energy =                 971.4520684175038241
    DFT Exchange-Correlation Energy =       0.0000000000000000
    Empirical Dispersion Energy =           0.0000000000000000
    PCM Polarization Energy =               0.0000000000000000
    EFP Energy =                            0.0000000000000000
    Total Energy =                       -786.5893219639069684
    Molecular point group: c1
  Basis Set: CC-PVTZ
  Basis Set:

  -Total Gradient:
     Atom            X                  Y                   Z
    ------   -----------------  -----------------  -----------------
       1       -0.001327588805    -0.000002603413     0.000009683898
       2        0.001399836385    -0.000010923439     0.000034642874
       3        0.001062427281     0.000076834928    -0.000254577934
       4       -0.000001603434     0.000034477294     0.000117650219
       5        0.000061633865    -0.000162379955    -0.000028972590
       6       -0.001133066505    -0.000047502922     0.000202320849
       7        0.000059386657    -0.000003279071    -0.000012268015
       8        0.000001603354    -0.000086342374    -0.000092563151
       9       -0.000004526368     0.000054683781     0.000007531291
      10       -0.000021354390     0.000077115520    -0.000012883608
      11       -0.000041006983     0.000016027875     0.000000017640
      12       -0.000055741058     0.000053891782     0.000029418526

  **** Optimization is complete! (in 4 steps) ****
    Final optimized geometry and variables:
    Molecular point group: c1

    Geometry (in Angstrom), charge = 0, multiplicity = 1:

    H           -0.098408928720     1.988373371979     0.757040454325
    O           -0.107927163815     1.877931114416    -0.179701975276
    C           -0.112776355202     0.543303514650    -0.523033049779
    C           -1.266864576607    -0.178916438086     0.174174415229
    C            1.264038124600    -0.071527963158    -0.266799092944
    H           -0.301940732018     0.472882042713    -1.584233068736
    F           -2.403708233555     0.342985321873    -0.217039754751
    F           -1.295107091392    -1.457786278168    -0.100092139419
    F           -1.196050150992    -0.040561043390     1.481564484541
    F            2.166452059320     0.587972160916    -0.949802361503
    F            1.320526105445    -1.327360078930    -0.635084274920
    F            1.593008230288    -0.001839579311     1.004496598141

  Mulliken Charges: (a.u.)
   Center  Symbol    Alpha    Beta     Spin     Total
       1     H     0.38128  0.38128  0.00000  0.23744
       2     O     4.18999  4.18999  0.00000 -0.37998
       3     C     3.00459  3.00459  0.00000 -0.00918
       4     C     2.68589  2.68589  0.00000  0.62822
       5     C     2.68475  2.68475  0.00000  0.63051
       6     H     0.42476  0.42476  0.00000  0.15049
       7     F     4.60225  4.60225  0.00000 -0.20450
       8     F     4.60122  4.60122  0.00000 -0.20244
       9     F     4.61069  4.61069  0.00000 -0.22138
      10     F     4.60176  4.60176  0.00000 -0.20353
      11     F     4.60338  4.60338  0.00000 -0.20677
      12     F     4.60944  4.60944  0.00000 -0.21889

   Total alpha = 41.00000, Total beta = 41.00000, Total charge =  0.00000
