  ==> Input File <==

--------------------------------------------------------------------------
set {
	reference rhf
	basis cc-pvtz
}

set_num_threads( 4 )
memory 2 gb

molecule MOL {
0 1

H	 -1.329343	 -0.525827	 -1.058765
N	 -1.173824	 -0.310545	 -0.096857
C	 -0.022588	 0.563366	 0.065815
H	 -2.003944	 0.126785	 0.245567
C	 1.270420	 -0.230572	 -0.014245
H	 -0.045354	 1.293678	 -0.735129
H	 -0.043155	 1.123061	 1.001180
H	 1.336273	 -0.754933	 -0.959364
H	 2.130728	 0.422015	 0.082222
H	 1.323344	 -0.967006	 0.781773

	symmetry c1
}
set optking {
	frozen_dihedral = ("
		1 2 3 6
	")
}

ee = optimize('scf')
oeprop('DIPOLE', 'QUADRUPOLE', 'MULLIKEN_CHARGES')
f=open( 'psi4out.xyz', 'w' )
f.write( "10  " )
f.write( str(ee) + "\n" )
f.write( MOL.save_string_xyz() )
f.close()
--------------------------------------------------------------------------

    Molecular point group: c1
  Charge       = 0
  Multiplicity = 1
  Basis Set: CC-PVTZ
  Basis Set:
  @DF-RHF Final Energy:  -134.30226365993857
    Total Energy =                       -134.3022636599384896
    Molecular point group: c1
  Basis Set: CC-PVTZ
  Basis Set:
  Basis Set: CC-PVTZ
  Basis Set:
  @DF-RHF Final Energy:  -134.30377344239244
    Total Energy =                       -134.3037734423924974
  Basis Set: CC-PVTZ
  Basis Set:
  Basis Set: CC-PVTZ
  Basis Set:
  @DF-RHF Final Energy:  -134.30400748855061
    Total Energy =                       -134.3040074885505817
  Basis Set: CC-PVTZ
  Basis Set:
  Basis Set: CC-PVTZ
  Basis Set:
  @DF-RHF Final Energy:  -134.30401022268273
    Total Energy =                       -134.3040102226826775
  Basis Set: CC-PVTZ
  Basis Set:
  Charge       = 0
  Multiplicity = 1
  Basis Set: CC-PVTZ
  Basis Set:

    Orbital Energies (a.u.)
    -----------------------

    Doubly Occupied:

       1A    -15.527637     2A    -11.241439     3A    -11.202065
       4A     -1.177697     5A     -0.987931     6A     -0.822242
       7A     -0.667732     8A     -0.629044     9A     -0.577065
      10A     -0.517288    11A     -0.511977    12A     -0.483524
      13A     -0.386325

  @DF-RHF Final Energy:  -134.30401055226386

   => Energetics <=

    Nuclear Repulsion Energy =             83.3284467236351247
    One-Electron Energy =                -345.8009813055674613
    Two-Electron Energy =                 128.1685240296684469
    DFT Exchange-Correlation Energy =       0.0000000000000000
    Empirical Dispersion Energy =           0.0000000000000000
    PCM Polarization Energy =               0.0000000000000000
    EFP Energy =                            0.0000000000000000
    Total Energy =                       -134.3040105522638896
    Molecular point group: c1
  Basis Set: CC-PVTZ
  Basis Set:

  -Total Gradient:
     Atom            X                  Y                   Z
    ------   -----------------  -----------------  -----------------
       1       -0.001438281724     0.001917941943    -0.000158672896
       2        0.002126172832    -0.002752543414    -0.000179108537
       3       -0.001857685258     0.002174559292     0.001634400855
       4       -0.000017408135    -0.000006877337     0.000004285642
       5        0.000000900726     0.000030149219     0.000003719161
       6        0.001184168196    -0.001377013221    -0.001308068807
       7        0.000008648792     0.000003637484     0.000005504667
       8       -0.000006371749     0.000004491199     0.000001228997
       9        0.000008585999    -0.000000763715    -0.000000442193
      10       -0.000008729678     0.000006418551    -0.000002846889

  **** Optimization is complete! (in 5 steps) ****
    Final optimized geometry and variables:
    Molecular point group: c1

    Geometry (in Angstrom), charge = 0, multiplicity = 1:

    H           -1.355553683487    -0.544445761575    -1.005313382146
    N           -1.174579156728    -0.323605060671    -0.048392354052
    C           -0.020263164208     0.558150181536     0.071941711869
    H           -1.997556302027     0.123617187108     0.296178938856
    C            1.275829398249    -0.235780196269     0.017356354794
    H            0.005390168931     1.321236868692    -0.705015779398
    H           -0.086878493543     1.072654042122     1.023085782290
    H            1.363059765456    -0.766010632743    -0.925518582806
    H            2.135714386114     0.418927518402     0.111450078184
    H            1.306026330263    -0.968101347772     0.814256480992

  Mulliken Charges: (a.u.)
   Center  Symbol    Alpha    Beta     Spin     Total
       1     H     0.43079  0.43079  0.00000  0.13842
       2     N     3.68952  3.68952  0.00000 -0.37903
       3     C     3.02586  3.02586  0.00000 -0.05171
       4     H     0.42861  0.42861  0.00000  0.14278
       5     C     3.13183  3.13183  0.00000 -0.26366
       6     H     0.46703  0.46703  0.00000  0.06594
       7     H     0.45699  0.45699  0.00000  0.08602
       8     H     0.45945  0.45945  0.00000  0.08111
       9     H     0.45836  0.45836  0.00000  0.08328
      10     H     0.45157  0.45157  0.00000  0.09687

   Total alpha = 13.00000, Total beta = 13.00000, Total charge =  0.00000
