                              Psi4 1.0.54 Driver

  ==> Input File <==

--------------------------------------------------------------------------
set {
	reference rhf
	basis cc-pvtz
}

set_num_threads( 4 )
memory 2 gb

molecule MOL {
0 1

H	 2.347532	 -1.899763	 -0.201255
O	 2.824271	 -1.154299	 0.131461
C	 2.076458	 -0.067370	 -0.038225
C	 0.626018	 -0.337582	 0.258241
O	 2.538288	 0.965419	 -0.381593
C	 -0.267326	 0.883135	 0.076490
H	 0.325620	 -1.161483	 -0.378003
H	 0.574537	 -0.713685	 1.275261
C	 -1.726822	 0.642622	 0.463839
H	 -0.210803	 1.217591	 -0.953497
H	 0.129920	 1.693110	 0.675679
C	 -2.480891	 -0.340606	 -0.429852
H	 -2.243098	 1.597649	 0.438609
H	 -1.776542	 0.301208	 1.495542
C	 -3.955933	 -0.460128	 -0.060472
H	 -2.393755	 -0.020485	 -1.464726
H	 -2.024244	 -1.323637	 -0.374360
H	 -4.467673	 -1.160944	 -0.709827
H	 -4.458917	 0.497287	 -0.144505
H	 -4.076458	 -0.806900	 0.960497

	symmetry c1
}
set optking {
	frozen_dihedral = ("
		1 2 3 5
	")
}

ee,wfn = optimize('scf', return_wfn=True)
oeprop( wfn, 'DIPOLE', 'QUADRUPOLE', 'MULLIKEN_CHARGES')
f=open( 'psi4out.xyz', 'w' )
f.write( "20  " )
f.write( str(ee) + "\n" )
f.write( MOL.save_string_xyz() )
f.close()
--------------------------------------------------------------------------

    Molecular point group: c1
  Charge       = 0
  Multiplicity = 1
  Basis Set: CC-PVTZ
  Basis Set:
  @DF-RHF Final Energy:  -384.07950670362754
    Total Energy =                       -384.0795067036277146
    Molecular point group: c1
  Basis Set: CC-PVTZ
  Basis Set:
  Basis Set: CC-PVTZ
  Basis Set:
  @DF-RHF Final Energy:  -384.08062676947952
    Total Energy =                       -384.0806267694786698
  Basis Set: CC-PVTZ
  Basis Set:
  Basis Set: CC-PVTZ
  Basis Set:
  @DF-RHF Final Energy:  -384.08070962791243
    Total Energy =                       -384.0807096279124835
  Basis Set: CC-PVTZ
  Basis Set:
  Basis Set: CC-PVTZ
  Basis Set:
  @DF-RHF Final Energy:  -384.08082411194272
    Total Energy =                       -384.0808241119427180
  Basis Set: CC-PVTZ
  Basis Set:
  Basis Set: CC-PVTZ
  Basis Set:
  @DF-RHF Final Energy:  -384.08092675743455
    Total Energy =                       -384.0809267574344403
  Basis Set: CC-PVTZ
  Basis Set:
  Charge       = 0
  Multiplicity = 1
  Basis Set: CC-PVTZ
  Basis Set:

    Orbital Energies (a.u.)
    -----------------------

    Doubly Occupied:

       1A    -20.596810     2A    -20.541791     3A    -11.372953
       4A    -11.247224     5A    -11.225480     6A    -11.223492
       7A    -11.222565     8A    -11.214406     9A     -1.467356
      10A     -1.372878    11A     -1.101501    12A     -1.044485
      13A     -0.961143    14A     -0.867027    15A     -0.828593
      16A     -0.791719    17A     -0.720528    18A     -0.672239
      19A     -0.664713    20A     -0.638968    21A     -0.615430
      22A     -0.592933    23A     -0.574499    24A     -0.564019
      25A     -0.537602    26A     -0.518400    27A     -0.499467
      28A     -0.490330    29A     -0.475148    30A     -0.470641
      31A     -0.462584    32A     -0.444271

  @DF-RHF Final Energy:  -384.08092733341095

   => Energetics <=

    Nuclear Repulsion Energy =            376.3206499096224888
    One-Electron Energy =               -1268.7607650203751746
    Two-Electron Energy =                 508.3591877773416172
    DFT Exchange-Correlation Energy =       0.0000000000000000
    Empirical Dispersion Energy =           0.0000000000000000
    PCM Polarization Energy =               0.0000000000000000
    EFP Energy =                            0.0000000000000000
    Total Energy =                       -384.0809273334110685
    Molecular point group: c1
  Basis Set: CC-PVTZ
  Basis Set:

  -Total Gradient:
     Atom            X                  Y                   Z
    ------   -----------------  -----------------  -----------------
       1        0.002692401841     0.000761314419    -0.006310861340
       2       -0.003794629432    -0.001634474111     0.005452152053
       3        0.001959396015     0.002685545317     0.006481261965
       4       -0.000002204307     0.000019985012     0.000044804983
       5       -0.000799168717    -0.001813014662    -0.005640305639
       6       -0.000023876894    -0.000005220590    -0.000020181629
       7       -0.000001512550    -0.000005324894    -0.000022202060
       8       -0.000021905744    -0.000010187328    -0.000009434076
       9        0.000003051967    -0.000000605614     0.000007633700
      10        0.000009501468    -0.000003234547     0.000000622703
      11        0.000002271796     0.000005779814     0.000006834483
      12       -0.000003153577    -0.000004650325     0.000006651804
      13       -0.000009280485     0.000006639940    -0.000000063173
      14       -0.000005681079    -0.000004718291     0.000011895205
      15        0.000003047400     0.000006764140    -0.000005770206
      16        0.000002713611     0.000000435202    -0.000007491458
      17        0.000003829035    -0.000005228445     0.000001026015
      18       -0.000005959719    -0.000005104989    -0.000006324728
      19       -0.000008188822     0.000009044978     0.000001203885
      20       -0.000000651801    -0.000003745025     0.000008547513

  **** Optimization is complete! (in 6 steps) ****
    Final optimized geometry and variables:
    Molecular point group: c1

    Geometry (in Angstrom), charge = 0, multiplicity = 1:

    H            2.485520104344    -1.940780570212    -0.085128542304
    O            2.888248866065    -1.134872429710     0.188785413476
    C            2.088264690444    -0.075184977318    -0.026674149965
    C            0.628783533169    -0.317172569137     0.282042838405
    O            2.535671029531     0.936338510068    -0.422360672390
    C           -0.260414551399     0.890551696623     0.012673018912
    H            0.310467355846    -1.178566976944    -0.298551098750
    H            0.569086221043    -0.620064934899     1.323332604379
    C           -1.721403108545     0.687507118280     0.415685067463
    H           -0.200384850546     1.149941579101    -1.038413508160
    H            0.143550209680     1.737390964280     0.552709517284
    C           -2.483077428258    -0.352020694686    -0.405105553842
    H           -2.230660226747     1.641783770447     0.321111399969
    H           -1.773823046050     0.422456227626     1.469464654915
    C           -3.958606778375    -0.435124847840    -0.027433233800
    H           -2.394697454116    -0.107775724768    -1.460392650630
    H           -2.033590072916    -1.332300672185    -0.279295606125
    H           -4.474947368987    -1.179379733799    -0.622507518409
    H           -4.455732563752     0.516286415789    -0.182838578008
    H           -4.080567174384    -0.703647716667     1.016665855512

  Mulliken Charges: (a.u.)
   Center  Symbol    Alpha    Beta     Spin     Total
       1     H     0.38822  0.38822  0.00000  0.22356
       2     O     4.15588  4.15588  0.00000 -0.31175
       3     C     2.80182  2.80182  0.00000  0.39637
       4     C     3.12378  3.12378  0.00000 -0.24756
       5     O     4.16835  4.16835  0.00000 -0.33669
       6     C     3.09672  3.09672  0.00000 -0.19345
       7     H     0.45220  0.45220  0.00000  0.09559
       8     H     0.43551  0.43551  0.00000  0.12898
       9     C     3.09936  3.09936  0.00000 -0.19873
      10     H     0.44432  0.44432  0.00000  0.11136
      11     H     0.43610  0.43610  0.00000  0.12781
      12     C     3.08714  3.08714  0.00000 -0.17427
      13     H     0.44467  0.44467  0.00000  0.11067
      14     H     0.45336  0.45336  0.00000  0.09329
      15     C     3.14928  3.14928  0.00000 -0.29856
      16     H     0.45186  0.45186  0.00000  0.09627
      17     H     0.45652  0.45652  0.00000  0.08697
      18     H     0.44758  0.44758  0.00000  0.10484
      19     H     0.45277  0.45277  0.00000  0.09445
      20     H     0.45458  0.45458  0.00000  0.09084

   Total alpha = 32.00000, Total beta = 32.00000, Total charge =  0.00000

*** Psi4 exiting successfully. Buy a developer a beer!
