                              Psi4 1.0.54 Driver

  ==> Input File <==

--------------------------------------------------------------------------
set {
	reference rhf
	basis cc-pvtz
}

set_num_threads( 4 )
memory 2 gb

molecule MOL {
0 1

H	 -0.859497	 3.953759	 -1.476969
O	 -0.045149	 3.473960	 -1.495617
C	 -0.203115	 2.349323	 -0.803394
C	 1.055862	 1.525555	 -0.783053
O	 -1.226213	 2.071344	 -0.279972
C	 0.926581	 0.227233	 0.000178
H	 1.842177	 2.154331	 -0.377989
H	 1.331057	 1.337817	 -1.815884
C	 2.220156	 -0.582071	 -0.000088
H	 0.633694	 0.452031	 1.019550
H	 0.121938	 -0.365500	 -0.420106
C	 3.466689	 0.296012	 -0.000457
H	 2.239073	 -1.234095	 -0.869382
H	 2.239505	 -1.233985	 0.869270
H	 3.493549	 0.935857	 -0.875887
H	 4.368821	 -0.304526	 -0.001199
H	 3.494559	 0.935166	 0.875458

	symmetry c1
}
set optking {
	frozen_dihedral = ("
		10 6 9 13
	")
}

ee,wfn = optimize('scf', return_wfn=True)
oeprop( wfn, 'DIPOLE', 'QUADRUPOLE', 'MULLIKEN_CHARGES')
f=open( 'psi4out.xyz', 'w' )
f.write( "17  " )
f.write( str(ee) + "\n" )
f.write( MOL.save_string_xyz() )
f.close()
--------------------------------------------------------------------------

    Molecular point group: c1
  Charge       = 0
  Multiplicity = 1
  Basis Set: CC-PVTZ
  Basis Set:
  @DF-RHF Final Energy:  -345.04112091287124
    Total Energy =                       -345.0411209128713494
    Molecular point group: c1
  Basis Set: CC-PVTZ
  Basis Set:
  Basis Set: CC-PVTZ
  Basis Set:
  @DF-RHF Final Energy:  -345.04126532418371
    Total Energy =                       -345.0412653241836551
  Basis Set: CC-PVTZ
  Basis Set:
  Basis Set: CC-PVTZ
  Basis Set:
  @DF-RHF Final Energy:  -345.04410111823779
    Total Energy =                       -345.0441011182376769
  Basis Set: CC-PVTZ
  Basis Set:
  Basis Set: CC-PVTZ
  Basis Set:
  @DF-RHF Final Energy:  -345.04427967163059
    Total Energy =                       -345.0442796716305338
  Basis Set: CC-PVTZ
  Basis Set:
  @DF-RHF Final Energy:  -345.04429260015917
    Total Energy =                       -345.0442926001593378
  Basis Set: CC-PVTZ
  Basis Set:
  @DF-RHF Final Energy:  -345.04429824491905
    Total Energy =                       -345.0442982449190481
  Basis Set: CC-PVTZ
  Basis Set:
  Basis Set: CC-PVTZ
  Basis Set:
  @DF-RHF Final Energy:  -345.04430381510576
    Total Energy =                       -345.0443038151055362
  Basis Set: CC-PVTZ
  Basis Set:
  Basis Set: CC-PVTZ
  Basis Set:
  @DF-RHF Final Energy:  -345.04430692725748
    Total Energy =                       -345.0443069272573666
  Basis Set: CC-PVTZ
  Basis Set:
  Charge       = 0
  Multiplicity = 1
  Basis Set: CC-PVTZ
  Basis Set:

    Orbital Energies (a.u.)
    -----------------------

    Doubly Occupied:

       1A    -20.603915     2A    -20.540607     3A    -11.373573
       4A    -11.239072     5A    -11.221244     6A    -11.220654
       7A    -11.213636     8A     -1.477553     9A     -1.369079
      10A     -1.091489    11A     -1.016690    12A     -0.921897
      13A     -0.834381    14A     -0.775603    15A     -0.703762
      16A     -0.693732    17A     -0.668554    18A     -0.625767
      19A     -0.607295    20A     -0.579308    21A     -0.563677
      22A     -0.551356    23A     -0.522260    24A     -0.484625
      25A     -0.477665    26A     -0.475552    27A     -0.464621
      28A     -0.447263

  @DF-RHF Final Energy:  -345.04430750986211

   => Energetics <=

    Nuclear Repulsion Energy =            308.4003200235848112
    One-Electron Energy =               -1081.3595915126093132
    Two-Electron Energy =                 427.9149639791622235
    DFT Exchange-Correlation Energy =       0.0000000000000000
    Empirical Dispersion Energy =           0.0000000000000000
    PCM Polarization Energy =               0.0000000000000000
    EFP Energy =                            0.0000000000000000
    Total Energy =                       -345.0443075098623353
    Molecular point group: c1
  Basis Set: CC-PVTZ
  Basis Set:

  -Total Gradient:
     Atom            X                  Y                   Z
    ------   -----------------  -----------------  -----------------
       1       -0.000000670270     0.000004005991    -0.000000952415
       2       -0.000001813795     0.000003864949    -0.000001697763
       3       -0.000006757131    -0.000002257255    -0.000002056517
       4       -0.000004468479    -0.000016050574    -0.000015428622
       5        0.000006589742     0.000004000668     0.000003253316
       6        0.003339723079     0.004848308421     0.000469615900
       7       -0.000002930089     0.000004503929     0.000003112667
       8        0.000005384296    -0.000000151209     0.000001321623
       9        0.002493378417     0.003804656301    -0.003623608570
      10       -0.003182292393    -0.004656056540     0.000187794806
      11       -0.000004899374    -0.000002101386     0.000013223004
      12       -0.000004645211    -0.000003902145     0.000010285838
      13       -0.002625864796    -0.003980039459     0.002959617456
      14       -0.000006597394    -0.000009175244    -0.000006560316
      15       -0.000005125478     0.000000299594     0.000000034130
      16       -0.000000762878     0.000002128185    -0.000000302760
      17        0.000001751748    -0.000002034222     0.000002348222

  **** Optimization is complete! (in 9 steps) ****
    Final optimized geometry and variables:
    Molecular point group: c1

    Geometry (in Angstrom), charge = 0, multiplicity = 1:

    H           -1.857869202710     2.515957954823    -1.038587456383
    O           -1.020778006556     2.076934779955    -1.054467279951
    C           -1.114017185366     0.967479186192    -0.326451521548
    C            0.185891488004     0.209187815450    -0.300842354865
    O           -2.116157800490     0.655455562952     0.217763353687
    C            0.119757313895    -1.069960535339     0.520215292265
    H            0.939680826721     0.893902627830     0.069004142839
    H            0.453178648371     0.003315795978    -1.332643490661
    C            1.386548329010    -1.937194824745     0.479364123326
    H           -0.145295857293    -0.848001180691     1.547427284888
    H           -0.708450297133    -1.665609512968     0.154243577041
    C            2.716457465716    -1.195602046747     0.566921744399
    H            1.361228429015    -2.575087728660    -0.399234722437
    H            1.326066116879    -2.627804578992     1.315086459940
    H            2.893774398732    -0.568851091092    -0.299049968856
    H            3.538377688321    -1.898665812388     0.631780677081
    H            2.756073694397    -0.563034026648     1.448091763405

  Mulliken Charges: (a.u.)
   Center  Symbol    Alpha    Beta     Spin     Total
       1     H     0.38237  0.38237  0.00000  0.23527
       2     O     4.15980  4.15980  0.00000 -0.31959
       3     C     2.80691  2.80691  0.00000  0.38618
       4     C     3.11283  3.11283  0.00000 -0.22566
       5     O     4.19056  4.19056  0.00000 -0.38113
       6     C     3.09074  3.09074  0.00000 -0.18148
       7     H     0.43528  0.43528  0.00000  0.12944
       8     H     0.43668  0.43668  0.00000  0.12664
       9     C     3.09180  3.09180  0.00000 -0.18361
      10     H     0.44405  0.44405  0.00000  0.11190
      11     H     0.44290  0.44290  0.00000  0.11420
      12     C     3.15751  3.15751  0.00000 -0.31502
      13     H     0.45104  0.45104  0.00000  0.09792
      14     H     0.44851  0.44851  0.00000  0.10298
      15     H     0.45311  0.45311  0.00000  0.09379
      16     H     0.44360  0.44360  0.00000  0.11281
      17     H     0.45232  0.45232  0.00000  0.09535

   Total alpha = 28.00000, Total beta = 28.00000, Total charge = -0.00000

*** Psi4 exiting successfully. Buy a developer a beer!
