  ==> Input File <==

--------------------------------------------------------------------------
set {
	reference rhf
	basis cc-pvtz
}

set_num_threads( 4 )
memory 2 gb

molecule MOL {
0 1

H	 -2.544405	 -0.742043	 0.288213
O	 -2.263432	 -0.069105	 0.880758
C	 -1.142965	 0.593176	 0.364931
C	 0.103294	 -0.264164	 0.462924
H	 -1.297127	 0.894271	 -0.666429
H	 -1.009204	 1.490703	 0.951646
O	 1.172093	 0.457955	 -0.054438
H	 -0.037920	 -1.191241	 -0.095183
H	 0.278938	 -0.532694	 1.502450
C	 2.395478	 -0.199028	 -0.000366
H	 2.505946	 -0.901710	 -0.823354
H	 3.174616	 0.545641	 -0.071768
H	 2.513730	 -0.742241	 0.934223

	symmetry c1
}
set optking {
	frozen_dihedral = ("
		4 7 10 13
	")
}

ee = optimize('scf')
oeprop('DIPOLE', 'QUADRUPOLE', 'MULLIKEN_CHARGES')
f=open( 'psi4out.xyz', 'w' )
f.write( "13  " )
f.write( str(ee) + "\n" )
f.write( MOL.save_string_xyz() )
f.close()
--------------------------------------------------------------------------

    Molecular point group: c1
  Charge       = 0
  Multiplicity = 1
  Basis Set: CC-PVTZ
  Basis Set:
  @DF-RHF Final Energy:  -268.06133598067856
    Total Energy =                       -268.0613359806787344
    Molecular point group: c1
  Basis Set: CC-PVTZ
  Basis Set:
  Basis Set: CC-PVTZ
  Basis Set:
  @DF-RHF Final Energy:  -268.06137666179876
    Total Energy =                       -268.0613766617989313
  Basis Set: CC-PVTZ
  Basis Set:
  Charge       = 0
  Multiplicity = 1
  Basis Set: CC-PVTZ
  Basis Set:

    Orbital Energies (a.u.)
    -----------------------

    Doubly Occupied:

       1A    -20.555198     2A    -20.552817     3A    -11.269502
       4A    -11.267729     5A    -11.267378     6A     -1.390963
       7A     -1.369095     8A     -1.019710     9A     -0.914095
      10A     -0.842867    11A     -0.712049    12A     -0.675299
      13A     -0.662589    14A     -0.639846    15A     -0.596792
      16A     -0.572402    17A     -0.546644    18A     -0.492522
      19A     -0.483001    20A     -0.441607    21A     -0.423050

  @DF-RHF Final Energy:  -268.06138747235974

   => Energetics <=

    Nuclear Repulsion Energy =            190.4252427745038858
    One-Electron Energy =                -743.5829474527729417
    Two-Electron Energy =                 285.0963172059092017
    DFT Exchange-Correlation Energy =       0.0000000000000000
    Empirical Dispersion Energy =           0.0000000000000000
    PCM Polarization Energy =               0.0000000000000000
    EFP Energy =                            0.0000000000000000
    Total Energy =                       -268.0613874723598542
    Molecular point group: c1
  Basis Set: CC-PVTZ
  Basis Set:

  -Total Gradient:
     Atom            X                  Y                   Z
    ------   -----------------  -----------------  -----------------
       1       -0.000009788084    -0.000012801200     0.000000136660
       2        0.000075413764    -0.000016244675    -0.000036276786
       3        0.000035079825     0.000056795997    -0.000013515175
       4        0.000263830509     0.000663220200     0.001872490084
       5       -0.000029405757     0.000005868479    -0.000006235342
       6        0.000013227778     0.000007318569    -0.000005304329
       7       -0.000819410502    -0.001566156156    -0.002863494067
       8       -0.000004447695     0.000013088469    -0.000008469754
       9        0.000007950317     0.000005988431    -0.000007891111
      10        0.001376439395     0.002736579858     0.002096129883
      11        0.000014271623     0.000035578077     0.000046967281
      12        0.000037495042     0.000036699631    -0.000001742494
      13       -0.000960656215    -0.001965935679    -0.001072794852

  **** Optimization is complete! (in 3 steps) ****
    Final optimized geometry and variables:
    Molecular point group: c1

    Geometry (in Angstrom), charge = 0, multiplicity = 1:

    H           -2.577553286447    -0.829266662115    -0.046036146222
    O           -2.297705375072    -0.154442508540     0.544927363575
    C           -1.175528929154     0.505351358518     0.029635164266
    C            0.069182829527    -0.353444161871     0.132909259084
    H           -1.327594196050     0.804239711497    -1.002659110589
    H           -1.041282788050     1.404049895623     0.614495844307
    O            1.140744925236     0.370708816941    -0.376079806237
    H           -0.072413743652    -1.279620607527    -0.427144690264
    H            0.240206615994    -0.623046071763     1.172417680650
    C            2.368638408917    -0.281894924935    -0.331946993446
    H            2.467550577252    -0.985805616649    -1.155308432577
    H            3.149227453864     0.460423728223    -0.413072294038
    H            2.493763016047    -0.835536020496     0.594621264820

  Mulliken Charges: (a.u.)
   Center  Symbol    Alpha    Beta     Spin     Total
       1     H     0.39416  0.39416  0.00000  0.21168
       2     O     4.20209  4.20209  0.00000 -0.40419
       3     C     2.97388  2.97388  0.00000  0.05224
       4     C     2.96536  2.96536  0.00000  0.06928
       5     H     0.46657  0.46657  0.00000  0.06686
       6     H     0.45283  0.45283  0.00000  0.09434
       7     O     4.17675  4.17675  0.00000 -0.35351
       8     H     0.48310  0.48310  0.00000  0.03380
       9     H     0.46817  0.46817  0.00000  0.06367
      10     C     3.03090  3.03090  0.00000 -0.06180
      11     H     0.46693  0.46693  0.00000  0.06614
      12     H     0.44717  0.44717  0.00000  0.10566
      13     H     0.47209  0.47209  0.00000  0.05581

   Total alpha = 21.00000, Total beta = 21.00000, Total charge = -0.00000
