  ==> Input File <==

--------------------------------------------------------------------------
set {
	reference rhf
	basis cc-pvtz
}

set_num_threads( 4 )
memory 2 gb

molecule MOL {
0 1

H	 -0.037898	 -3.662188	 0.640306
O	 0.279637	 -2.809128	 0.384970
C	 -0.742504	 -1.958421	 0.397140
C	 -0.318151	 -0.570512	 0.000144
O	 -1.837394	 -2.294297	 0.691029
C	 -1.454884	 0.441630	 -0.000560
H	 0.474812	 -0.271956	 0.678351
H	 0.143723	 -0.644924	 -0.979159
C	 -2.822577	 -0.232186	 0.000063
H	 -1.359760	 1.084704	 -0.867077
H	 -1.359641	 1.085996	 0.864983
H	 -2.954352	 -0.858985	 -0.875745
H	 -3.615886	 0.505352	 0.000019
H	 -2.953878	 -0.858359	 0.876394

	symmetry c1
}
set optking {
	frozen_dihedral = ("
		7 4 6 10
	")
}

ee = optimize('scf')
oeprop('DIPOLE', 'QUADRUPOLE', 'MULLIKEN_CHARGES')
f=open( 'psi4out.xyz', 'w' )
f.write( "14  " )
f.write( str(ee) + "\n" )
f.write( MOL.save_string_xyz() )
f.close()
--------------------------------------------------------------------------

    Molecular point group: c1
  Charge       = 0
  Multiplicity = 1
  Basis Set: CC-PVTZ
  Basis Set:
  @DF-RHF Final Energy:  -305.96731807141305
    Total Energy =                       -305.9673180714131604
    Molecular point group: c1
  Basis Set: CC-PVTZ
  Basis Set:
  Basis Set: CC-PVTZ
  Basis Set:
  @DF-RHF Final Energy:  -305.98500709918778
    Total Energy =                       -305.9850070991877260
  Basis Set: CC-PVTZ
  Basis Set:
  Basis Set: CC-PVTZ
  Basis Set:
  @DF-RHF Final Energy:  -305.98792955635543
    Total Energy =                       -305.9879295563554251
  Basis Set: CC-PVTZ
  Basis Set:
  Basis Set: CC-PVTZ
  Basis Set:
  @DF-RHF Final Energy:  -305.98662106844364
    Total Energy =                       -305.9866210684436396
  Basis Set: CC-PVTZ
  Basis Set:
  @DF-RHF Final Energy:  -305.98973574196879
    Total Energy =                       -305.9897357419689570
  @DF-RHF Final Energy:  -305.99012292954427
    Total Energy =                       -305.9901229295445546
  @DF-RHF Final Energy:  -305.99092043503833
    Total Energy =                       -305.9909204350384471
  @DF-RHF Final Energy:  -305.99145764227558
    Total Energy =                       -305.9914576422754635
  @DF-RHF Final Energy:  -305.99196244481328
    Total Energy =                       -305.9919624448133391
  @DF-RHF Final Energy:  -305.99218269991241
    Total Energy =                       -305.9921826999124050
  @DF-RHF Final Energy:  -305.99230006964206
    Total Energy =                       -305.9923000696420559
  @DF-RHF Final Energy:  -305.99243401383660
    Total Energy =                       -305.9924340138367143
  @DF-RHF Final Energy:  -305.99256744331734
    Total Energy =                       -305.9925674433173981
  @DF-RHF Final Energy:  -305.99269444295351
    Total Energy =                       -305.9926944429532796
  Basis Set: CC-PVTZ
  Basis Set:
  @DF-RHF Final Energy:  -305.99266371613487
    Total Energy =                       -305.9926637161347003
  Basis Set: CC-PVTZ
  Basis Set:
  Basis Set: CC-PVTZ
  Basis Set:
  @DF-RHF Final Energy:  -305.99275052146572
    Total Energy =                       -305.9927505214658936
  Basis Set: CC-PVTZ
  Basis Set:
  Basis Set: CC-PVTZ
  Basis Set:
  @DF-RHF Final Energy:  -305.99275941207293
    Total Energy =                       -305.9927594120730419
  Basis Set: CC-PVTZ
  Basis Set:
  Charge       = 0
  Multiplicity = 1
  Basis Set: CC-PVTZ
  Basis Set:

    Orbital Energies (a.u.)
    -----------------------

    Doubly Occupied:

       1A    -20.605735     2A    -20.537714     3A    -11.372815
       4A    -11.238212     5A    -11.234606     6A    -11.214575
       7A     -1.477703     8A     -1.367742     9A     -1.082032
      10A     -0.977588    11A     -0.865785    12A     -0.796955
      13A     -0.706304    14A     -0.682188    15A     -0.654284
      16A     -0.633428    17A     -0.588660    18A     -0.572880
      19A     -0.562420    20A     -0.506181    21A     -0.498595
      22A     -0.485559    23A     -0.474690    24A     -0.440993

  @DF-RHF Final Energy:  -305.99275976785441

   => Energetics <=

    Nuclear Repulsion Energy =            247.3859345851654723
    One-Electron Energy =                -907.6021004956990055
    Two-Electron Energy =                 354.2234061426796075
    DFT Exchange-Correlation Energy =       0.0000000000000000
    Empirical Dispersion Energy =           0.0000000000000000
    PCM Polarization Energy =               0.0000000000000000
    EFP Energy =                            0.0000000000000000
    Total Energy =                       -305.9927597678538973
    Molecular point group: c1
  Basis Set: CC-PVTZ
  Basis Set:

  -Total Gradient:
     Atom            X                  Y                   Z
    ------   -----------------  -----------------  -----------------
       1        0.000003047781     0.000002497669     0.000002485224
       2       -0.000010357834    -0.000036117741    -0.000038808031
       3       -0.000001489511     0.000076922297     0.000047211648
       4        0.002354718797     0.002508021015    -0.004716295974
       5       -0.000010765087    -0.000033433712     0.000013377930
       6        0.001873862216     0.003402873221     0.004075042244
       7       -0.002253725831    -0.002607317866     0.003343973948
       8        0.000007308909     0.000005959981    -0.000003945089
       9        0.000015373986     0.000034092715    -0.000030157859
      10       -0.001975040493    -0.003307222747    -0.002736085616
      11        0.000000907466    -0.000001799577    -0.000001083350
      12        0.000005378865    -0.000003888897     0.000012429387
      13        0.000002284149    -0.000009516245     0.000003581751
      14       -0.000011503413    -0.000031070117     0.000028273793

  **** Optimization is complete! (in 18 steps) ****
    Final optimized geometry and variables:
    Molecular point group: c1

    Geometry (in Angstrom), charge = 0, multiplicity = 1:

    H            0.297794001977    -2.364482905778    -0.284307408164
    O            0.508505667854    -1.524034934189    -0.663558313719
    C            0.533138970164    -0.620189599743     0.310339963727
    C            0.840230085151     0.771491396072    -0.180290327211
    O            0.326315495189    -0.908865231734     1.439390118447
    C           -0.423392283616     1.657459167268    -0.340068488100
    H            1.480985500868     1.194035437707     0.580573472861
    H            1.381126358543     0.702238114286    -1.111960760827
    C           -1.738514932230     0.905710000381    -0.546427310719
    H           -0.272043090381     2.285133440301    -1.209679399477
    H           -0.515753405981     2.304441176240     0.521596734234
    H           -1.693909387239     0.259408314147    -1.415439029397
    H           -2.545546750819     1.611745133233    -0.700550798325
    H           -1.992882111251     0.298631700273     0.313628303787

  Mulliken Charges: (a.u.)
   Center  Symbol    Alpha    Beta     Spin     Total
       1     H     0.38023  0.38023  0.00000  0.23954
       2     O     4.16532  4.16532  0.00000 -0.33064
       3     C     2.79221  2.79221  0.00000  0.41558
       4     C     3.10183  3.10183  0.00000 -0.20367
       5     O     4.20204  4.20204  0.00000 -0.40408
       6     C     3.08506  3.08506  0.00000 -0.17012
       7     H     0.43659  0.43659  0.00000  0.12681
       8     H     0.43921  0.43921  0.00000  0.12157
       9     C     3.15912  3.15912  0.00000 -0.31823
      10     H     0.44959  0.44959  0.00000  0.10082
      11     H     0.44640  0.44640  0.00000  0.10720
      12     H     0.44892  0.44892  0.00000  0.10216
      13     H     0.44633  0.44633  0.00000  0.10734
      14     H     0.44715  0.44715  0.00000  0.10571

   Total alpha = 24.00000, Total beta = 24.00000, Total charge = -0.00000
