  ==> Input File <==

--------------------------------------------------------------------------
set {
	reference rhf
	basis 6-31G*
}

set_num_threads( 4 )
memory 2 gb

molecule MOL {
0 1

H	 -3.269016	 -0.876744	 0.468090
C	 -2.809304	 0.000122	 0.025886
N	 -1.391456	 0.000019	 0.300661
H	 -3.037557	 -0.000063	 -1.044252
H	 -3.269223	 0.876956	 0.468000
C	 -0.763860	 1.260274	 -0.045268
C	 -0.707227	 -1.107406	 -0.337499
H	 -0.846671	 1.470068	 -1.116079
H	 -1.269406	 2.059552	 0.486843
C	 0.705569	 1.247078	 0.346104
H	 -1.171498	 -2.034909	 -0.018521
H	 -0.786287	 -1.054347	 -1.427657
C	 0.762202	 -1.120603	 0.053874
H	 1.169841	 2.174581	 0.027127
H	 0.784630	 1.194017	 1.436262
N	 1.389798	 0.139652	 -0.292056
H	 1.267748	 -1.919880	 -0.478238
H	 0.845014	 -1.330397	 1.124684
C	 2.807646	 0.139550	 -0.017282
H	 3.245778	 1.074625	 -0.348109
H	 3.287603	 -0.665386	 -0.562761
H	 3.037382	 0.014110	 1.045160

	symmetry c1
}
set optking {
	frozen_dihedral = ("
		6 3 2 4
	")
}

ee = optimize('scf')
oeprop('DIPOLE', 'QUADRUPOLE', 'MULLIKEN_CHARGES')
f=open( 'psi4out.xyz', 'w' )
f.write( "22  " )
f.write( str(ee) + "\n" )
f.write( MOL.save_string_xyz() )
f.close()
--------------------------------------------------------------------------

    Molecular point group: c1
  Charge       = 0
  Multiplicity = 1
  Basis Set: 6-31G*
  Basis Set:
  @DF-RHF Final Energy:  -344.23042879286857
    Total Energy =                       -344.2304287928681106
    Molecular point group: c1
  Basis Set: 6-31G*
  Basis Set:
  Basis Set: 6-31G*
  Basis Set:
  @DF-RHF Final Energy:  -344.23046181796212
    Total Energy =                       -344.2304618179616682
  Basis Set: 6-31G*
  Basis Set:
  Charge       = 0
  Multiplicity = 1
  Basis Set: 6-31G*
  Basis Set:

    Orbital Energies (a.u.)
    -----------------------

    Doubly Occupied:

       1A    -15.541964     2A    -15.541443     3A    -11.238806
       4A    -11.238780     5A    -11.238177     6A    -11.238149
       7A    -11.235940     8A    -11.235938     9A     -1.255165
      10A     -1.204071    11A     -1.024831    12A     -0.991733
      13A     -0.911453    14A     -0.867104    15A     -0.835271
      16A     -0.754617    17A     -0.665437    18A     -0.636852
      19A     -0.630341    20A     -0.626666    21A     -0.621125
      22A     -0.580890    23A     -0.549689    24A     -0.546038
      25A     -0.542409    26A     -0.517673    27A     -0.496152
      28A     -0.490802    29A     -0.465199    30A     -0.455841
      31A     -0.350033    32A     -0.343938

  @DF-RHF Final Energy:  -344.23046482017173

   => Energetics <=

    Nuclear Repulsion Energy =            421.3868779132707232
    One-Electron Energy =               -1301.4896297661643985
    Two-Electron Energy =                 535.8722870327217151
    DFT Exchange-Correlation Energy =       0.0000000000000000
    Empirical Dispersion Energy =           0.0000000000000000
    PCM Polarization Energy =               0.0000000000000000
    EFP Energy =                            0.0000000000000000
    Total Energy =                       -344.2304648201719601
    Molecular point group: c1
  Basis Set: 6-31G*
  Basis Set:

  -Total Gradient:
     Atom            X                  Y                   Z
    ------   -----------------  -----------------  -----------------
       1        0.000049226791    -0.000014073996    -0.000005596225
       2       -0.000174069234     0.002433090025     0.000377750170
       3        0.000340347993    -0.001047333387    -0.001466351937
       4        0.000017735419    -0.001727198428     0.000008454553
       5        0.000029154871    -0.000017322764     0.000028448224
       6       -0.000184651431     0.000547541289     0.001046010891
       7        0.000043609212    -0.000033143164    -0.000097755986
       8       -0.000024722334    -0.000020141378    -0.000003861880
       9       -0.000012372119    -0.000049878259     0.000020869699
      10       -0.000040848357    -0.000114868999     0.000044416565
      11       -0.000021735428     0.000027889435     0.000025441328
      12        0.000007982168    -0.000018444304     0.000013467874
      13       -0.000025691448     0.000027560558    -0.000016425189
      14       -0.000035257427    -0.000001456312    -0.000007477283
      15        0.000027088828    -0.000001248572     0.000019949130
      16        0.000000533169    -0.000004809864     0.000014750441
      17       -0.000001350088    -0.000004846776    -0.000001383133
      18       -0.000003425199     0.000004176410    -0.000004502692
      19        0.000001046541     0.000008609739     0.000004598860
      20        0.000006413373     0.000001287797     0.000001144141
      21       -0.000000966598     0.000003709075    -0.000000053503
      22        0.000001951303     0.000000901873    -0.000001894048

  **** Optimization is complete! (in 3 steps) ****
    Final optimized geometry and variables:
    Molecular point group: c1

    Geometry (in Angstrom), charge = 0, multiplicity = 1:

    H           -3.257243483075    -0.960357708527     0.456433160117
    C           -2.809530830162    -0.071807984947     0.023699343056
    N           -1.389984397564    -0.065341319488     0.288251682588
    H           -3.046140584215    -0.068492736003    -1.044554680301
    H           -3.275268668092     0.793001425426     0.481526952374
    C           -0.761018285124     1.195267445826    -0.052810314095
    C           -0.707055617350    -1.177344192855    -0.341192812128
    H           -0.840349442418     1.410574385804    -1.122891071466
    H           -1.266018450788     1.992600151786     0.482278118707
    C            0.707405398196     1.177051208550     0.342208760500
    H           -1.174697305683    -2.101729614883    -0.017564924571
    H           -0.784762660614    -1.130722119079    -1.431759305572
    C            0.761626706347    -1.191260088437     0.052494311697
    H            1.175229219921     2.103495478190     0.025355996492
    H            0.783570541289     1.122633107780     1.432552042252
    N            1.390498452097     0.068122185903    -0.294931946713
    H            1.267506580326    -1.991875123978    -0.477305932648
    H            0.842950560163    -1.398909969460     1.123823874887
    C            2.808186849648     0.066979183465    -0.019602467442
    H            3.247671093726     1.001124417423    -0.351341192338
    H            3.287487980403    -0.739136223894    -0.563904538500
    H            3.037515563177    -0.057574494588     1.043054497326

  Mulliken Charges: (a.u.)
   Center  Symbol    Alpha    Beta     Spin     Total
       1     H     0.41661  0.41661  0.00000  0.16677
       2     C     3.13978  3.13978  0.00000 -0.27956
       3     N     3.78810  3.78810  0.00000 -0.57621
       4     H     0.43333  0.43333  0.00000  0.13334
       5     H     0.41719  0.41719  0.00000  0.16562
       6     C     3.05547  3.05547  0.00000 -0.11095
       7     C     3.05574  3.05574  0.00000 -0.11148
       8     H     0.42874  0.42874  0.00000  0.14251
       9     H     0.41806  0.41806  0.00000  0.16388
      10     C     3.05668  3.05668  0.00000 -0.11335
      11     H     0.41801  0.41801  0.00000  0.16397
      12     H     0.42848  0.42848  0.00000  0.14305
      13     C     3.05645  3.05645  0.00000 -0.11290
      14     H     0.41798  0.41798  0.00000  0.16403
      15     H     0.42855  0.42855  0.00000  0.14291
      16     N     3.78709  3.78709  0.00000 -0.57418
      17     H     0.41796  0.41796  0.00000  0.16409
      18     H     0.42855  0.42855  0.00000  0.14290
      19     C     3.14027  3.14027  0.00000 -0.28053
      20     H     0.41675  0.41675  0.00000  0.16649
      21     H     0.41676  0.41676  0.00000  0.16648
      22     H     0.43344  0.43344  0.00000  0.13311

   Total alpha = 32.00000, Total beta = 32.00000, Total charge = -0.00000
