  ==> Input File <==

--------------------------------------------------------------------------
set {
	reference rhf
	basis 6-31G*
}

set_num_threads( 4 )
memory 2 gb

molecule MOL {
0 1

H	 -3.161837	 0.500524	 -0.000234
C	 -2.367097	 -0.232926	 -0.000000
O	 -1.158440	 0.455814	 -0.000122
H	 -2.468853	 -0.861886	 -0.882833
H	 -2.468942	 -0.861421	 0.883154
C	 -1.058687	 1.440634	 0.983775
C	 0.300233	 2.109559	 0.871797
H	 -1.182068	 0.997128	 1.972703
H	 -1.854304	 2.176601	 0.860266
C	 0.499089	 3.207266	 1.916007
H	 1.067922	 1.349057	 0.976451
H	 0.400427	 2.520346	 -0.128160
H	 0.426820	 2.811974	 2.925435
H	 1.476036	 3.667450	 1.812806
H	 -0.245939	 3.991370	 1.813446

	symmetry c1
}
set optking {
	frozen_dihedral = ("
		6 3 2 4
	")
}

ee = optimize('scf')
oeprop('DIPOLE', 'QUADRUPOLE', 'MULLIKEN_CHARGES')
f=open( 'psi4out.xyz', 'w' )
f.write( "15  " )
f.write( str(ee) + "\n" )
f.write( MOL.save_string_xyz() )
f.close()
--------------------------------------------------------------------------

    Molecular point group: c1
  Charge       = 0
  Multiplicity = 1
  Basis Set: 6-31G*
  Basis Set:
  @DF-RHF Final Energy:  -232.13802595428359
    Total Energy =                       -232.1380259542835347
    Molecular point group: c1
  Basis Set: 6-31G*
  Basis Set:
  Basis Set: 6-31G*
  Basis Set:
  @DF-RHF Final Energy:  -232.13892820084737
    Total Energy =                       -232.1389282008475448
  Basis Set: 6-31G*
  Basis Set:
  Basis Set: 6-31G*
  Basis Set:
  @DF-RHF Final Energy:  -232.13919442213947
    Total Energy =                       -232.1391944221394397
  Basis Set: 6-31G*
  Basis Set:
  Charge       = 0
  Multiplicity = 1
  Basis Set: 6-31G*
  Basis Set:

    Orbital Energies (a.u.)
    -----------------------

    Doubly Occupied:

       1A    -20.553185     2A    -11.266292     3A    -11.263931
       4A    -11.214230     5A    -11.212911     6A     -1.378100
       7A     -1.057280     8A     -0.955307     9A     -0.877251
      10A     -0.809109    11A     -0.674759    12A     -0.653834
      13A     -0.630144    14A     -0.607730    15A     -0.565363
      16A     -0.541630    17A     -0.502745    18A     -0.488825
      19A     -0.478110    20A     -0.461423    21A     -0.413576

  @DF-RHF Final Energy:  -232.13919554374823

   => Energetics <=

    Nuclear Repulsion Energy =            189.7266104230664894
    One-Electron Energy =                -690.5201435349288204
    Two-Electron Energy =                 268.6543375681141015
    DFT Exchange-Correlation Energy =       0.0000000000000000
    Empirical Dispersion Energy =           0.0000000000000000
    PCM Polarization Energy =               0.0000000000000000
    EFP Energy =                            0.0000000000000000
    Total Energy =                       -232.1391955437482011
    Molecular point group: c1
  Basis Set: 6-31G*
  Basis Set:

  -Total Gradient:
     Atom            X                  Y                   Z
    ------   -----------------  -----------------  -----------------
       1        0.000021296682     0.000046312642     0.000009131487
       2        0.000576479292    -0.001018078864     0.000634831091
       3        0.000519763676    -0.000880972277     0.000894193985
       4       -0.000570408209     0.001167235946    -0.000737098732
       5        0.000066555179     0.000039155972     0.000006281250
       6       -0.000577011850     0.000770751005    -0.000646670324
       7        0.000020171465    -0.000058288256    -0.000090890175
       8       -0.000004572886    -0.000010255581     0.000006201198
       9       -0.000007772084    -0.000016652581    -0.000037136929
      10       -0.000070821649    -0.000029961849    -0.000002138056
      11        0.000009446835    -0.000002728837    -0.000002502875
      12        0.000027761474     0.000014866443    -0.000013934686
      13        0.000000242822    -0.000002205832     0.000002076336
      14       -0.000009183659    -0.000027707172    -0.000026059999
      15       -0.000001947086     0.000008529246     0.000003716430

  **** Optimization is complete! (in 4 steps) ****
    Final optimized geometry and variables:
    Molecular point group: c1

    Geometry (in Angstrom), charge = 0, multiplicity = 1:

    H           -2.436343990036    -0.921600685681    -0.752757179832
    C           -1.589432373160    -1.605759431392    -0.745593714471
    O           -0.379781947046    -0.918322878738    -0.748576332682
    H           -1.628355222479    -2.205853513037    -1.644583509566
    H           -1.678740212340    -2.254205873718     0.123939282539
    C           -0.274023394962     0.065743101072     0.235690620519
    C            1.088200582162     0.727283749566     0.120917744609
    H           -0.398008786687    -0.375617982467     1.225640511404
    H           -1.066281927030     0.804789590241     0.111260087579
    C            1.292015126268     1.828381820812     1.160563598090
    H            1.852387720807    -0.036322492362     0.228602207501
    H            1.190143526969     1.133504319573    -0.880761270290
    H            1.217485414576     1.437634143426     2.171597999416
    H            2.271300734576     2.283236913372     1.055837928184
    H            0.550855762389     2.615724572628     1.054623547299

  Mulliken Charges: (a.u.)
   Center  Symbol    Alpha    Beta     Spin     Total
       1     H     0.43130  0.43130  0.00000  0.13739
       2     C     3.07900  3.07900  0.00000 -0.15800
       3     O     4.30609  4.30609  0.00000 -0.61217
       4     H     0.41248  0.41248  0.00000  0.17504
       5     H     0.42926  0.42926  0.00000  0.14149
       6     C     2.98157  2.98157  0.00000  0.03687
       7     C     3.15984  3.15984  0.00000 -0.31968
       8     H     0.43366  0.43366  0.00000  0.13268
       9     H     0.43309  0.43309  0.00000  0.13383
      10     C     3.24792  3.24792  0.00000 -0.49584
      11     H     0.41434  0.41434  0.00000  0.17132
      12     H     0.41431  0.41431  0.00000  0.17138
      13     H     0.42085  0.42085  0.00000  0.15830
      14     H     0.41542  0.41542  0.00000  0.16916
      15     H     0.42087  0.42087  0.00000  0.15825

   Total alpha = 21.00000, Total beta = 21.00000, Total charge =  0.00000
