  ==> Input File <==

--------------------------------------------------------------------------
set {
	reference rhf
	basis 6-31G*
}

set_num_threads( 1 )
memory 2 gb

molecule MOL {
0 1

H	 -2.172150	 0.880146	 0.502514
C	 -2.018062	 -0.000025	 -0.114509
O	 -0.774054	 0.001095	 -0.743181
H	 -2.760490	 0.003458	 -0.901350
H	 -2.173624	 -0.884374	 0.496163
C	 -0.132024	 1.231828	 -1.025362
C	 1.175059	 0.812187	 -1.694278
C	 -0.964477	 2.080483	 -1.991796
C	 0.165311	 2.008089	 0.261544
H	 0.968210	 0.239546	 -2.591343
H	 1.754453	 0.188447	 -1.022992
H	 1.771188	 1.677669	 -1.964894
H	 -1.230870	 1.498980	 -2.868105
H	 -0.396728	 2.946419	 -2.316477
H	 -1.877625	 2.445103	 -1.533791
H	 0.692915	 1.375949	 0.968004
H	 0.787096	 2.870671	 0.045052
H	 -0.738648	 2.371883	 0.738139

	symmetry c1
}
set optking {
	frozen_dihedral = ("
		2 3 6 7
	")
}

ee = energy('scf')
oeprop('DIPOLE', 'QUADRUPOLE', 'MULLIKEN_CHARGES')
f=open( 'psi4out.xyz', 'w' )
f.write( "18  " )
f.write( str(ee) + "\n" )
f.write( MOL.save_string_xyz() )
f.close()
--------------------------------------------------------------------------

    Molecular point group: c1

    Geometry (in Angstrom), charge = 0, multiplicity = 1:

       Center              X                  Y                   Z               Mass
    ------------   -----------------  -----------------  -----------------  -----------------
           H         -1.728398019143    -0.134106884113     1.378797476218     1.007825032070
           C         -1.574310019143    -1.014277884113     0.761774476218    12.000000000000
           O         -0.330302019143    -1.013157884113     0.133102476218    15.994914619560
           H         -2.316738019143    -1.010794884113    -0.025066523782     1.007825032070
           H         -1.729872019143    -1.898626884113     1.372446476218     1.007825032070
           C          0.311727980857     0.217575115887    -0.149078523782    12.000000000000
           C          1.618810980857    -0.202065884113    -0.817994523782    12.000000000000
           C         -0.520725019143     1.066230115887    -1.115512523782    12.000000000000
           C          0.609062980857     0.993836115887     1.137827476218    12.000000000000
           H          1.411961980857    -0.774706884113    -1.715059523782     1.007825032070
           H          2.198204980857    -0.825805884113    -0.146708523782     1.007825032070
           H          2.214939980857     0.663416115887    -1.088610523782     1.007825032070
           H         -0.787118019143     0.484727115887    -1.991821523782     1.007825032070
           H          0.047023980857     1.932166115887    -1.440193523782     1.007825032070
           H         -1.433873019143     1.430850115887    -0.657507523782     1.007825032070
           H          1.136666980857     0.361696115887     1.844287476218     1.007825032070
           H          1.230847980857     1.856418115887     0.921335476218     1.007825032070
           H         -0.294896019143     1.357630115887     1.614422476218     1.007825032070

  Charge       = 0
  Multiplicity = 1
  Basis Set: 6-31G*
  Basis Set:

    Orbital Energies (a.u.)
    -----------------------

    Doubly Occupied:

       1A    -20.544312     2A    -11.282273     3A    -11.260406
       4A    -11.208984     5A    -11.208698     6A    -11.203317
       7A     -1.369112     8A     -1.072924     9A     -0.946223
      10A     -0.939923    11A     -0.911900    12A     -0.752352
      13A     -0.654815    14A     -0.644288    15A     -0.639621
      16A     -0.591518    17A     -0.574014    18A     -0.551072
      19A     -0.536370    20A     -0.524222    21A     -0.515081
      22A     -0.489746    23A     -0.486186    24A     -0.437710
      25A     -0.400961

  @DF-RHF Final Energy:  -271.17226439118326

   => Energetics <=

    Nuclear Repulsion Energy =            272.3836777068988795
    One-Electron Energy =                -907.6194379245164328
    Two-Electron Energy =                 364.0634958264345187
    DFT Exchange-Correlation Energy =       0.0000000000000000
    Empirical Dispersion Energy =           0.0000000000000000
    PCM Polarization Energy =               0.0000000000000000
    EFP Energy =                            0.0000000000000000
    Total Energy =                       -271.1722643911830346

  Mulliken Charges: (a.u.)
   Center  Symbol    Alpha    Beta     Spin     Total
       1     H     0.43109  0.43109  0.00000  0.13782
       2     C     3.07774  3.07774  0.00000 -0.15547
       3     O     4.32081  4.32081  0.00000 -0.64163
       4     H     0.42573  0.42573  0.00000  0.14854
       5     H     0.41525  0.41525  0.00000  0.16950
       6     C     2.84334  2.84334  0.00000  0.31332
       7     C     3.23292  3.23292  0.00000 -0.46583
       8     C     3.24637  3.24637  0.00000 -0.49274
       9     C     3.24679  3.24679  0.00000 -0.49358
      10     H     0.41403  0.41403  0.00000  0.17194
      11     H     0.41395  0.41395  0.00000  0.17210
      12     H     0.42521  0.42521  0.00000  0.14958
      13     H     0.41331  0.41331  0.00000  0.17339
      14     H     0.41991  0.41991  0.00000  0.16019
      15     H     0.42075  0.42075  0.00000  0.15850
      16     H     0.41304  0.41304  0.00000  0.17392
      17     H     0.41961  0.41961  0.00000  0.16077
      18     H     0.42016  0.42016  0.00000  0.15967

   Total alpha = 25.00000, Total beta = 25.00000, Total charge =  0.00000
