  ==> Input File <==

--------------------------------------------------------------------------
set {
	reference rhf
	basis 6-31G*
}

set_num_threads( 4 )
memory 2 gb

molecule MOL {
0 1

H	 3.729822	 -0.883334	 0.239645
O	 2.826016	 -1.159218	 0.122261
C	 2.077727	 -0.067559	 -0.035091
C	 0.624473	 -0.343591	 0.253101
O	 2.542965	 0.974826	 -0.363729
C	 -0.265902	 0.883932	 0.072916
H	 0.324016	 -1.163849	 -0.390541
H	 0.565024	 -0.726111	 1.268924
C	 -1.728698	 0.646073	 0.462102
H	 -0.209144	 1.219470	 -0.958188
H	 0.135059	 1.692851	 0.673903
C	 -2.482460	 -0.343073	 -0.431425
H	 -2.245265	 1.602650	 0.432430
H	 -1.779332	 0.308348	 1.496285
C	 -3.960546	 -0.461025	 -0.060175
H	 -2.395034	 -0.026811	 -1.468912
H	 -2.024850	 -1.327147	 -0.371646
H	 -4.472726	 -1.168004	 -0.705284
H	 -4.465146	 0.496508	 -0.151489
H	 -4.081218	 -0.800940	 0.964585

	symmetry c1
}
set optking {
	frozen_dihedral = ("
		1 2 3 5
	")
}

ee = optimize('scf')
oeprop('DIPOLE', 'QUADRUPOLE', 'MULLIKEN_CHARGES')
f=open( 'psi4out.xyz', 'w' )
f.write( "20  " )
f.write( str(ee) + "\n" )
f.write( MOL.save_string_xyz() )
f.close()
--------------------------------------------------------------------------

    Molecular point group: c1
  Charge       = 0
  Multiplicity = 1
  Basis Set: 6-31G*
  Basis Set:
  @DF-RHF Final Energy:  -383.94622510260308
    Total Energy =                       -383.9462251026034210
    Molecular point group: c1
  Basis Set: 6-31G*
  Basis Set:
  Basis Set: 6-31G*
  Basis Set:
  @DF-RHF Final Energy:  -383.94267529977196
    Total Energy =                       -383.9426752997715084
  Basis Set: 6-31G*
  Basis Set:
  Basis Set: 6-31G*
  Basis Set:
  @DF-RHF Final Energy:  -383.94640989331663
    Total Energy =                       -383.9464098933168543
  Basis Set: 6-31G*
  Basis Set:
  Basis Set: 6-31G*
  Basis Set:
  @DF-RHF Final Energy:  -383.94646198555597
    Total Energy =                       -383.9464619855564820
  Basis Set: 6-31G*
  Basis Set:
  @DF-RHF Final Energy:  -383.94646557164197
    Total Energy =                       -383.9464655716416246
  @DF-RHF Final Energy:  -383.94646869526542
    Total Energy =                       -383.9464686952649686
  Basis Set: 6-31G*
  Basis Set:
  @DF-RHF Final Energy:  -383.94646944459237
    Total Energy =                       -383.9464694445924806
  Basis Set: 6-31G*
  Basis Set:
  Basis Set: 6-31G*
  Basis Set:
  @DF-RHF Final Energy:  -383.94629823531392
    Total Energy =                       -383.9462982353138614
  Basis Set: 6-31G*
  Basis Set:
  Basis Set: 6-31G*
  Basis Set:
  @DF-RHF Final Energy:  -383.94646941809100
    Total Energy =                       -383.9464694180910556
  Basis Set: 6-31G*
  Basis Set:
  Charge       = 0
  Multiplicity = 1
  Basis Set: 6-31G*
  Basis Set:

    Orbital Energies (a.u.)
    -----------------------

    Doubly Occupied:

       1A    -20.610861     2A    -20.552508     3A    -11.381237
       4A    -11.240016     5A    -11.222757     6A    -11.220577
       7A    -11.219973     8A    -11.212289     9A     -1.472745
      10A     -1.366031    11A     -1.095986    12A     -1.040681
      13A     -0.960894    14A     -0.868542    15A     -0.815952
      16A     -0.777511    17A     -0.700702    18A     -0.689121
      19A     -0.660726    20A     -0.638102    21A     -0.602879
      22A     -0.590893    23A     -0.576729    24A     -0.556050
      25A     -0.537227    26A     -0.513583    27A     -0.494981
      28A     -0.480785    29A     -0.470378    30A     -0.466846
      31A     -0.457051    32A     -0.443544

  @DF-RHF Final Energy:  -383.94646998919046

   => Energetics <=

    Nuclear Repulsion Energy =            375.8185493267182551
    One-Electron Energy =               -1267.6537251041108902
    Two-Electron Energy =                 507.8887057882022873
    DFT Exchange-Correlation Energy =       0.0000000000000000
    Empirical Dispersion Energy =           0.0000000000000000
    PCM Polarization Energy =               0.0000000000000000
    EFP Energy =                            0.0000000000000000
    Total Energy =                       -383.9464699891902910
    Molecular point group: c1
  Basis Set: 6-31G*
  Basis Set:

  -Total Gradient:
     Atom            X                  Y                   Z
    ------   -----------------  -----------------  -----------------
       1       -0.000711960071    -0.000215933015     0.007372354489
       2        0.000161074645    -0.000208846092    -0.012165867363
       3        0.001953494353     0.001426714163     0.011382978782
       4        0.000038997120     0.000090722898    -0.000216271131
       5       -0.001330277415    -0.001016989365    -0.006506867975
       6       -0.000018398986    -0.000038706519     0.000107778943
       7       -0.000005813223    -0.000026357319     0.000060050308
       8       -0.000011585314    -0.000009494767     0.000017904823
       9       -0.000019082578     0.000019932167    -0.000032300525
      10        0.000006833912    -0.000035397406    -0.000004202284
      11       -0.000017568914     0.000017404361    -0.000026231920
      12       -0.000019813907     0.000002339089     0.000017732022
      13       -0.000029913141    -0.000003587124     0.000021044833
      14        0.000024960138    -0.000014815833    -0.000012616963
      15       -0.000001903401     0.000009757011    -0.000019530141
      16        0.000006589971    -0.000006709419    -0.000006007529
      17       -0.000023231591     0.000009951774     0.000011086220
      18       -0.000005997371     0.000001158669    -0.000002804558
      19       -0.000000693501     0.000000709983     0.000004559663
      20        0.000004289257    -0.000001853254    -0.000002789694

  **** Optimization is complete! (in 10 steps) ****
    Final optimized geometry and variables:
    Molecular point group: c1

    Geometry (in Angstrom), charge = 0, multiplicity = 1:

    H            3.727181301295    -0.939511248437     0.125168435226
    O            2.810434856103    -1.177499645761     0.031447425507
    C            2.081657241113    -0.058501730427    -0.005402827213
    C            0.625678524825    -0.336154124079     0.267270180476
    O            2.554725018261     0.996231515644    -0.275391899474
    C           -0.268099853756     0.885135328973     0.064036117701
    H            0.335383303021    -1.167364877091    -0.366382552382
    H            0.557643113081    -0.704710832056     1.288340925193
    C           -1.732738754312     0.647956603822     0.446766548020
    H           -0.206191727026     1.205283277252    -0.971915738955
    H            0.126383339848     1.704254263676     0.655072131572
    C           -2.477990145892    -0.354739499364    -0.438762135609
    H           -2.252050150350     1.602465849737     0.401946439959
    H           -1.788741580103     0.323108663552     1.484829862862
    C           -3.958853246043    -0.469645065095    -0.077835816658
    H           -2.382644508452    -0.052967400794    -1.479852338643
    H           -2.019446672616    -1.337142854835    -0.361556666494
    H           -4.464942629657    -1.186062148627    -0.717310497570
    H           -4.463931495848     0.485863348934    -0.186246550214
    H           -4.087371992677    -0.795716846333     0.950476148373

  Mulliken Charges: (a.u.)
   Center  Symbol    Alpha    Beta     Spin     Total
       1     H     0.26762  0.26762  0.00000  0.46477
       2     O     4.35315  4.35315  0.00000 -0.70629
       3     C     2.62332  2.62332  0.00000  0.75337
       4     C     3.21325  3.21325  0.00000 -0.42650
       5     O     4.27565  4.27565  0.00000 -0.55130
       6     C     3.15460  3.15460  0.00000 -0.30919
       7     H     0.39610  0.39610  0.00000  0.20780
       8     H     0.40042  0.40042  0.00000  0.19916
       9     C     3.15553  3.15553  0.00000 -0.31106
      10     H     0.41278  0.41278  0.00000  0.17444
      11     H     0.40736  0.40736  0.00000  0.18529
      12     C     3.15480  3.15480  0.00000 -0.30961
      13     H     0.41790  0.41790  0.00000  0.16419
      14     H     0.42389  0.42389  0.00000  0.15222
      15     C     3.23924  3.23924  0.00000 -0.47848
      16     H     0.42139  0.42139  0.00000  0.15722
      17     H     0.42263  0.42263  0.00000  0.15474
      18     H     0.41830  0.41830  0.00000  0.16341
      19     H     0.42067  0.42067  0.00000  0.15865
      20     H     0.42142  0.42142  0.00000  0.15716

   Total alpha = 32.00000, Total beta = 32.00000, Total charge =  0.00000
