                              Psi4 1.0.54 Driver

  ==> Input File <==

--------------------------------------------------------------------------
set {
	reference rhf
	basis cc-pvtz
}

set_num_threads( 4 )
memory 2 gb

molecule MOL {
0 1

O	 -2.374409	 1.338660	 -0.336961
C	 -2.104891	 0.204655	 -0.107126
C	 -0.881910	 -0.448129	 -0.720509
C	 -2.949910	 -0.638219	 0.818225
C	 -1.067369	 -0.656907	 -2.228772
H	 -0.743824	 -1.406135	 -0.235464
H	 -0.000544	 0.157336	 -0.537559
C	 0.143450	 -1.327369	 -2.874454
H	 -1.957887	 -1.253322	 -2.382054
H	 -1.244662	 0.300736	 -2.712287
C	 0.037577	 -1.508024	 -4.389730
H	 0.305492	 -2.296035	 -2.408185
H	 1.027603	 -0.734021	 -2.658088
C	 -1.049047	 -2.480766	 -4.841283
H	 0.995735	 -1.860589	 -4.758428
H	 -0.127525	 -0.540056	 -4.855686
H	 -0.911919	 -3.456071	 -4.385690
H	 -1.022079	 -2.612784	 -5.916744
H	 -2.041043	 -2.131674	 -4.581750
H	 -3.440322	 -1.417144	 0.243099
H	 -3.694377	 -0.025850	 1.303346
H	 -2.331085	 -1.129829	 1.560495

	symmetry c1
}
set optking {
	frozen_dihedral = ("
		6 3 2 1
	")
}

ee,wfn = optimize('scf', return_wfn=True)
oeprop( wfn, 'DIPOLE', 'QUADRUPOLE', 'MULLIKEN_CHARGES')
f=open( 'psi4out.xyz', 'w' )
f.write( "22  " )
f.write( str(ee) + "\n" )
f.write( MOL.save_string_xyz() )
f.close()
--------------------------------------------------------------------------

    Molecular point group: c1
  Charge       = 0
  Multiplicity = 1
  Basis Set: CC-PVTZ
  Basis Set:
  @DF-RHF Final Energy:  -348.22231952513408
    Total Energy =                       -348.2223195251344237
    Molecular point group: c1
  Basis Set: CC-PVTZ
  Basis Set:
  Basis Set: CC-PVTZ
  Basis Set:
  @DF-RHF Final Energy:  -348.22175013483093
    Total Energy =                       -348.2217501348306996
  Basis Set: CC-PVTZ
  Basis Set:
  Basis Set: CC-PVTZ
  Basis Set:
  @DF-RHF Final Energy:  -348.22290054557732
    Total Energy =                       -348.2229005455774313
  Basis Set: CC-PVTZ
  Basis Set:
  Basis Set: CC-PVTZ
  Basis Set:
  @DF-RHF Final Energy:  -348.22330588222479
    Total Energy =                       -348.2233058822247926
  Basis Set: CC-PVTZ
  Basis Set:
  Basis Set: CC-PVTZ
  Basis Set:
  @DF-RHF Final Energy:  -348.22328445712765
    Total Energy =                       -348.2232844571278179
  Basis Set: CC-PVTZ
  Basis Set:
  Basis Set: CC-PVTZ
  Basis Set:
  @DF-RHF Final Energy:  -348.22333799192268
    Total Energy =                       -348.2233379919226763
  Basis Set: CC-PVTZ
  Basis Set:
  Basis Set: CC-PVTZ
  Basis Set:
  @DF-RHF Final Energy:  -348.22334813277337
    Total Energy =                       -348.2233481327734808
  Basis Set: CC-PVTZ
  Basis Set:
  Charge       = 0
  Multiplicity = 1
  Basis Set: CC-PVTZ
  Basis Set:

    Orbital Energies (a.u.)
    -----------------------

    Doubly Occupied:

       1A    -20.536701     2A    -11.319739     3A    -11.227865
       4A    -11.227311     5A    -11.224393     6A    -11.219023
       7A    -11.217605     8A    -11.209968     9A     -1.397252
      10A     -1.095442    11A     -1.044806    12A     -1.001628
      13A     -0.938276    14A     -0.857414    15A     -0.785728
      16A     -0.733948    17A     -0.661017    18A     -0.650179
      19A     -0.628705    20A     -0.616981    21A     -0.601393
      22A     -0.586262    23A     -0.557035    24A     -0.549793
      25A     -0.531342    26A     -0.521069    27A     -0.501378
      28A     -0.486231    29A     -0.468324    30A     -0.464446
      31A     -0.462248    32A     -0.398630

  @DF-RHF Final Energy:  -348.22334781039694

   => Energetics <=

    Nuclear Repulsion Energy =            373.3938795087676681
    One-Electron Energy =               -1211.7901914342178316
    Two-Electron Energy =                 490.1729641150536736
    DFT Exchange-Correlation Energy =       0.0000000000000000
    Empirical Dispersion Energy =           0.0000000000000000
    PCM Polarization Energy =               0.0000000000000000
    EFP Energy =                            0.0000000000000000
    Total Energy =                       -348.2233478103964899
    Molecular point group: c1
  Basis Set: CC-PVTZ
  Basis Set:

  -Total Gradient:
     Atom            X                  Y                   Z
    ------   -----------------  -----------------  -----------------
       1       -0.000053550026    -0.000114151779    -0.000130746208
       2        0.000095964077     0.000091048279     0.000160496746
       3        0.000080542281     0.000082834425     0.000043414300
       4       -0.000013527660     0.000033483789     0.000012502951
       5        0.000013954824     0.000028032657     0.000031414244
       6       -0.000085259646    -0.000026892728    -0.000114626798
       7       -0.000036347989    -0.000020229722     0.000006372903
       8       -0.000022856008    -0.000041198541    -0.000015585999
       9        0.000040879604     0.000031690572     0.000032584300
      10       -0.000001105513    -0.000021219925    -0.000003341908
      11       -0.000025263222     0.000042053132     0.000002974074
      12       -0.000014897644     0.000003564404    -0.000010330744
      13       -0.000003685747    -0.000024715495    -0.000003845137
      14        0.000003335912    -0.000028938058    -0.000006507581
      15       -0.000007459258     0.000020400196     0.000004194159
      16       -0.000011257027    -0.000006210088     0.000010961465
      17       -0.000012058009     0.000003965745    -0.000000876290
      18        0.000009686009    -0.000005479162     0.000010967299
      19        0.000044425124    -0.000013010428    -0.000040097553
      20       -0.000000801926     0.000008367318     0.000007822235
      21        0.000014806857    -0.000031218055    -0.000000604848
      22       -0.000015525011    -0.000012176531     0.000002858390

  **** Optimization is complete! (in 8 steps) ****
    Final optimized geometry and variables:
    Molecular point group: c1

    Geometry (in Angstrom), charge = 0, multiplicity = 1:

    O           -1.078787309263     2.047138033446     1.441480910736
    C           -0.839441393237     0.917429978693     1.719953743730
    C            0.372297363698     0.212727833286     1.137316739847
    C           -1.726126290175     0.124582243235     2.648490011898
    C            0.224173536936     0.006192300737    -0.373636205768
    H            0.531416197213    -0.739841991819     1.630007525169
    H            1.235078443377     0.838329528259     1.336022721954
    C            1.447556026925    -0.668017227154    -0.990622667477
    H           -0.664374915497    -0.586936924945    -0.565899011189
    H            0.061174472193     0.971177241409    -0.839129056160
    C            1.390545596412    -0.820447447053    -2.511567970029
    H            1.588906693121    -1.646920506626    -0.537942947965
    H            2.328175467898    -0.085432466737    -0.735313160155
    C            0.315750310902    -1.779510515575    -3.017533525671
    H            2.358751295009    -1.170665018271    -2.855385348949
    H            1.244174295773     0.156708758910    -2.963343529917
    H            0.430655319338    -2.763215809688    -2.573349263766
    H            0.380762341922    -1.894859078359    -4.093235199755
    H           -0.683072905190    -1.427493215040    -2.789655574438
    H           -2.054476248332    -0.787438071528     2.160943254251
    H           -2.580790726775     0.713746766616     2.943178030248
    H           -1.161918895951    -0.169210191167     3.527667425292

  Mulliken Charges: (a.u.)
   Center  Symbol    Alpha    Beta     Spin     Total
       1     O     4.17749  4.17749  0.00000 -0.35497
       2     C     2.85835  2.85835  0.00000  0.28329
       3     C     3.10055  3.10055  0.00000 -0.20109
       4     C     3.15393  3.15393  0.00000 -0.30786
       5     C     3.09821  3.09821  0.00000 -0.19642
       6     H     0.44855  0.44855  0.00000  0.10290
       7     H     0.44055  0.44055  0.00000  0.11890
       8     C     3.09696  3.09696  0.00000 -0.19391
       9     H     0.45197  0.45197  0.00000  0.09605
      10     H     0.43891  0.43891  0.00000  0.12217
      11     C     3.09049  3.09049  0.00000 -0.18098
      12     H     0.45383  0.45383  0.00000  0.09234
      13     H     0.44756  0.44756  0.00000  0.10488
      14     C     3.15280  3.15280  0.00000 -0.30561
      15     H     0.44782  0.44782  0.00000  0.10436
      16     H     0.45230  0.45230  0.00000  0.09540
      17     H     0.45543  0.45543  0.00000  0.08914
      18     H     0.44535  0.44535  0.00000  0.10931
      19     H     0.45326  0.45326  0.00000  0.09347
      20     H     0.45070  0.45070  0.00000  0.09860
      21     H     0.43634  0.43634  0.00000  0.12732
      22     H     0.44865  0.44865  0.00000  0.10271

   Total alpha = 32.00000, Total beta = 32.00000, Total charge = -0.00000

*** Psi4 exiting successfully. Buy a developer a beer!
