  ==> Input File <==

--------------------------------------------------------------------------
set {
	reference rhf
	basis 6-31G*
}

set_num_threads( 1 )
memory 2 gb

molecule MOL {
0 1

H	 -3.161837	 0.500524	 -0.000234
C	 -2.367097	 -0.232926	 -0.000000
O	 -1.158440	 0.455814	 -0.000122
H	 -2.468853	 -0.861886	 -0.882833
H	 -2.468942	 -0.861421	 0.883154
C	 -0.029776	 -0.365156	 0.000148
C	 1.212217	 0.508981	 0.000007
H	 -0.036772	 -1.013236	 -0.877259
H	 -0.036869	 -1.012778	 0.877897
C	 1.009412	 1.812390	 -0.771276
H	 1.484074	 0.720952	 1.029484
H	 2.032157	 -0.057870	 -0.430199
H	 0.208066	 2.406878	 -0.341332
H	 1.910723	 2.415908	 -0.755478
H	 0.759309	 1.622530	 -1.811375

	symmetry c1
}
set optking {
	frozen_dihedral = ("
		6 3 2 4,
		8 6 3 2
	")
}

ee = energy('scf')
oeprop('DIPOLE', 'QUADRUPOLE', 'MULLIKEN_CHARGES')
f=open( 'psi4out.xyz', 'w' )
f.write( "15  " )
f.write( str(ee) + "\n" )
f.write( MOL.save_string_xyz() )
f.close()
--------------------------------------------------------------------------

    Molecular point group: c1

    Geometry (in Angstrom), charge = 0, multiplicity = 1:

       Center              X                  Y                   Z               Mass
    ------------   -----------------  -----------------  -----------------  -----------------
           H         -2.859096578367     0.070409038128     0.156120057942     1.007825032070
           C         -2.064356578367    -0.663040961872     0.156354057942    12.000000000000
           O         -0.855699578367     0.025699038128     0.156232057942    15.994914619560
           H         -2.166112578367    -1.292000961872    -0.726478942058     1.007825032070
           H         -2.166201578367    -1.291535961872     1.039508057942     1.007825032070
           C          0.272964421633    -0.795270961872     0.156502057942    12.000000000000
           C          1.514957421633     0.078866038128     0.156361057942    12.000000000000
           H          0.265968421633    -1.443350961872    -0.720904942058     1.007825032070
           H          0.265871421633    -1.442892961872     1.034251057942     1.007825032070
           C          1.312152421633     1.382275038128    -0.614921942058    12.000000000000
           H          1.786814421633     0.290837038128     1.185838057942     1.007825032070
           H          2.334897421633    -0.487984961872    -0.273844942058     1.007825032070
           H          0.510806421633     1.976763038128    -0.184977942058     1.007825032070
           H          2.213463421633     1.985793038128    -0.599123942058     1.007825032070
           H          1.062049421633     1.192415038128    -1.655020942058     1.007825032070

  Charge       = 0
  Multiplicity = 1
  Basis Set: 6-31G*
  Basis Set:

    Orbital Energies (a.u.)
    -----------------------

    Doubly Occupied:

       1A    -20.554447     2A    -11.266148     3A    -11.264770
       4A    -11.213627     5A    -11.199367     6A     -1.380191
       7A     -1.052532     8A     -0.946883     9A     -0.890146
      10A     -0.793455    11A     -0.672785    12A     -0.660776
      13A     -0.634791    14A     -0.598994    15A     -0.550304
      16A     -0.542143    17A     -0.505425    18A     -0.481604
      19A     -0.473359    20A     -0.458904    21A     -0.411983

  @DF-RHF Final Energy:  -232.13511650738474

   => Energetics <=

    Nuclear Repulsion Energy =            194.5138178858173319
    One-Electron Energy =                -700.1927892885189522
    Two-Electron Energy =                 273.5438548953168265
    DFT Exchange-Correlation Energy =       0.0000000000000000
    Empirical Dispersion Energy =           0.0000000000000000
    PCM Polarization Energy =               0.0000000000000000
    EFP Energy =                            0.0000000000000000
    Total Energy =                       -232.1351165073847937

  Mulliken Charges: (a.u.)
   Center  Symbol    Alpha    Beta     Spin     Total
       1     H     0.41240  0.41240  0.00000  0.17519
       2     C     3.07859  3.07859  0.00000 -0.15719
       3     O     4.30413  4.30413  0.00000 -0.60825
       4     H     0.43002  0.43002  0.00000  0.13997
       5     H     0.43036  0.43036  0.00000  0.13927
       6     C     2.98643  2.98643  0.00000  0.02713
       7     C     3.16696  3.16696  0.00000 -0.33392
       8     H     0.43253  0.43253  0.00000  0.13494
       9     H     0.42998  0.42998  0.00000  0.14004
      10     C     3.23548  3.23548  0.00000 -0.47095
      11     H     0.41848  0.41848  0.00000  0.16304
      12     H     0.42132  0.42132  0.00000  0.15736
      13     H     0.40577  0.40577  0.00000  0.18846
      14     H     0.42436  0.42436  0.00000  0.15128
      15     H     0.42319  0.42319  0.00000  0.15362

   Total alpha = 21.00000, Total beta = 21.00000, Total charge =  0.00000
