                              Psi4 1.0.54 Driver

  ==> Input File <==

--------------------------------------------------------------------------
set {
	reference rhf
	basis cc-pvtz
}

set_num_threads( 4 )
memory 2 gb

molecule MOL {
0 1

H	 -2.816458	 -0.841657	 -0.064679
N	 -1.878861	 -0.711874	 0.250184
C	 -1.341419	 0.551458	 -0.220231
H	 -1.333674	 -1.468530	 -0.105118
C	 0.082190	 0.731516	 0.254705
H	 -1.357065	 0.652078	 -1.304747
H	 -1.939897	 1.357530	 0.189797
O	 0.881195	 -0.248324	 -0.336237
H	 0.440901	 1.722476	 -0.020063
H	 0.119896	 0.643586	 1.338114
C	 1.259223	 0.028016	 -1.643888
H	 1.866454	 -0.793749	 -1.995113
H	 0.393717	 0.126084	 -2.295789
H	 1.840987	 0.944766	 -1.704570

	symmetry c1
}
set optking {
	frozen_dihedral = ("
		11 8 5 3
	")
}

ee,wfn = optimize('scf', return_wfn=True)
oeprop( wfn, 'DIPOLE', 'QUADRUPOLE', 'MULLIKEN_CHARGES')
f=open( 'psi4out.xyz', 'w' )
f.write( "14  " )
f.write( str(ee) + "\n" )
f.write( MOL.save_string_xyz() )
f.close()
--------------------------------------------------------------------------

    Molecular point group: c1
  Charge       = 0
  Multiplicity = 1
  Basis Set: CC-PVTZ
  Basis Set:
  @DF-RHF Final Energy:  -248.22052382178836
    Total Energy =                       -248.2205238217881629
    Molecular point group: c1
  Basis Set: CC-PVTZ
  Basis Set:
  Basis Set: CC-PVTZ
  Basis Set:
  @DF-RHF Final Energy:  -248.15844632154932
    Total Energy =                       -248.1584463215494338
  Basis Set: CC-PVTZ
  Basis Set:
  Basis Set: CC-PVTZ
  Basis Set:
  @DF-RHF Final Energy:  -248.21684027565499
    Total Energy =                       -248.2168402756548176
  Basis Set: CC-PVTZ
  Basis Set:
  Basis Set: CC-PVTZ
  Basis Set:
  @DF-RHF Final Energy:  -248.22248555092946
    Total Energy =                       -248.2224855509293775
  Basis Set: CC-PVTZ
  Basis Set:
  Basis Set: CC-PVTZ
  Basis Set:
  @DF-RHF Final Energy:  -248.22269497897031
    Total Energy =                       -248.2226949789702530
  Basis Set: CC-PVTZ
  Basis Set:
  Basis Set: CC-PVTZ
  Basis Set:
  @DF-RHF Final Energy:  -248.22271619357380
    Total Energy =                       -248.2227161935737740
  Basis Set: CC-PVTZ
  Basis Set:
  Basis Set: CC-PVTZ
  Basis Set:
  @DF-RHF Final Energy:  -248.22271787100084
    Total Energy =                       -248.2227178710009525
  Basis Set: CC-PVTZ
  Basis Set:
  Charge       = 0
  Multiplicity = 1
  Basis Set: CC-PVTZ
  Basis Set:

    Orbital Energies (a.u.)
    -----------------------

    Doubly Occupied:

       1A    -20.550608     2A    -15.525769     3A    -11.265088
       4A    -11.264861     5A    -11.241764     6A     -1.382301
       7A     -1.177776     8A     -0.998543     9A     -0.919625
      10A     -0.810521    11A     -0.688185    12A     -0.675697
      13A     -0.645545    14A     -0.621070    15A     -0.601613
      16A     -0.545940    17A     -0.531007    18A     -0.513389
      19A     -0.467660    20A     -0.420697    21A     -0.383106

  @DF-RHF Final Energy:  -248.22271799590743

   => Energetics <=

    Nuclear Repulsion Energy =            196.4527084874789011
    One-Electron Energy =                -726.8893256668313825
    Two-Electron Energy =                 282.2138991834448234
    DFT Exchange-Correlation Energy =       0.0000000000000000
    Empirical Dispersion Energy =           0.0000000000000000
    PCM Polarization Energy =               0.0000000000000000
    EFP Energy =                            0.0000000000000000
    Total Energy =                       -248.2227179959076011
    Molecular point group: c1
  Basis Set: CC-PVTZ
  Basis Set:

  -Total Gradient:
     Atom            X                  Y                   Z
    ------   -----------------  -----------------  -----------------
       1        0.000000990766     0.000002011483     0.000004512753
       2       -0.000001556542    -0.000027721108     0.000000741404
       3       -0.000005570356     0.000090441596    -0.000321167858
       4        0.000003859202    -0.000008805178     0.000009062246
       5       -0.000151240214    -0.000190342114     0.000474117330
       6        0.000013371102     0.000005538255    -0.000006598490
       7        0.000004255484     0.000009507951    -0.000009947987
       8        0.000441315165     0.000361072226    -0.000175520645
       9       -0.000001397925     0.000010615055     0.000000964390
      10       -0.000005151984    -0.000004902645    -0.000001820303
      11       -0.000298465701    -0.000247444230     0.000027985309
      12        0.000002101453    -0.000005618901    -0.000004338762
      13       -0.000000474148     0.000001171111     0.000002509040
      14       -0.000002036302     0.000004476498    -0.000000498427

  **** Optimization is complete! (in 8 steps) ****
    Final optimized geometry and variables:
    Molecular point group: c1

    Geometry (in Angstrom), charge = 0, multiplicity = 1:

    H           -2.489414619683    -0.743092724167     1.048929294631
    N           -1.542455479526    -0.442168386230     1.134333858550
    C           -1.194366324829     0.513735742238     0.099907903747
    H           -0.958517467653    -1.249160664329     1.073272168280
    C            0.278873153990     0.869307432476     0.188550935996
    H           -1.429647480576     0.167014802374    -0.906122421430
    H           -1.764693531340     1.423102702764     0.257908817323
    O            1.124079385422    -0.226796971933    -0.017154313134
    H            0.510379819599     1.659982786491    -0.522460277718
    H            0.493027373117     1.233023828627     1.183887160638
    C            1.336027854821    -0.596170037453    -1.341142359185
    H            2.064722572826    -1.393995993457    -1.343291499446
    H            0.431171432463    -0.956932463597    -1.821642034523
    H            1.727198598404     0.233969047086    -1.924939437526

  Mulliken Charges: (a.u.)
   Center  Symbol    Alpha    Beta     Spin     Total
       1     H     0.43003  0.43003  0.00000  0.13994
       2     N     3.69217  3.69217  0.00000 -0.38433
       3     C     3.03239  3.03239  0.00000 -0.06478
       4     H     0.42330  0.42330  0.00000  0.15339
       5     C     2.98395  2.98395  0.00000  0.03210
       6     H     0.46886  0.46886  0.00000  0.06229
       7     H     0.45302  0.45302  0.00000  0.09395
       8     O     4.18218  4.18218  0.00000 -0.36435
       9     H     0.46587  0.46587  0.00000  0.06827
      10     H     0.44843  0.44843  0.00000  0.10313
      11     C     3.03584  3.03584  0.00000 -0.07169
      12     H     0.44518  0.44518  0.00000  0.10964
      13     H     0.47033  0.47033  0.00000  0.05935
      14     H     0.46845  0.46845  0.00000  0.06310

   Total alpha = 21.00000, Total beta = 21.00000, Total charge = -0.00000

*** Psi4 exiting successfully. Buy a developer a beer!
