  ==> Input File <==

--------------------------------------------------------------------------
set {
	reference rhf
	basis 6-31G*
}

set_num_threads( 4 )
memory 2 gb

molecule MOL {
0 1

H	 -3.161837	 0.500524	 -0.000234
C	 -2.367097	 -0.232926	 -0.000000
O	 -1.158440	 0.455814	 -0.000122
H	 -2.468853	 -0.861886	 -0.882833
H	 -2.468942	 -0.861421	 0.883154
C	 -0.029776	 -0.365156	 0.000148
C	 -0.433060	 -1.752781	 0.467611
H	 0.735283	 0.048686	 0.658418
H	 0.399848	 -0.413000	 -1.001372
C	 0.745989	 -2.724214	 0.499893
H	 -0.876187	 -1.668083	 1.455096
H	 -1.209232	 -2.126615	 -0.193074
H	 1.524650	 -2.380283	 1.175039
H	 0.429782	 -3.705874	 0.836348
H	 1.189778	 -2.841574	 -0.484832

	symmetry c1
}
set optking {
	frozen_dihedral = ("
		8 6 3 2
	")
}

ee = optimize('scf')
oeprop('DIPOLE', 'QUADRUPOLE', 'MULLIKEN_CHARGES')
f=open( 'psi4out.xyz', 'w' )
f.write( "15  " )
f.write( str(ee) + "\n" )
f.write( MOL.save_string_xyz() )
f.close()
--------------------------------------------------------------------------

    Molecular point group: c1
  Charge       = 0
  Multiplicity = 1
  Basis Set: 6-31G*
  Basis Set:
  @DF-RHF Final Energy:  -232.11450389874281
    Total Energy =                       -232.1145038987427824
    Molecular point group: c1
  Basis Set: 6-31G*
  Basis Set:
  Basis Set: 6-31G*
  Basis Set:
  @DF-RHF Final Energy:  -232.11652266535660
    Total Energy =                       -232.1165226653565696
  Basis Set: 6-31G*
  Basis Set:
  Basis Set: 6-31G*
  Basis Set:
  @DF-RHF Final Energy:  -232.12463477487961
    Total Energy =                       -232.1246347748797234
  Basis Set: 6-31G*
  Basis Set:
  Basis Set: 6-31G*
  Basis Set:
  @DF-RHF Final Energy:  -232.12821436878741
    Total Energy =                       -232.1282143687874395
  Basis Set: 6-31G*
  Basis Set:
  @DF-RHF Final Energy:  -232.12868472530175
    Total Energy =                       -232.1286847253016390
  Basis Set: 6-31G*
  Basis Set:
  @DF-RHF Final Energy:  -232.12950016141417
    Total Energy =                       -232.1295001614141711
  Basis Set: 6-31G*
  Basis Set:
  Basis Set: 6-31G*
  Basis Set:
  @DF-RHF Final Energy:  -232.12966200707220
    Total Energy =                       -232.1296620070721701
  Basis Set: 6-31G*
  Basis Set:
  Basis Set: 6-31G*
  Basis Set:
  @DF-RHF Final Energy:  -232.12967568978445
    Total Energy =                       -232.1296756897844489
  Basis Set: 6-31G*
  Basis Set:
  Charge       = 0
  Multiplicity = 1
  Basis Set: 6-31G*
  Basis Set:

    Orbital Energies (a.u.)
    -----------------------

    Doubly Occupied:

       1A    -20.546842     2A    -11.266291     3A    -11.262433
       4A    -11.222731     5A    -11.218141     6A     -1.367081
       7A     -1.059864     8A     -0.962130     9A     -0.886721
      10A     -0.797490    11A     -0.672324    12A     -0.659332
      13A     -0.625237    14A     -0.606480    15A     -0.558287
      16A     -0.544281    17A     -0.523191    18A     -0.500252
      19A     -0.492640    20A     -0.441975    21A     -0.402700

  @DF-RHF Final Energy:  -232.12967654983325

   => Energetics <=

    Nuclear Repulsion Energy =            192.0244442978093673
    One-Electron Energy =                -695.0754008250554534
    Two-Electron Energy =                 270.9212799774127802
    DFT Exchange-Correlation Energy =       0.0000000000000000
    Empirical Dispersion Energy =           0.0000000000000000
    PCM Polarization Energy =               0.0000000000000000
    EFP Energy =                            0.0000000000000000
    Total Energy =                       -232.1296765498332775
    Molecular point group: c1
  Basis Set: 6-31G*
  Basis Set:

  -Total Gradient:
     Atom            X                  Y                   Z
    ------   -----------------  -----------------  -----------------
       1        0.000025563958     0.000004968883     0.000000832103
       2       -0.000050990534    -0.000027684614     0.003715219412
       3       -0.000280035254    -0.000418143901    -0.004888300503
       4       -0.000020430787     0.000007637670     0.000001884541
       5       -0.000005622700     0.000003426499     0.000003170936
       6        0.002151057281     0.002544372686    -0.002098907681
       7        0.000013169518    -0.000021660593    -0.000026395331
       8       -0.001818747825    -0.002093116819     0.003278324605
       9       -0.000016769482     0.000014033677    -0.000008744948
      10       -0.000012584326    -0.000007430460     0.000017585279
      11       -0.000011408433    -0.000003187649    -0.000004999755
      12        0.000013893810     0.000005582854     0.000008382861
      13        0.000003938992     0.000001264422    -0.000005249490
      14        0.000011603746    -0.000004281385     0.000006315604
      15       -0.000002637967    -0.000005781271     0.000000882367

  **** Optimization is complete! (in 9 steps) ****
    Final optimized geometry and variables:
    Molecular point group: c1

    Geometry (in Angstrom), charge = 0, multiplicity = 1:

    H           -2.461559767278     1.747984649702    -0.252415198645
    C           -1.818244289377     0.879055992586    -0.218121505067
    O           -0.511102231949     1.359270434624    -0.200957918465
    H           -2.024418847961     0.267536871950    -1.094109211012
    H           -2.063893593265     0.306049569256     0.670266424238
    C            0.571808145397     0.462671252162    -0.179987840508
    C            0.285865857890    -0.960602243836     0.298199934313
    H            1.299535724748     0.892788153611     0.499370389550
    H            1.013704294669     0.425519865725    -1.173309176001
    C            1.568789815475    -1.793142005500     0.319468323871
    H           -0.142388802288    -0.932179317273     1.295904892958
    H           -0.441659966785    -1.443864361829    -0.346347436098
    H            2.309804582129    -1.360016605145     0.984898084653
    H            1.369038943757    -2.803172291476     0.660925887680
    H            2.011435012604    -1.860610158165    -0.670087018127

  Mulliken Charges: (a.u.)
   Center  Symbol    Alpha    Beta     Spin     Total
       1     H     0.41206  0.41206  0.00000  0.17589
       2     C     3.07803  3.07803  0.00000 -0.15605
       3     O     4.31723  4.31723  0.00000 -0.63446
       4     H     0.43146  0.43146  0.00000  0.13708
       5     H     0.42890  0.42890  0.00000  0.14221
       6     C     2.96781  2.96781  0.00000  0.06437
       7     C     3.18240  3.18240  0.00000 -0.36479
       8     H     0.42179  0.42179  0.00000  0.15642
       9     H     0.42890  0.42890  0.00000  0.14220
      10     C     3.24496  3.24496  0.00000 -0.48992
      11     H     0.41603  0.41603  0.00000  0.16795
      12     H     0.41786  0.41786  0.00000  0.16428
      13     H     0.41863  0.41863  0.00000  0.16275
      14     H     0.41507  0.41507  0.00000  0.16986
      15     H     0.41888  0.41888  0.00000  0.16224

   Total alpha = 21.00000, Total beta = 21.00000, Total charge = -0.00000
