                              Psi4 1.0.54 Driver

  ==> Input File <==

--------------------------------------------------------------------------
set {
	reference rhf
	basis cc-pvtz
}

set_num_threads( 4 )
memory 2 gb

molecule MOL {
0 1

H	 0.760256	 -0.212700	 2.360616
C	 -0.203067	 -0.234259	 1.872503
O	 0.000000	 0.000000	 0.518769
H	 -0.661060	 -1.206122	 2.044487
H	 -0.838478	 0.528381	 2.318023
C	 -1.165153	 0.000000	 -0.236961
H	 -1.229451	 0.882440	 -0.870223
H	 -2.002557	 0.000000	 0.445289
H	 -1.229451	 -0.882440	 -0.870223

	symmetry c1
}
set optking {
	frozen_dihedral = ("
		2 3 6 7
	")
}

ee,wfn = optimize('scf', return_wfn=True)
oeprop( wfn, 'DIPOLE', 'QUADRUPOLE', 'MULLIKEN_CHARGES')
f=open( 'psi4out.xyz', 'w' )
f.write( "9  " )
f.write( str(ee) + "\n" )
f.write( MOL.save_string_xyz() )
f.close()
--------------------------------------------------------------------------

    Molecular point group: c1
  Charge       = 0
  Multiplicity = 1
  Basis Set: CC-PVTZ
  Basis Set:
  @DF-RHF Final Energy:  -154.12263663214833
    Total Energy =                       -154.1226366321482999
    Molecular point group: c1
  Basis Set: CC-PVTZ
  Basis Set:
  Basis Set: CC-PVTZ
  Basis Set:
  @DF-RHF Final Energy:  -154.12343050904911
    Total Energy =                       -154.1234305090491432
  Basis Set: CC-PVTZ
  Basis Set:
  Basis Set: CC-PVTZ
  Basis Set:
  @DF-RHF Final Energy:  -154.12369302401277
    Total Energy =                       -154.1236930240127094
  Basis Set: CC-PVTZ
  Basis Set:
  Charge       = 0
  Multiplicity = 1
  Basis Set: CC-PVTZ
  Basis Set:

    Orbital Energies (a.u.)
    -----------------------

    Doubly Occupied:

       1A    -20.546790     2A    -11.263574     3A    -11.262644
       4A     -1.378028     5A     -0.975830     6A     -0.872630
       7A     -0.659424     8A     -0.654590     9A     -0.644861
      10A     -0.559165    11A     -0.527332    12A     -0.475138
      13A     -0.415319

  @DF-RHF Final Energy:  -154.12369535651763

   => Energetics <=

    Nuclear Repulsion Energy =             84.5985317763252738
    One-Electron Energy =                -376.9738034044797246
    Two-Electron Energy =                 138.2515762716367931
    DFT Exchange-Correlation Energy =       0.0000000000000000
    Empirical Dispersion Energy =           0.0000000000000000
    PCM Polarization Energy =               0.0000000000000000
    EFP Energy =                            0.0000000000000000
    Total Energy =                       -154.1236953565176577
    Molecular point group: c1
  Basis Set: CC-PVTZ
  Basis Set:

  -Total Gradient:
     Atom            X                  Y                   Z
    ------   -----------------  -----------------  -----------------
       1        0.000005941543     0.000002042489    -0.000023085958
       2       -0.000154046541     0.001187158903     0.000266405945
       3       -0.000162516869    -0.001472213955    -0.000211685545
       4        0.000005635268     0.000026120750    -0.000035923810
       5        0.000002531817    -0.000006062713    -0.000031379345
       6        0.000922767035    -0.000476771426    -0.001048894750
       7       -0.000612848152     0.000740335234     0.001127401906
       8       -0.000027611012     0.000006257696    -0.000012095669
       9        0.000020146912    -0.000006866979    -0.000030742775

  **** Optimization is complete! (in 4 steps) ****
    Final optimized geometry and variables:
    Molecular point group: c1

    Geometry (in Angstrom), charge = 0, multiplicity = 1:

    H            1.271245598973    -0.126775803669     1.611807405421
    C            0.292591173957    -0.150882313100     1.154369693994
    O            0.458237133806     0.075068887911    -0.206676366695
    H           -0.157998912346    -1.121318782352     1.350756007910
    H           -0.325959784500     0.615935070108     1.614713454370
    C           -0.710726464889     0.081435782808    -0.966659218084
    H           -0.729687406524     0.971214317087    -1.583880652711
    H           -1.598790322009     0.090342632314    -0.342138572498
    H           -0.752699745842    -0.793907221931    -1.606190200484

  Mulliken Charges: (a.u.)
   Center  Symbol    Alpha    Beta     Spin     Total
       1     H     0.44979  0.44979  0.00000  0.10043
       2     C     3.02078  3.02078  0.00000 -0.04157
       3     O     4.17265  4.17265  0.00000 -0.34529
       4     H     0.47325  0.47325  0.00000  0.05350
       5     H     0.47283  0.47283  0.00000  0.05435
       6     C     3.01632  3.01632  0.00000 -0.03263
       7     H     0.45720  0.45720  0.00000  0.08560
       8     H     0.47510  0.47510  0.00000  0.04980
       9     H     0.46209  0.46209  0.00000  0.07581

   Total alpha = 13.00000, Total beta = 13.00000, Total charge =  0.00000

*** Psi4 exiting successfully. Buy a developer a beer!
