  ==> Input File <==

--------------------------------------------------------------------------
set {
	reference rhf
	basis 6-31G*
}

set_num_threads( 1 )
memory 2 gb

molecule MOL {
0 1

H	 3.528396	 -0.790972	 -0.953033
O	 2.614706	 -1.014229	 -0.804432
C	 2.077727	 -0.067559	 -0.035091
C	 0.624473	 -0.343591	 0.253101
O	 2.706362	 0.862689	 0.352818
C	 -0.265902	 0.883932	 0.072916
H	 0.324016	 -1.163849	 -0.390541
H	 0.565024	 -0.726111	 1.268924
C	 -1.728698	 0.646073	 0.462102
H	 -0.209144	 1.219470	 -0.958188
H	 0.135059	 1.692851	 0.673903
C	 -2.482460	 -0.343073	 -0.431425
H	 -2.245265	 1.602650	 0.432430
H	 -1.779332	 0.308348	 1.496285
C	 -3.960546	 -0.461025	 -0.060175
H	 -2.395034	 -0.026811	 -1.468912
H	 -2.024850	 -1.327147	 -0.371646
H	 -4.472726	 -1.168004	 -0.705284
H	 -4.465146	 0.496508	 -0.151489
H	 -4.081218	 -0.800940	 0.964585

	symmetry c1
}
set optking {
	frozen_dihedral = ("
		16 12 9 6,
		7 4 6 10,
		12 9 6 10,
		1 2 3 5
	")
}

ee = energy('scf')
oeprop('DIPOLE', 'QUADRUPOLE', 'MULLIKEN_CHARGES')
f=open( 'psi4out.xyz', 'w' )
f.write( "20  " )
f.write( str(ee) + "\n" )
f.write( MOL.save_string_xyz() )
f.close()
--------------------------------------------------------------------------

    Molecular point group: c1

    Geometry (in Angstrom), charge = 0, multiplicity = 1:

       Center              X                  Y                   Z               Mass
    ------------   -----------------  -----------------  -----------------  -----------------
           H          3.536743680840    -0.796690762345    -0.916416046023     1.007825032070
           O          2.623053680840    -1.019947762345    -0.767815046023    15.994914619560
           C          2.086074680840    -0.073277762345     0.001525953977    12.000000000000
           C          0.632820680840    -0.349309762345     0.289717953977    12.000000000000
           O          2.714709680840     0.856970237655     0.389434953977    15.994914619560
           C         -0.257554319160     0.878213237655     0.109532953977    12.000000000000
           H          0.332363680840    -1.169567762345    -0.353924046023     1.007825032070
           H          0.573371680840    -0.731829762345     1.305540953977     1.007825032070
           C         -1.720350319160     0.640354237655     0.498718953977    12.000000000000
           H         -0.200796319160     1.213751237655    -0.921571046023     1.007825032070
           H          0.143406680840     1.687132237655     0.710519953977     1.007825032070
           C         -2.474112319160    -0.348791762345    -0.394808046023    12.000000000000
           H         -2.236917319160     1.596931237655     0.469046953977     1.007825032070
           H         -1.770984319160     0.302629237655     1.532901953977     1.007825032070
           C         -3.952198319160    -0.466743762345    -0.023558046023    12.000000000000
           H         -2.386686319160    -0.032529762345    -1.432295046023     1.007825032070
           H         -2.016502319160    -1.332865762345    -0.335029046023     1.007825032070
           H         -4.464378319160    -1.173722762345    -0.668667046023     1.007825032070
           H         -4.456798319160     0.490789237655    -0.114872046023     1.007825032070
           H         -4.072870319160    -0.806658762345     1.001201953977     1.007825032070

  Charge       = 0
  Multiplicity = 1
  Basis Set: 6-31G*
  Basis Set:

    Orbital Energies (a.u.)
    -----------------------

    Doubly Occupied:

       1A    -20.613763     2A    -20.549968     3A    -11.380859
       4A    -11.238669     5A    -11.227816     6A    -11.222473
       7A    -11.221131     8A    -11.213097     9A     -1.474538
      10A     -1.365063    11A     -1.097884    12A     -1.041572
      13A     -0.961728    14A     -0.869111    15A     -0.817098
      16A     -0.783036    17A     -0.701883    18A     -0.688007
      19A     -0.649044    20A     -0.640576    21A     -0.609252
      22A     -0.594164    23A     -0.575589    24A     -0.555493
      25A     -0.544607    26A     -0.512811    27A     -0.499918
      28A     -0.478566    29A     -0.472882    30A     -0.467468
      31A     -0.458128    32A     -0.440520

  @DF-RHF Final Energy:  -383.94706031192334

   => Energetics <=

    Nuclear Repulsion Energy =            375.9093529818612751
    One-Electron Energy =               -1267.7793898260463266
    Two-Electron Energy =                 507.9229765322613730
    DFT Exchange-Correlation Energy =       0.0000000000000000
    Empirical Dispersion Energy =           0.0000000000000000
    PCM Polarization Energy =               0.0000000000000000
    EFP Energy =                            0.0000000000000000
    Total Energy =                       -383.9470603119236785

  Mulliken Charges: (a.u.)
   Center  Symbol    Alpha    Beta     Spin     Total
       1     H     0.26862  0.26862  0.00000  0.46275
       2     O     4.34922  4.34922  0.00000 -0.69843
       3     C     2.62220  2.62220  0.00000  0.75561
       4     C     3.21423  3.21423  0.00000 -0.42846
       5     O     4.27927  4.27927  0.00000 -0.55853
       6     C     3.16106  3.16106  0.00000 -0.32213
       7     H     0.39651  0.39651  0.00000  0.20699
       8     H     0.39889  0.39889  0.00000  0.20222
       9     C     3.15519  3.15519  0.00000 -0.31038
      10     H     0.41595  0.41595  0.00000  0.16811
      11     H     0.40171  0.40171  0.00000  0.19659
      12     C     3.15470  3.15470  0.00000 -0.30940
      13     H     0.41769  0.41769  0.00000  0.16462
      14     H     0.42204  0.42204  0.00000  0.15592
      15     C     3.23944  3.23944  0.00000 -0.47887
      16     H     0.42177  0.42177  0.00000  0.15646
      17     H     0.42160  0.42160  0.00000  0.15680
      18     H     0.41807  0.41807  0.00000  0.16387
      19     H     0.42073  0.42073  0.00000  0.15854
      20     H     0.42113  0.42113  0.00000  0.15774

   Total alpha = 32.00000, Total beta = 32.00000, Total charge =  0.00000
