  ==> Input File <==

--------------------------------------------------------------------------
set {
	reference rhf
	basis 6-31G*
}

set_num_threads( 1 )
memory 2 gb

molecule MOL {
0 1

H	 2.465338	 -2.224223	 0.000000
O	 2.784187	 -1.332015	 0.000000
C	 1.765313	 -0.449364	 0.000000
C	 0.662572	 -0.746925	 -0.794584
C	 1.786834	 0.711645	 0.748151
H	 0.669876	 -1.655446	 -1.366768
C	 -0.411992	 0.117123	 -0.836980
H	 2.623230	 0.965861	 1.368911
C	 0.690924	 1.556888	 0.682102
H	 -1.259224	 -0.120421	 -1.453119
C	 -0.414377	 1.290252	 -0.094276
N	 0.718814	 2.783753	 1.475519
H	 -1.240435	 1.970343	 -0.116806
O	 1.688739	 2.991785	 2.140351
O	 -0.228335	 3.505742	 1.413033

	symmetry c1
}
set optking {
	frozen_dihedral = ("
		11 9 12 14
	")
}

ee = energy('scf')
oeprop('DIPOLE', 'QUADRUPOLE', 'MULLIKEN_CHARGES')
f=open( 'psi4out.xyz', 'w' )
f.write( "15  " )
f.write( str(ee) + "\n" )
f.write( MOL.save_string_xyz() )
f.close()
--------------------------------------------------------------------------

    Molecular point group: c1

    Geometry (in Angstrom), charge = 0, multiplicity = 1:

       Center              X                  Y                   Z               Mass
    ------------   -----------------  -----------------  -----------------  -----------------
           H          1.528878875293    -3.305209436626    -0.520552203224     1.007825032070
           O          1.847727875293    -2.413001436626    -0.520552203224    15.994914619560
           C          0.828853875293    -1.530350436626    -0.520552203224    12.000000000000
           C         -0.273887124707    -1.827911436626    -1.315136203224    12.000000000000
           C          0.850374875293    -0.369341436626     0.227598796776    12.000000000000
           H         -0.266583124707    -2.736432436626    -1.887320203224     1.007825032070
           C         -1.348451124707    -0.963863436626    -1.357532203224    12.000000000000
           H          1.686770875293    -0.115125436626     0.848358796776     1.007825032070
           C         -0.245535124707     0.475901563374     0.161549796776    12.000000000000
           H         -2.195683124707    -1.201407436626    -1.973671203224     1.007825032070
           C         -1.350836124707     0.209265563374    -0.614828203224    12.000000000000
           N         -0.217645124707     1.702766563374     0.954966796776    14.003074004780
           H         -2.176894124707     0.889356563374    -0.637358203224     1.007825032070
           O          0.752279875293     1.910798563374     1.619798796776    15.994914619560
           O         -1.164794124707     2.424755563374     0.892480796776    15.994914619560

  Charge       = 0
  Multiplicity = 1
  Basis Set: 6-31G*
  Basis Set:

    Orbital Energies (a.u.)
    -----------------------

    Doubly Occupied:

       1A    -20.608699     2A    -20.603302     3A    -20.602716
       4A    -15.857826     5A    -11.327248     6A    -11.310000
       7A    -11.267974     8A    -11.265800     9A    -11.265621
      10A    -11.264425    11A     -1.636506    12A     -1.432263
      13A     -1.419704    14A     -1.200377    15A     -1.094442
      16A     -1.046957    17A     -0.964563    18A     -0.865991
      19A     -0.842809    20A     -0.795221    21A     -0.735497
      22A     -0.732972    23A     -0.721633    24A     -0.711898
      25A     -0.681384    26A     -0.639169    27A     -0.624641
      28A     -0.576851    29A     -0.567895    30A     -0.529081
      31A     -0.513566    32A     -0.490452    33A     -0.487682
      34A     -0.452856    35A     -0.378265    36A     -0.347789

  @DF-RHF Final Energy:  -509.02317828397503

   => Energetics <=

    Nuclear Repulsion Energy =            503.2147200139112897
    One-Electron Energy =               -1692.7474432090775736
    Two-Electron Energy =                 680.5095449111923926
    DFT Exchange-Correlation Energy =       0.0000000000000000
    Empirical Dispersion Energy =           0.0000000000000000
    PCM Polarization Energy =               0.0000000000000000
    EFP Energy =                            0.0000000000000000
    Total Energy =                       -509.0231782839738344

  Mulliken Charges: (a.u.)
   Center  Symbol    Alpha    Beta     Spin     Total
       1     H     0.26736  0.26736  0.00000  0.46527
       2     O     4.37995  4.37995  0.00000 -0.75989
       3     C     2.79677  2.79677  0.00000  0.40646
       4     C     3.12311  3.12311  0.00000 -0.24622
       5     C     3.11450  3.11450  0.00000 -0.22901
       6     H     0.39096  0.39096  0.00000  0.21808
       7     C     3.10173  3.10173  0.00000 -0.20347
       8     H     0.35758  0.35758  0.00000  0.28484
       9     C     2.91432  2.91432  0.00000  0.17136
      10     H     0.38757  0.38757  0.00000  0.22486
      11     C     3.09543  3.09543  0.00000 -0.19086
      12     N     3.24076  3.24076  0.00000  0.51848
      13     H     0.36467  0.36467  0.00000  0.27066
      14     O     4.23237  4.23237  0.00000 -0.46474
      15     O     4.23292  4.23292  0.00000 -0.46584

   Total alpha = 36.00000, Total beta = 36.00000, Total charge = -0.00000
