  ==> Input File <==

--------------------------------------------------------------------------
set {
	reference rhf
	basis 6-31G*
}

set_num_threads( 1 )
memory 2 gb

molecule MOL {
0 1

H	 -2.646374	 -0.642757	 1.268656
C	 -2.083525	 -0.384536	 0.393091
O	 -0.807605	 -0.127164	 0.768327
F	 -2.118945	 -1.383102	 -0.486752
F	 -2.621877	 0.670592	 -0.209486
C	 -0.609356	 0.735051	 1.831328
C	 0.476135	 1.717359	 1.410685
Cl	 -0.117861	 -0.154133	 3.282190
H	 -1.495473	 1.294346	 2.075785
F	 0.710950	 2.582929	 2.373904
F	 0.058008	 2.384768	 0.353721
F	 1.597929	 1.113217	 1.103174

	symmetry c1
}
set optking {
	frozen_dihedral = ("
		10 7 6 9,
		9 6 3 2
	")
}

ee = energy('scf')
oeprop('DIPOLE', 'QUADRUPOLE', 'MULLIKEN_CHARGES')
f=open( 'psi4out.xyz', 'w' )
f.write( "12  " )
f.write( str(ee) + "\n" )
f.write( MOL.save_string_xyz() )
f.close()
--------------------------------------------------------------------------

    Molecular point group: c1

    Geometry (in Angstrom), charge = 0, multiplicity = 1:

       Center              X                  Y                   Z               Mass
    ------------   -----------------  -----------------  -----------------  -----------------
           H         -2.141321565228    -1.295241169953    -0.001145795254     1.007825032070
           C         -1.578472565228    -1.037020169953    -0.876710795254    12.000000000000
           O         -0.302552565228    -0.779648169953    -0.501474795254    15.994914619560
           F         -1.613892565228    -2.035586169953    -1.756553795254    18.998403224000
           F         -2.116824565228     0.018107830047    -1.479287795254    18.998403224000
           C         -0.104303565228     0.082566830047     0.561526204746    12.000000000000
           C          0.981187434772     1.064874830047     0.140883204746    12.000000000000
          CL          0.387191434772    -0.806617169953     2.012388204746    34.968852682000
           H         -0.990420565228     0.641861830047     0.805983204746     1.007825032070
           F          1.216002434772     1.930444830047     1.104102204746    18.998403224000
           F          0.563060434772     1.732283830047    -0.916080795254    18.998403224000
           F          2.102981434772     0.460732830047    -0.166627795254    18.998403224000

  Charge       = 0
  Multiplicity = 1
  Basis Set: 6-31G*
  Basis Set:

    Orbital Energies (a.u.)
    -----------------------

    Doubly Occupied:

       1A   -104.853989     2A    -26.364352     3A    -26.361056
       4A    -26.360585     5A    -26.344066     6A    -26.344044
       7A    -20.650244     8A    -11.532400     9A    -11.490858
      10A    -11.411035    11A    -10.588715    12A     -8.058052
      13A     -8.054550    14A     -8.054419    15A     -1.764270
      16A     -1.712522    17A     -1.661241    18A     -1.658676
      19A     -1.634302    20A     -1.490363    21A     -1.187292
      22A     -1.056315    23A     -0.984125    24A     -0.929030
      25A     -0.858914    26A     -0.858000    27A     -0.848979
      28A     -0.820875    29A     -0.817183    30A     -0.788932
      31A     -0.730081    32A     -0.726983    33A     -0.698185
      34A     -0.691997    35A     -0.681691    36A     -0.676644
      37A     -0.661734    38A     -0.660844    39A     -0.655497
      40A     -0.640554    41A     -0.612821    42A     -0.568197
      43A     -0.522871    44A     -0.487153    45A     -0.478411

  @DF-RHF Final Energy: -1146.30815096971014

   => Energetics <=

    Nuclear Repulsion Energy =            727.8951718292723854
    One-Electron Energy =               -3038.3406802082790819
    Two-Electron Energy =                1164.1373574092954186
    DFT Exchange-Correlation Energy =       0.0000000000000000
    Empirical Dispersion Energy =           0.0000000000000000
    PCM Polarization Energy =               0.0000000000000000
    EFP Energy =                            0.0000000000000000
    Total Energy =                      -1146.3081509697112779

  Mulliken Charges: (a.u.)
   Center  Symbol    Alpha    Beta     Spin     Total
       1     H     0.42005  0.42005  0.00000  0.15989
       2     C     2.56706  2.56706  0.00000  0.86588
       3     O     4.29650  4.29650  0.00000 -0.59299
       4     F     4.67565  4.67565  0.00000 -0.35131
       5     F     4.68020  4.68020  0.00000 -0.36040
       6     C     3.04391  3.04391  0.00000 -0.08781
       7     C     2.43049  2.43049  0.00000  1.13902
       8    CL     8.49907  8.49907  0.00000  0.00185
       9     H     0.37180  0.37180  0.00000  0.25640
      10     F     4.67377  4.67377  0.00000 -0.34754
      11     F     4.67447  4.67447  0.00000 -0.34894
      12     F     4.66702  4.66702  0.00000 -0.33405

   Total alpha = 45.00000, Total beta = 45.00000, Total charge = -0.00000
