  ==> Input File <==

--------------------------------------------------------------------------
set {
	reference rhf
	basis cc-pvtz
}

set_num_threads( 4 )
memory 2 gb

molecule MOL {
0 1

H	 -2.698799	 -0.000846	 0.036018
C	 -1.694291	 -0.000483	 0.434279
O	 -0.828718	 -0.000608	 -0.655022
H	 -1.576855	 0.881100	 1.056504
H	 -1.576401	 -0.881658	 1.057001
C	 0.075451	 1.066297	 -0.803576
C	 -0.625636	 2.400344	 -1.033943
C	 1.091930	 1.134772	 0.330590
H	 0.609802	 0.813309	 -1.710816
H	 -1.366063	 2.306478	 -1.818810
H	 0.098035	 3.148332	 -1.336534
H	 -1.117125	 2.764974	 -0.139479
H	 1.542688	 0.163270	 0.491974
H	 1.877999	 1.836840	 0.077669
H	 0.645992	 1.465712	 1.261267

	symmetry c1
}
set optking {
	frozen_dihedral = ("
		6 3 2 1
	")
}

ee = optimize('scf')
oeprop('DIPOLE', 'QUADRUPOLE', 'MULLIKEN_CHARGES')
f=open( 'psi4out.xyz', 'w' )
f.write( "15  " )
f.write( str(ee) + "\n" )
f.write( MOL.save_string_xyz() )
f.close()
--------------------------------------------------------------------------

    Molecular point group: c1
  Charge       = 0
  Multiplicity = 1
  Basis Set: CC-PVTZ
  Basis Set:
  @DF-RHF Final Energy:  -232.22310774983458
    Total Energy =                       -232.2231077498346963
    Molecular point group: c1
  Basis Set: CC-PVTZ
  Basis Set:
  Basis Set: CC-PVTZ
  Basis Set:
  @DF-RHF Final Energy:  -232.22369161834112
    Total Energy =                       -232.2236916183411495
  Basis Set: CC-PVTZ
  Basis Set:
  Basis Set: CC-PVTZ
  Basis Set:
  @DF-RHF Final Energy:  -232.22380058798285
    Total Energy =                       -232.2238005879829075
  Basis Set: CC-PVTZ
  Basis Set:
  Basis Set: CC-PVTZ
  Basis Set:
  @DF-RHF Final Energy:  -232.22382489865871
    Total Energy =                       -232.2238248986587905
  Basis Set: CC-PVTZ
  Basis Set:
  Basis Set: CC-PVTZ
  Basis Set:
  @DF-RHF Final Energy:  -232.22383187995990
    Total Energy =                       -232.2238318799599597
  Basis Set: CC-PVTZ
  Basis Set:
  Charge       = 0
  Multiplicity = 1
  Basis Set: CC-PVTZ
  Basis Set:

    Orbital Energies (a.u.)
    -----------------------

    Doubly Occupied:

       1A    -20.539339     2A    -11.273288     3A    -11.258917
       4A    -11.208614     5A    -11.208577     6A     -1.370975
       7A     -1.050997     8A     -0.940330     9A     -0.931774
      10A     -0.781830    11A     -0.677124    12A     -0.640220
      13A     -0.633627    14A     -0.570228    15A     -0.563635
      16A     -0.552308    17A     -0.538277    18A     -0.501344
      19A     -0.498614    20A     -0.443366    21A     -0.405856

  @DF-RHF Final Energy:  -232.22383249932369

   => Energetics <=

    Nuclear Repulsion Energy =            198.8449036428081627
    One-Electron Energy =                -708.9589875172147231
    Two-Electron Energy =                 277.8902513750828120
    DFT Exchange-Correlation Energy =       0.0000000000000000
    Empirical Dispersion Energy =           0.0000000000000000
    PCM Polarization Energy =               0.0000000000000000
    EFP Energy =                            0.0000000000000000
    Total Energy =                       -232.2238324993237484
    Molecular point group: c1
  Basis Set: CC-PVTZ
  Basis Set:

  -Total Gradient:
     Atom            X                  Y                   Z
    ------   -----------------  -----------------  -----------------
       1       -0.000005115920    -0.000063740454     0.000021059587
       2        0.000004886901     0.000057835314    -0.000018944507
       3       -0.000080456675    -0.000021962353    -0.000073916149
       4       -0.000006682700    -0.000010804864    -0.000005896942
       5       -0.000002286644    -0.000002265998     0.000014688819
       6       -0.000013241489    -0.000025681825     0.000106290378
       7        0.000006044819     0.000010261600    -0.000009512108
       8        0.000068645250     0.000038350906    -0.000036659780
       9        0.000003965468     0.000003615542     0.000017747862
      10        0.000004609852     0.000001512326    -0.000004734504
      11        0.000010960525     0.000003859065    -0.000007984640
      12       -0.000001607556     0.000008226525     0.000002921939
      13       -0.000000626611     0.000000743011    -0.000005089818
      14        0.000013211396    -0.000001056664     0.000030762448
      15       -0.000002306618     0.000001107869    -0.000030732587

  **** Optimization is complete! (in 6 steps) ****
    Final optimized geometry and variables:
    Molecular point group: c1

    Geometry (in Angstrom), charge = 0, multiplicity = 1:

    H           -2.316527204085    -0.910094334662     0.411198969025
    C           -1.293271766364    -0.908447972251     0.769024164405
    O           -0.417051677148    -0.910536259798    -0.317598333395
    H           -1.166375310581    -0.050551282079     1.416526172757
    H           -1.136466747139    -1.801931393169     1.362340895732
    C            0.492932590221     0.149305531137    -0.475160127901
    C           -0.204822634978     1.482598970170    -0.718938113894
    C            1.510584702490     0.214365765287     0.658053548644
    H            1.026107228847    -0.112731839969    -1.380526945016
    H           -0.915995335979     1.389205544271    -1.530375593396
    H            0.522816140414     2.239549033826    -0.988600694228
    H           -0.733618228560     1.834718113357     0.159354018878
    H            1.979869221574    -0.752096358308     0.794491666093
    H            2.282630878100     0.938504491155     0.424205449723
    H            1.058488340353     0.509809833977     1.597855435803

  Mulliken Charges: (a.u.)
   Center  Symbol    Alpha    Beta     Spin     Total
       1     H     0.45384  0.45384  0.00000  0.09232
       2     C     3.03810  3.03810  0.00000 -0.07621
       3     O     4.18791  4.18791  0.00000 -0.37583
       4     H     0.46934  0.46934  0.00000  0.06131
       5     H     0.45346  0.45346  0.00000  0.09308
       6     C     2.93955  2.93955  0.00000  0.12089
       7     C     3.15479  3.15479  0.00000 -0.30958
       8     C     3.15478  3.15478  0.00000 -0.30955
       9     H     0.44600  0.44600  0.00000  0.10801
      10     H     0.44494  0.44494  0.00000  0.11011
      11     H     0.45062  0.45062  0.00000  0.09875
      12     H     0.45554  0.45554  0.00000  0.08893
      13     H     0.44494  0.44494  0.00000  0.11013
      14     H     0.45065  0.45065  0.00000  0.09870
      15     H     0.45553  0.45553  0.00000  0.08895

   Total alpha = 21.00000, Total beta = 21.00000, Total charge = -0.00000
