  ==> Input File <==

--------------------------------------------------------------------------
set {
	reference rhf
	basis 6-31G*
}

set_num_threads( 4 )
memory 2 gb

molecule MOL {
0 1

H	 -1.748661	 -2.220942	 -0.005015
C	 -1.343207	 -1.225221	 -0.013879
N	 -0.055091	 -1.100174	 -0.261126
C	 -2.150779	 -0.125890	 0.222726
C	 0.449969	 0.122615	 -0.277109
H	 -3.200618	 -0.238980	 0.422496
N	 -1.660212	 1.097703	 0.209594
C	 -0.371804	 1.219904	 -0.038265
C	 1.928147	 0.267347	 -0.541394
H	 0.029131	 2.217482	 -0.051283
C	 2.624015	 -1.084804	 -0.729723
H	 2.056923	 0.867095	 -1.436147
H	 2.391035	 0.809150	 0.277361
H	 3.678477	 -0.943781	 -0.944712
H	 2.178785	 -1.630434	 -1.553458
H	 2.541960	 -1.694843	 0.164385

	symmetry c1
}
set optking {
	frozen_dihedral = ("
		12 9 5 3
	")
}

ee = optimize('scf')
oeprop('DIPOLE', 'QUADRUPOLE', 'MULLIKEN_CHARGES')
f=open( 'psi4out.xyz', 'w' )
f.write( "16  " )
f.write( str(ee) + "\n" )
f.write( MOL.save_string_xyz() )
f.close()
--------------------------------------------------------------------------

    Molecular point group: c1
  Charge       = 0
  Multiplicity = 1
  Basis Set: 6-31G*
  Basis Set:
  @DF-RHF Final Energy:  -340.75627806239305
    Total Energy =                       -340.7562780623928802
    Molecular point group: c1
  Basis Set: 6-31G*
  Basis Set:
  Basis Set: 6-31G*
  Basis Set:
  @DF-RHF Final Energy:  -340.75692133879363
    Total Energy =                       -340.7569213387935747
  Basis Set: 6-31G*
  Basis Set:
  Basis Set: 6-31G*
  Basis Set:
  @DF-RHF Final Energy:  -340.75710671280677
    Total Energy =                       -340.7571067128069444
  Basis Set: 6-31G*
  Basis Set:
  Basis Set: 6-31G*
  Basis Set:
  @DF-RHF Final Energy:  -340.75713834586423
    Total Energy =                       -340.7571383458642913
  Basis Set: 6-31G*
  Basis Set:
  Basis Set: 6-31G*
  Basis Set:
  @DF-RHF Final Energy:  -340.75715396207227
    Total Energy =                       -340.7571539620721524
  Basis Set: 6-31G*
  Basis Set:
  Basis Set: 6-31G*
  Basis Set:
  @DF-RHF Final Energy:  -340.75715017254618
    Total Energy =                       -340.7571501725462895
  Basis Set: 6-31G*
  Basis Set:
  Basis Set: 6-31G*
  Basis Set:
  @DF-RHF Final Energy:  -340.75715627721223
    Total Energy =                       -340.7571562772122320
  Basis Set: 6-31G*
  Basis Set:
  Charge       = 0
  Multiplicity = 1
  Basis Set: 6-31G*
  Basis Set:

    Orbital Energies (a.u.)
    -----------------------

    Doubly Occupied:

       1A    -15.586586     2A    -15.581605     3A    -11.283520
       4A    -11.274516     5A    -11.272980     6A    -11.270205
       7A    -11.234898     8A    -11.211998     9A     -1.313191
      10A     -1.221871    11A     -1.083125    12A     -1.013558
      13A     -0.910578    14A     -0.888063    15A     -0.823559
      16A     -0.717908    17A     -0.704683    18A     -0.657336
      19A     -0.628327    20A     -0.603269    21A     -0.565148
      22A     -0.558813    23A     -0.521334    24A     -0.503118
      25A     -0.500320    26A     -0.484441    27A     -0.430642
      28A     -0.394580    29A     -0.343950

  @DF-RHF Final Energy:  -340.75715666733527

   => Energetics <=

    Nuclear Repulsion Energy =            349.7066152547495221
    One-Electron Energy =               -1153.7593029971244505
    Two-Electron Energy =                 463.2955310750396620
    DFT Exchange-Correlation Energy =       0.0000000000000000
    Empirical Dispersion Energy =           0.0000000000000000
    PCM Polarization Energy =               0.0000000000000000
    EFP Energy =                            0.0000000000000000
    Total Energy =                       -340.7571566673352663
    Molecular point group: c1
  Basis Set: 6-31G*
  Basis Set:

  -Total Gradient:
     Atom            X                  Y                   Z
    ------   -----------------  -----------------  -----------------
       1        0.000008750901    -0.000000304378    -0.000022259169
       2       -0.000010497183     0.000011094442     0.000014679907
       3       -0.000013508873    -0.000020033494     0.000016977361
       4        0.000028501026    -0.000032146100     0.000066726899
       5       -0.000003951142    -0.000001258037     0.000026248761
       6       -0.000008150026     0.000008500793    -0.000030396404
       7        0.000048967020     0.000021710069    -0.000007954014
       8       -0.000056845082     0.000004180211    -0.000073505488
       9        0.000036697654    -0.000020646233    -0.000032911244
      10        0.000005456706     0.000010494953     0.000021398923
      11       -0.000017990019    -0.000036842432     0.000000038365
      12       -0.000000400196     0.000037264023     0.000021512543
      13       -0.000022789084    -0.000005392108    -0.000003622538
      14       -0.000006295969     0.000019957632     0.000003052983
      15        0.000004903385     0.000002084531     0.000004047218
      16        0.000007150881     0.000001336128    -0.000004034101

  **** Optimization is complete! (in 8 steps) ****
    Final optimized geometry and variables:
    Molecular point group: c1

    Geometry (in Angstrom), charge = 0, multiplicity = 1:

    H           -1.790157366999    -2.080733120608     0.189257340301
    C           -1.364732717490    -1.093628442572     0.179097264637
    N           -0.066572681324    -0.999671035916    -0.069238099844
    C           -2.141947233217     0.018257458684     0.414703757729
    C            0.466145650337     0.202463820454    -0.084538306543
    H           -3.194151673366    -0.066079501131     0.614876501277
    N           -1.618380934904     1.235869260630     0.402686874179
    C           -0.334386413866     1.324814185280     0.156947561840
    C            1.944539719371     0.364807263695    -0.367626615935
    H            0.095322967309     2.311514576080     0.147259304460
    C            2.703562853340    -0.945979686345    -0.549259508272
    H            2.057460010458     0.979623140481    -1.257834101718
    H            2.388464965833     0.936438639279     0.443986347077
    H            3.751386477914    -0.740324336008    -0.742954449373
    H            2.308100352374    -1.517606035537    -1.379702774347
    H            2.635351724199    -1.565513247394     0.336812125097

  Mulliken Charges: (a.u.)
   Center  Symbol    Alpha    Beta     Spin     Total
       1     H     0.39401  0.39401  0.00000  0.21198
       2     C     2.98872  2.98872  0.00000  0.02255
       3     N     3.76087  3.76087  0.00000 -0.52173
       4     C     3.00025  3.00025  0.00000 -0.00049
       5     C     2.86969  2.86969  0.00000  0.26061
       6     H     0.39423  0.39423  0.00000  0.21153
       7     N     3.72983  3.72983  0.00000 -0.45967
       8     C     2.99337  2.99337  0.00000  0.01325
       9     C     3.17622  3.17622  0.00000 -0.35245
      10     H     0.39503  0.39503  0.00000  0.20995
      11     C     3.23457  3.23457  0.00000 -0.46913
      12     H     0.40927  0.40927  0.00000  0.18146
      13     H     0.41009  0.41009  0.00000  0.17982
      14     H     0.42032  0.42032  0.00000  0.15936
      15     H     0.41114  0.41114  0.00000  0.17773
      16     H     0.41238  0.41238  0.00000  0.17523

   Total alpha = 29.00000, Total beta = 29.00000, Total charge =  0.00000
