  ==> Input File <==

--------------------------------------------------------------------------
set {
	reference rhf
	basis 6-31G*
}

set_num_threads( 1 )
memory 2 gb

molecule MOL {
0 1

H	 2.671591	 0.167717	 1.045567
C	 1.951159	 -0.223429	 0.317018
C	 0.692068	 0.589600	 0.160137
O	 2.190541	 -1.221245	 -0.282305
C	 -0.558097	 -0.297372	 0.091132
H	 0.791645	 1.202255	 -0.728243
H	 0.616171	 1.253469	 1.020572
C	 -1.850991	 0.512573	 -0.019058
H	 -0.476753	 -0.965681	 -0.762987
H	 -0.604799	 -0.930658	 0.975228
C	 -3.096943	 -0.368295	 -0.099594
H	 -1.800724	 1.150330	 -0.898172
H	 -1.931651	 1.177355	 0.838044
H	 -3.060452	 -1.020287	 -0.967456
H	 -3.996858	 0.233488	 -0.175704
H	 -3.191959	 -0.995686	 0.782074

	symmetry c1
}
set optking {
	frozen_dihedral = ("
		9 5 8 12,
		6 3 5 9
	")
}

ee = energy('scf')
oeprop('DIPOLE', 'QUADRUPOLE', 'MULLIKEN_CHARGES')
f=open( 'psi4out.xyz', 'w' )
f.write( "16  " )
f.write( str(ee) + "\n" )
f.write( MOL.save_string_xyz() )
f.close()
--------------------------------------------------------------------------

    Molecular point group: c1

    Geometry (in Angstrom), charge = 0, multiplicity = 1:

       Center              X                  Y                   Z               Mass
    ------------   -----------------  -----------------  -----------------  -----------------
           H          2.792254266452     0.350056381984     1.022122614187     1.007825032070
           C          2.071822266452    -0.041089618016     0.293573614187    12.000000000000
           C          0.812731266452     0.771939381984     0.136692614187    12.000000000000
           O          2.311204266452    -1.038905618016    -0.305749385813    15.994914619560
           C         -0.437433733548    -0.115032618016     0.067687614187    12.000000000000
           H          0.912308266452     1.384594381984    -0.751687385813     1.007825032070
           H          0.736834266452     1.435808381984     0.997127614187     1.007825032070
           C         -1.730327733548     0.694912381984    -0.042502385813    12.000000000000
           H         -0.356089733548    -0.783341618016    -0.786431385813     1.007825032070
           H         -0.484135733548    -0.748318618016     0.951783614187     1.007825032070
           C         -2.976279733548    -0.185955618016    -0.123038385813    12.000000000000
           H         -1.680060733548     1.332669381984    -0.921616385813     1.007825032070
           H         -1.810987733548     1.359694381984     0.814599614187     1.007825032070
           H         -2.939788733548    -0.837947618016    -0.990900385813     1.007825032070
           H         -3.876194733548     0.415827381984    -0.199148385813     1.007825032070
           H         -3.071295733548    -0.813346618016     0.758629614187     1.007825032070

  Charge       = 0
  Multiplicity = 1
  Basis Set: 6-31G*
  Basis Set:

    Orbital Energies (a.u.)
    -----------------------

    Doubly Occupied:

       1A    -20.563383     2A    -11.327567     3A    -11.236165
       4A    -11.226818     5A    -11.223472     6A    -11.213709
       7A     -1.403666     8A     -1.089851     9A     -1.015751
      10A     -0.907306    11A     -0.812994    12A     -0.776118
      13A     -0.678616    14A     -0.651393    15A     -0.628214
      16A     -0.601244    17A     -0.580976    18A     -0.541838
      19A     -0.526593    20A     -0.503421    21A     -0.479959
      22A     -0.479749    23A     -0.472880    24A     -0.408917

  @DF-RHF Final Energy:  -270.01863492195656

   => Energetics <=

    Nuclear Repulsion Energy =            231.4490996875876476
    One-Electron Energy =                -824.2343451062051827
    Two-Electron Energy =                 322.7666104966609169
    DFT Exchange-Correlation Energy =       0.0000000000000000
    Empirical Dispersion Energy =           0.0000000000000000
    PCM Polarization Energy =               0.0000000000000000
    EFP Energy =                            0.0000000000000000
    Total Energy =                       -270.0186349219565614

  Mulliken Charges: (a.u.)
   Center  Symbol    Alpha    Beta     Spin     Total
       1     H     0.42759  0.42759  0.00000  0.14481
       2     C     2.84120  2.84120  0.00000  0.31760
       3     C     3.20556  3.20556  0.00000 -0.41113
       4     O     4.23667  4.23667  0.00000 -0.47333
       5     C     3.15425  3.15425  0.00000 -0.30851
       6     H     0.39985  0.39985  0.00000  0.20029
       7     H     0.41597  0.41597  0.00000  0.16806
       8     C     3.15276  3.15276  0.00000 -0.30553
       9     H     0.40572  0.40572  0.00000  0.18857
      10     H     0.41809  0.41809  0.00000  0.16382
      11     C     3.23996  3.23996  0.00000 -0.47992
      12     H     0.42173  0.42173  0.00000  0.15653
      13     H     0.42320  0.42320  0.00000  0.15361
      14     H     0.41899  0.41899  0.00000  0.16203
      15     H     0.41801  0.41801  0.00000  0.16397
      16     H     0.42043  0.42043  0.00000  0.15913

   Total alpha = 24.00000, Total beta = 24.00000, Total charge =  0.00000
