  ==> Input File <==

--------------------------------------------------------------------------
set {
	reference rhf
	basis cc-pvtz
}

set_num_threads( 4 )
memory 2 gb

molecule MOL {
0 1

H	 1.386215	 -1.487336	 -0.447184
O	 1.583947	 -0.677544	 -0.001533
C	 0.489979	 0.078084	 0.002623
C	 -0.763662	 -0.754014	 0.000816
O	 0.539051	 1.259395	 -0.000088
C	 -2.038001	 0.074705	 -0.000833
H	 -0.712945	 -1.405886	 -0.864342
H	 -0.715137	 -1.405770	 0.866182
H	 -2.087267	 0.710831	 -0.874232
H	 -2.903419	 -0.576199	 -0.001922
H	 -2.089467	 0.710909	 0.872389

	symmetry c1
}
set optking {
	frozen_dihedral = ("
		1 2 3 5
	")
}

ee = optimize('scf')
oeprop('DIPOLE', 'QUADRUPOLE', 'MULLIKEN_CHARGES')
f=open( 'psi4out.xyz', 'w' )
f.write( "11  " )
f.write( str(ee) + "\n" )
f.write( MOL.save_string_xyz() )
f.close()
--------------------------------------------------------------------------

    Molecular point group: c1
  Charge       = 0
  Multiplicity = 1
  Basis Set: CC-PVTZ
  Basis Set:
  @DF-RHF Final Energy:  -266.93965713978304
    Total Energy =                       -266.9396571397830940
    Molecular point group: c1
  Basis Set: CC-PVTZ
  Basis Set:
  Basis Set: CC-PVTZ
  Basis Set:
  @DF-RHF Final Energy:  -266.94093591757877
    Total Energy =                       -266.9409359175787699
  Basis Set: CC-PVTZ
  Basis Set:
  Basis Set: CC-PVTZ
  Basis Set:
  @DF-RHF Final Energy:  -266.94103767712375
    Total Energy =                       -266.9410376771234610
  Basis Set: CC-PVTZ
  Basis Set:
  Basis Set: CC-PVTZ
  Basis Set:
  @DF-RHF Final Energy:  -266.94095536289865
    Total Energy =                       -266.9409553628987624
  Basis Set: CC-PVTZ
  Basis Set:
  Basis Set: CC-PVTZ
  Basis Set:
  @DF-RHF Final Energy:  -266.94108291970497
    Total Energy =                       -266.9410829197049679
  Basis Set: CC-PVTZ
  Basis Set:
  Charge       = 0
  Multiplicity = 1
  Basis Set: CC-PVTZ
  Basis Set:

    Orbital Energies (a.u.)
    -----------------------

    Doubly Occupied:

       1A    -20.601306     2A    -20.540806     3A    -11.373942
       4A    -11.252781     5A    -11.223913     6A     -1.470379
       7A     -1.374627     8A     -1.069208     9A     -0.909415
      10A     -0.828883    11A     -0.719552    12A     -0.670935
      13A     -0.661882    14A     -0.616301    15A     -0.590114
      16A     -0.534655    17A     -0.527601    18A     -0.512719
      19A     -0.485264    20A     -0.446545

  @DF-RHF Final Energy:  -266.94108354308963

   => Energetics <=

    Nuclear Repulsion Energy =            179.9349835311243737
    One-Electron Energy =                -720.9304820243987706
    Two-Electron Energy =                 274.0544149501849347
    DFT Exchange-Correlation Energy =       0.0000000000000000
    Empirical Dispersion Energy =           0.0000000000000000
    PCM Polarization Energy =               0.0000000000000000
    EFP Energy =                            0.0000000000000000
    Total Energy =                       -266.9410835430895190
    Molecular point group: c1
  Basis Set: CC-PVTZ
  Basis Set:

  -Total Gradient:
     Atom            X                  Y                   Z
    ------   -----------------  -----------------  -----------------
       1        0.001584357814     0.002614123110    -0.005260632903
       2       -0.002121609608    -0.003211454466     0.004333128535
       3        0.000593545713     0.000499116452     0.006154618976
       4       -0.000000639304     0.000012209294     0.000058181441
       5       -0.000045390928     0.000095735555    -0.005251166763
       6        0.000004112667     0.000003188314    -0.000014088546
       7        0.000007694724     0.000009370287    -0.000016645625
       8       -0.000013126511    -0.000012106028    -0.000017800035
       9        0.000005596929    -0.000006047961     0.000012267392
      10       -0.000013622245    -0.000002470890     0.000004301154
      11       -0.000000919255    -0.000001663664    -0.000002163625

  **** Optimization is complete! (in 6 steps) ****
    Final optimized geometry and variables:
    Molecular point group: c1

    Geometry (in Angstrom), charge = 0, multiplicity = 1:

    H            1.521758210764    -1.459721122449    -0.448874213267
    O            1.632154173234    -0.635860224680    -0.006907728818
    C            0.499879269368     0.081648426808     0.007265725246
    C           -0.770701363185    -0.737785334927     0.009752735791
    O            0.540160749788     1.256068470356     0.015935336752
    C           -2.035322633444     0.105667445918     0.005480763364
    H           -0.745505398620    -1.394554070227    -0.856660154401
    H           -0.734744678036    -1.385881409483     0.879583885887
    H           -2.075383341011     0.739089676317    -0.870077903279
    H           -2.909739593047    -0.533288743360     0.008710211355
    H           -2.073729251202     0.745546318328     0.876149074158

  Mulliken Charges: (a.u.)
   Center  Symbol    Alpha    Beta     Spin     Total
       1     H     0.38796  0.38796  0.00000  0.22409
       2     O     4.15108  4.15108  0.00000 -0.30216
       3     C     2.80619  2.80619  0.00000  0.38761
       4     C     3.11245  3.11245  0.00000 -0.22491
       5     O     4.17105  4.17105  0.00000 -0.34210
       6     C     3.14021  3.14021  0.00000 -0.28043
       7     H     0.45229  0.45229  0.00000  0.09543
       8     H     0.43762  0.43762  0.00000  0.12476
       9     H     0.44632  0.44632  0.00000  0.10737
      10     H     0.45038  0.45038  0.00000  0.09923
      11     H     0.44445  0.44445  0.00000  0.11111

   Total alpha = 20.00000, Total beta = 20.00000, Total charge =  0.00000
