  ==> Input File <==

--------------------------------------------------------------------------
set {
	reference rhf
	basis 6-31G*
}

set_num_threads( 1 )
memory 2 gb

molecule MOL {
0 1

O	 1.133136	 1.201442	 0.497105
C	 1.122059	 0.121804	 -0.000188
C	 -0.054870	 -0.508965	 -0.703652
O	 2.172624	 -0.688929	 0.000216
C	 -1.292683	 0.382282	 -0.732623
H	 0.267889	 -0.767212	 -1.708584
H	 -0.261365	 -1.453571	 -0.207835
C	 -2.469596	 -0.280438	 -1.450290
H	 -1.046832	 1.321384	 -1.218574
H	 -1.576574	 0.634452	 0.284391
C	 -3.714434	 0.605182	 -1.482818
H	 -2.179526	 -0.531746	 -2.468514
H	 -2.710070	 -1.222128	 -0.960940
H	 -3.515605	 1.541223	 -1.996578
H	 -4.533481	 0.112295	 -1.997114
H	 -4.050291	 0.845389	 -0.478257
C	 3.452279	 -0.082609	 0.000533
H	 3.583069	 0.529321	 -0.880332
H	 4.163299	 -0.894027	 0.001117
H	 3.582335	 0.529955	 0.881077

	symmetry c1
}
set optking {
	frozen_dihedral = ("
		9 5 8 12,
		1 2 3 6,
		9 5 3 6
	")
}

ee = energy('scf')
oeprop('DIPOLE', 'QUADRUPOLE', 'MULLIKEN_CHARGES')
f=open( 'psi4out.xyz', 'w' )
f.write( "20  " )
f.write( str(ee) + "\n" )
f.write( MOL.save_string_xyz() )
f.close()
--------------------------------------------------------------------------

    Molecular point group: c1

    Geometry (in Angstrom), charge = 0, multiplicity = 1:

       Center              X                  Y                   Z               Mass
    ------------   -----------------  -----------------  -----------------  -----------------
           O          1.055205285659     1.100695250379     0.973555166267    15.994914619560
           C          1.044128285659     0.021057250379     0.476262166267    12.000000000000
           C         -0.132800714341    -0.609711749621    -0.227201833733    12.000000000000
           O          2.094693285659    -0.789675749621     0.476666166267    15.994914619560
           C         -1.370613714341     0.281535250379    -0.256172833733    12.000000000000
           H          0.189958285659    -0.867958749621    -1.232133833733     1.007825032070
           H         -0.339295714341    -1.554317749621     0.268615166267     1.007825032070
           C         -2.547526714341    -0.381184749621    -0.973839833733    12.000000000000
           H         -1.124762714341     1.220637250379    -0.742123833733     1.007825032070
           H         -1.654504714341     0.533705250379     0.760841166267     1.007825032070
           C         -3.792364714341     0.504435250379    -1.006367833733    12.000000000000
           H         -2.257456714341    -0.632492749621    -1.992063833733     1.007825032070
           H         -2.788000714341    -1.322874749621    -0.484489833733     1.007825032070
           H         -3.593535714341     1.440476250379    -1.520127833733     1.007825032070
           H         -4.611411714341     0.011548250379    -1.520663833733     1.007825032070
           H         -4.128221714341     0.744642250379    -0.001806833733     1.007825032070
           C          3.374348285659    -0.183355749621     0.476983166267    12.000000000000
           H          3.505138285659     0.428574250379    -0.403881833733     1.007825032070
           H          4.085368285659    -0.994773749621     0.477567166267     1.007825032070
           H          3.504404285659     0.429208250379     1.357527166267     1.007825032070

  Charge       = 0
  Multiplicity = 1
  Basis Set: 6-31G*
  Basis Set:

    Orbital Energies (a.u.)
    -----------------------

    Doubly Occupied:

       1A    -20.599119     2A    -20.547330     3A    -11.372846
       4A    -11.283299     5A    -11.235860     6A    -11.220440
       7A    -11.219320     8A    -11.210761     9A     -1.468056
      10A     -1.363366    11A     -1.088686    12A     -1.023661
      13A     -0.970050    14A     -0.887284    15A     -0.804352
      16A     -0.767763    17A     -0.696767    18A     -0.682433
      19A     -0.672241    20A     -0.645598    21A     -0.600565
      22A     -0.592079    23A     -0.580828    24A     -0.543551
      25A     -0.536034    26A     -0.519512    27A     -0.501032
      28A     -0.479190    29A     -0.475002    30A     -0.470336
      31A     -0.454149    32A     -0.434911

  @DF-RHF Final Energy:  -383.93633492310505

   => Energetics <=

    Nuclear Repulsion Energy =            381.1620019842092688
    One-Electron Energy =               -1278.3039986639805647
    Two-Electron Energy =                 513.2056617566671548
    DFT Exchange-Correlation Energy =       0.0000000000000000
    Empirical Dispersion Energy =           0.0000000000000000
    PCM Polarization Energy =               0.0000000000000000
    EFP Energy =                            0.0000000000000000
    Total Energy =                       -383.9363349231041411

  Mulliken Charges: (a.u.)
   Center  Symbol    Alpha    Beta     Spin     Total
       1     O     4.28090  4.28090  0.00000 -0.56181
       2     C     2.60488  2.60488  0.00000  0.79025
       3     C     3.20937  3.20937  0.00000 -0.41873
       4     O     4.30855  4.30855  0.00000 -0.61709
       5     C     3.15151  3.15151  0.00000 -0.30302
       6     H     0.40264  0.40264  0.00000  0.19473
       7     H     0.39968  0.39968  0.00000  0.20063
       8     C     3.15415  3.15415  0.00000 -0.30830
       9     H     0.41259  0.41259  0.00000  0.17483
      10     H     0.41146  0.41146  0.00000  0.17708
      11     C     3.23929  3.23929  0.00000 -0.47858
      12     H     0.42334  0.42334  0.00000  0.15332
      13     H     0.42272  0.42272  0.00000  0.15457
      14     H     0.42014  0.42014  0.00000  0.15973
      15     H     0.41876  0.41876  0.00000  0.16249
      16     H     0.41979  0.41979  0.00000  0.16042
      17     C     3.09449  3.09449  0.00000 -0.18897
      18     H     0.41529  0.41529  0.00000  0.16942
      19     H     0.40728  0.40728  0.00000  0.18544
      20     H     0.40319  0.40319  0.00000  0.19361

   Total alpha = 32.00000, Total beta = 32.00000, Total charge =  0.00000
