                              Psi4 1.0.54 Driver

  ==> Input File <==

--------------------------------------------------------------------------
set {
	reference rhf
	basis cc-pvtz
}

set_num_threads( 4 )
memory 2 gb

molecule MOL {
0 1

H	 -3.144994	 -1.202467	 -0.018751
O	 -2.321472	 -0.864941	 -0.318626
C	 -2.021813	 0.336996	 0.342658
C	 -0.669613	 0.837286	 -0.127252
H	 -2.780861	 1.084746	 0.127159
H	 -2.006390	 0.184138	 1.420053
C	 0.490865	 -0.082543	 0.241244
H	 -0.708709	 0.967192	 -1.204587
H	 -0.507562	 1.822272	 0.303070
C	 1.123648	 -0.760450	 -0.970628
H	 0.140896	 -0.836411	 0.937133
H	 1.250388	 0.493242	 0.766335
C	 2.288517	 -1.673938	 -0.604014
H	 0.365961	 -1.337115	 -1.494145
H	 1.467099	 -0.003220	 -1.670866
H	 1.968872	 -2.463297	 0.068039
H	 2.714515	 -2.141289	 -1.484590
H	 3.079276	 -1.120258	 -0.108449

	symmetry c1
}
set optking {
	frozen_dihedral = ("
		10 7 4 8
	")
}

ee,wfn = optimize('scf', return_wfn=True)
oeprop( wfn, 'DIPOLE', 'QUADRUPOLE', 'MULLIKEN_CHARGES')
f=open( 'psi4out.xyz', 'w' )
f.write( "18  " )
f.write( str(ee) + "\n" )
f.write( MOL.save_string_xyz() )
f.close()
--------------------------------------------------------------------------

    Molecular point group: c1
  Charge       = 0
  Multiplicity = 1
  Basis Set: CC-PVTZ
  Basis Set:
  @DF-RHF Final Energy:  -271.28206112980200
    Total Energy =                       -271.2820611298019458
    Molecular point group: c1
  Basis Set: CC-PVTZ
  Basis Set:
  Basis Set: CC-PVTZ
  Basis Set:
  @DF-RHF Final Energy:  -271.28232804781823
    Total Energy =                       -271.2823280478185097
  Basis Set: CC-PVTZ
  Basis Set:
  Basis Set: CC-PVTZ
  Basis Set:
  @DF-RHF Final Energy:  -271.28241374403615
    Total Energy =                       -271.2824137440364893
  Basis Set: CC-PVTZ
  Basis Set:
  Basis Set: CC-PVTZ
  Basis Set:
  @DF-RHF Final Energy:  -271.28241505507197
    Total Energy =                       -271.2824150550717377
  Basis Set: CC-PVTZ
  Basis Set:
  Charge       = 0
  Multiplicity = 1
  Basis Set: CC-PVTZ
  Basis Set:

    Orbital Energies (a.u.)
    -----------------------

    Doubly Occupied:

       1A    -20.547357     2A    -11.266287     3A    -11.210408
       4A    -11.205795     5A    -11.203849     6A    -11.199614
       7A     -1.365120     8A     -1.072848     9A     -1.008056
      10A     -0.912921    11A     -0.819584    12A     -0.781960
      13A     -0.708545    14A     -0.644862    15A     -0.620298
      16A     -0.581435    17A     -0.570468    18A     -0.558915
      19A     -0.523722    20A     -0.503705    21A     -0.487124
      22A     -0.465662    23A     -0.451066    24A     -0.448807
      25A     -0.432288

  @DF-RHF Final Energy:  -271.28241529475827

   => Energetics <=

    Nuclear Repulsion Energy =            252.9176275967265610
    One-Electron Energy =                -869.2186969899560154
    Two-Electron Energy =                 345.0186540984711883
    DFT Exchange-Correlation Energy =       0.0000000000000000
    Empirical Dispersion Energy =           0.0000000000000000
    PCM Polarization Energy =               0.0000000000000000
    EFP Energy =                            0.0000000000000000
    Total Energy =                       -271.2824152947582661
    Molecular point group: c1
  Basis Set: CC-PVTZ
  Basis Set:

  -Total Gradient:
     Atom            X                  Y                   Z
    ------   -----------------  -----------------  -----------------
       1        0.000001436174     0.000007625509     0.000001229903
       2       -0.000003817085     0.000003209232     0.000010817326
       3       -0.000012647883    -0.000004656196    -0.000022141407
       4        0.001140518854     0.001470712789     0.000105909925
       5       -0.000008307720     0.000010060867     0.000003062933
       6        0.000017472848     0.000000792299    -0.000008604397
       7       -0.000967415439    -0.001184643033     0.000091591845
       8       -0.000741318646    -0.000983766490    -0.000099202930
       9        0.000000017496    -0.000004709151     0.000007309729
      10        0.000564134152     0.000685887172    -0.000073014828
      11       -0.000004127440     0.000000182453    -0.000014259610
      12       -0.000001204549     0.000001593324    -0.000004634222
      13        0.000009330813    -0.000001597243    -0.000002175810
      14       -0.000000001695     0.000001436080     0.000002284933
      15       -0.000004441550     0.000002042704     0.000007353447
      16       -0.000000317713     0.000007358807    -0.000003470185
      17        0.000011422776    -0.000009077462    -0.000000438963
      18       -0.000000733393    -0.000002451660    -0.000001617689

  **** Optimization is complete! (in 5 steps) ****
    Final optimized geometry and variables:
    Molecular point group: c1

    Geometry (in Angstrom), charge = 0, multiplicity = 1:

    H           -2.867117761224    -0.860447008600     0.230577965277
    O           -2.057907133328    -0.494889516231    -0.075175265154
    C           -1.801240961126     0.724786510361     0.571852073469
    C           -0.450572337724     1.245312673065     0.119485498703
    H           -2.573659822207     1.450854827179     0.330419750032
    H           -1.802050893028     0.588252026169     1.651383261912
    C            0.725223476141     0.314942146067     0.475083657034
    H           -0.496623213860     1.391703110245    -0.954502789173
    H           -0.309440821306     2.224523557785     0.564552567895
    C            1.367557448351    -0.353301640568    -0.738388941760
    H            0.385497875709    -0.454111324803     1.160971875460
    H            1.487311238954     0.879010439146     1.004558305068
    C            2.516052208855    -1.284891101625    -0.367951000467
    H            0.607600881839    -0.907520286450    -1.278841566698
    H            1.731104744435     0.414596707528    -1.416324884007
    H            2.175598680561    -2.085738002796     0.280134899225
    H            2.954455749748    -1.738198101121    -1.249831712101
    H            3.303171559277    -0.750585502496     0.154610747305

  Mulliken Charges: (a.u.)
   Center  Symbol    Alpha    Beta     Spin     Total
       1     H     0.39633  0.39633  0.00000  0.20733
       2     O     4.19862  4.19862  0.00000 -0.39725
       3     C     2.97376  2.97376  0.00000  0.05248
       4     C     3.10086  3.10086  0.00000 -0.20173
       5     H     0.46455  0.46455  0.00000  0.07089
       6     H     0.47327  0.47327  0.00000  0.05347
       7     C     3.08861  3.08861  0.00000 -0.17722
       8     H     0.45217  0.45217  0.00000  0.09567
       9     H     0.44669  0.44669  0.00000  0.10662
      10     C     3.08098  3.08098  0.00000 -0.16196
      11     H     0.45536  0.45536  0.00000  0.08928
      12     H     0.45072  0.45072  0.00000  0.09855
      13     C     3.15145  3.15145  0.00000 -0.30290
      14     H     0.44754  0.44754  0.00000  0.10491
      15     H     0.45723  0.45723  0.00000  0.08554
      16     H     0.45499  0.45499  0.00000  0.09002
      17     H     0.44950  0.44950  0.00000  0.10101
      18     H     0.45736  0.45736  0.00000  0.08528

   Total alpha = 25.00000, Total beta = 25.00000, Total charge =  0.00000

*** Psi4 exiting successfully. Buy a developer a beer!
