  ==> Input File <==

--------------------------------------------------------------------------
set {
	reference rhf
	basis 6-31G*
}

set_num_threads( 4 )
memory 2 gb

molecule MOL {
0 1

H	 3.463771	 0.168298	 -0.756243
C	 2.752674	 -0.045734	 0.033351
C	 1.322923	 0.120767	 -0.479465
H	 2.934561	 -1.059086	 0.377456
H	 2.958358	 0.631174	 0.856809
C	 0.306652	 -0.176050	 0.621399
H	 1.144658	 -0.551717	 -1.312180
H	 1.166477	 1.131798	 -0.836680
N	 -1.068537	 -0.011044	 0.085269
H	 0.372515	 -1.192590	 0.973735
H	 0.391664	 0.520566	 1.441230
O	 -1.207322	 -0.054049	 -1.098058
O	 -1.938282	 0.186015	 0.878197

	symmetry c1
}
set optking {
	frozen_dihedral = ("
		12 9 6 3
	")
}

ee = optimize('scf')
oeprop('DIPOLE', 'QUADRUPOLE', 'MULLIKEN_CHARGES')
f=open( 'psi4out.xyz', 'w' )
f.write( "13  " )
f.write( str(ee) + "\n" )
f.write( MOL.save_string_xyz() )
f.close()
--------------------------------------------------------------------------

    Molecular point group: c1
  Charge       = 0
  Multiplicity = 1
  Basis Set: 6-31G*
  Basis Set:
  @DF-RHF Final Energy:  -321.73336404827836
    Total Energy =                       -321.7333640482781902
    Molecular point group: c1
  Basis Set: 6-31G*
  Basis Set:
  Basis Set: 6-31G*
  Basis Set:
  @DF-RHF Final Energy:  -321.73081067300018
    Total Energy =                       -321.7308106730003487
  Basis Set: 6-31G*
  Basis Set:
  Basis Set: 6-31G*
  Basis Set:
  @DF-RHF Final Energy:  -321.73135719614822
    Total Energy =                       -321.7313571961483945
  Basis Set: 6-31G*
  Basis Set:
  Basis Set: 6-31G*
  Basis Set:
  @DF-RHF Final Energy:  -321.73458193132387
    Total Energy =                       -321.7345819313236461
  Basis Set: 6-31G*
  Basis Set:
  Basis Set: 6-31G*
  Basis Set:
  @DF-RHF Final Energy:  -321.73488734787611
    Total Energy =                       -321.7348873478757696
  Basis Set: 6-31G*
  Basis Set:
  Basis Set: 6-31G*
  Basis Set:
  @DF-RHF Final Energy:  -321.73493825884350
    Total Energy =                       -321.7349382588433286
  Basis Set: 6-31G*
  Basis Set:
  Basis Set: 6-31G*
  Basis Set:
  @DF-RHF Final Energy:  -321.73505889560829
    Total Energy =                       -321.7350588956082333
  Basis Set: 6-31G*
  Basis Set:
  Charge       = 0
  Multiplicity = 1
  Basis Set: 6-31G*
  Basis Set:

    Orbital Energies (a.u.)
    -----------------------

    Doubly Occupied:

       1A    -20.603489     2A    -20.599195     3A    -15.848774
       4A    -11.301050     5A    -11.250229     6A    -11.237663
       7A     -1.631995     8A     -1.417257     9A     -1.133055
      10A     -1.027417    11A     -0.884753    12A     -0.826136
      13A     -0.760367    14A     -0.747964    15A     -0.725689
      16A     -0.657674    17A     -0.607291    18A     -0.577817
      19A     -0.552868    20A     -0.522925    21A     -0.510128
      22A     -0.485053    23A     -0.473095    24A     -0.449022

  @DF-RHF Final Energy:  -321.73505945302605

   => Energetics <=

    Nuclear Repulsion Energy =            247.0443814686056498
    One-Electron Energy =                -927.8970702766920340
    Two-Electron Energy =                 359.1176293550603305
    DFT Exchange-Correlation Energy =       0.0000000000000000
    Empirical Dispersion Energy =           0.0000000000000000
    PCM Polarization Energy =               0.0000000000000000
    EFP Energy =                            0.0000000000000000
    Total Energy =                       -321.7350594530261105
    Molecular point group: c1
  Basis Set: 6-31G*
  Basis Set:

  -Total Gradient:
     Atom            X                  Y                   Z
    ------   -----------------  -----------------  -----------------
       1       -0.000013165146    -0.000000640119    -0.000003143356
       2       -0.000004030541    -0.000006441720     0.000023088925
       3        0.000008905952    -0.000131908145    -0.000060242098
       4        0.000020398033    -0.000005849535    -0.000003648524
       5       -0.000007042953    -0.000009142475     0.000007332476
       6        0.000003960164     0.000357731391     0.000050278481
       7       -0.000012151006     0.000000450675    -0.000034051968
       8        0.000006419913    -0.000024954963     0.000008187212
       9        0.000022885050    -0.000403299804     0.000014150348
      10       -0.000007435717     0.000024005374     0.000003738381
      11        0.000002465968    -0.000016921919     0.000018112743
      12       -0.000010277559     0.000211746251     0.000021460483
      13       -0.000010932154     0.000005224989    -0.000045263104

  **** Optimization is complete! (in 8 steps) ****
    Final optimized geometry and variables:
    Molecular point group: c1

    Geometry (in Angstrom), charge = 0, multiplicity = 1:

    H            3.511350507195     0.150532657489    -0.734824200557
    C            2.775527729259    -0.050127325807     0.035330261349
    C            1.361906265338     0.113139530536    -0.525476582447
    H            2.945090667177    -1.059534266624     0.398231439231
    H            2.961337126835     0.635443439223     0.856557208159
    C            0.326848331878    -0.164663193726     0.551344392870
    H            1.207825828604    -0.560110848720    -1.358200693544
    H            1.226056267092     1.119930577871    -0.904438671599
    N           -1.078983678738     0.001992514427     0.083002989254
    H            0.371881920949    -1.186147721777     0.907606107700
    H            0.415490274173     0.491995555857     1.403025345543
    O           -1.296406240360    -0.034923217399    -1.087776996628
    O           -1.904625728836     0.135142127151     0.933410766225

  Mulliken Charges: (a.u.)
   Center  Symbol    Alpha    Beta     Spin     Total
       1     H     0.40756  0.40756  0.00000  0.18487
       2     C     3.25004  3.25004  0.00000 -0.50007
       3     C     3.16601  3.16601  0.00000 -0.33203
       4     H     0.41641  0.41641  0.00000  0.16718
       5     H     0.41622  0.41622  0.00000  0.16757
       6     C     3.08867  3.08867  0.00000 -0.17734
       7     H     0.39768  0.39768  0.00000  0.20463
       8     H     0.40464  0.40464  0.00000  0.19071
       9     N     3.22418  3.22418  0.00000  0.55165
      10     H     0.38538  0.38538  0.00000  0.22924
      11     H     0.38595  0.38595  0.00000  0.22810
      12     O     4.22819  4.22819  0.00000 -0.45637
      13     O     4.22906  4.22906  0.00000 -0.45812

   Total alpha = 24.00000, Total beta = 24.00000, Total charge = -0.00000
