                              Psi4 1.0.54 Driver

  ==> Input File <==

--------------------------------------------------------------------------
set {
	reference rhf
	basis cc-pvtz
}

set_num_threads( 4 )
memory 2 gb

molecule MOL {
0 1

H	 1.128311	 0.207724	 1.465118
C	 1.134565	 0.093781	 0.372499
C	 0.062554	 0.862911	 -0.350953
O	 1.948932	 -0.587720	 -0.146651
C	 0.063769	 0.598542	 -1.859833
H	 0.186272	 1.915634	 -0.131950
H	 -0.888760	 0.542221	 0.067657
C	 1.303523	 1.135617	 -2.569207
H	 -0.822605	 1.052158	 -2.287791
H	 -0.026881	 -0.469359	 -2.038200
H	 1.393029	 2.207890	 -2.435878
H	 1.256045	 0.934406	 -3.632645
H	 2.212018	 0.682366	 -2.188110

	symmetry c1
}
set optking {
	frozen_dihedral = ("
		6 3 2 4
	")
}

ee,wfn = optimize('scf', return_wfn=True)
oeprop( wfn, 'DIPOLE', 'QUADRUPOLE', 'MULLIKEN_CHARGES')
f=open( 'psi4out.xyz', 'w' )
f.write( "13  " )
f.write( str(ee) + "\n" )
f.write( MOL.save_string_xyz() )
f.close()
--------------------------------------------------------------------------

    Molecular point group: c1
  Charge       = 0
  Multiplicity = 1
  Basis Set: CC-PVTZ
  Basis Set:
  @DF-RHF Final Energy:  -231.06990807094274
    Total Energy =                       -231.0699080709428017
    Molecular point group: c1
  Basis Set: CC-PVTZ
  Basis Set:
  Basis Set: CC-PVTZ
  Basis Set:
  @DF-RHF Final Energy:  -231.07119308586073
    Total Energy =                       -231.0711930858607275
  Basis Set: CC-PVTZ
  Basis Set:
  Basis Set: CC-PVTZ
  Basis Set:
  @DF-RHF Final Energy:  -231.07074745952806
    Total Energy =                       -231.0707474595278654
  Basis Set: CC-PVTZ
  Basis Set:
  Basis Set: CC-PVTZ
  Basis Set:
  @DF-RHF Final Energy:  -231.07127254210289
    Total Energy =                       -231.0712725421028040
  Basis Set: CC-PVTZ
  Basis Set:
  Basis Set: CC-PVTZ
  Basis Set:
  @DF-RHF Final Energy:  -231.07142533450488
    Total Energy =                       -231.0714253345048235
  Basis Set: CC-PVTZ
  Basis Set:
  Basis Set: CC-PVTZ
  Basis Set:
  @DF-RHF Final Energy:  -231.07142770609056
    Total Energy =                       -231.0714277060904180
  Basis Set: CC-PVTZ
  Basis Set:
  Charge       = 0
  Multiplicity = 1
  Basis Set: CC-PVTZ
  Basis Set:

    Orbital Energies (a.u.)
    -----------------------

    Doubly Occupied:

       1A    -20.553728     2A    -11.323957     3A    -11.237328
       4A    -11.223958     5A    -11.207457     6A     -1.409430
       7A     -1.078954     8A     -0.973934     9A     -0.850170
      10A     -0.766911    11A     -0.688454    12A     -0.644721
      13A     -0.622375    14A     -0.584330    15A     -0.567856
      16A     -0.524060    17A     -0.496858    18A     -0.484257
      19A     -0.483452    20A     -0.413734

  @DF-RHF Final Energy:  -231.07142798597945

   => Energetics <=

    Nuclear Repulsion Energy =            176.5216546419004828
    One-Electron Energy =                -662.9143165700337477
    Two-Electron Energy =                 255.3212339421537536
    DFT Exchange-Correlation Energy =       0.0000000000000000
    Empirical Dispersion Energy =           0.0000000000000000
    PCM Polarization Energy =               0.0000000000000000
    EFP Energy =                            0.0000000000000000
    Total Energy =                       -231.0714279859795397
    Molecular point group: c1
  Basis Set: CC-PVTZ
  Basis Set:

  -Total Gradient:
     Atom            X                  Y                   Z
    ------   -----------------  -----------------  -----------------
       1       -0.000001907737    -0.000000215032    -0.000004797405
       2       -0.001132275844    -0.001446104147     0.000013904306
       3       -0.000531798832     0.000374390947     0.001097766029
       4        0.000904132294     0.000994533175    -0.000134926597
       5       -0.000019915769     0.000041040899     0.000012381643
       6        0.000779128766     0.000037698421    -0.000975254080
       7       -0.000010188102     0.000003783783     0.000011431779
       8       -0.000002402489     0.000001635932    -0.000026125402
       9        0.000003854863    -0.000000621983    -0.000007069276
      10       -0.000001465253    -0.000001722782     0.000003475116
      11       -0.000001727374     0.000002522494     0.000000578235
      12        0.000005547520    -0.000005176748    -0.000000630503
      13        0.000009017959    -0.000001764958     0.000009266154

  **** Optimization is complete! (in 7 steps) ****
    Final optimized geometry and variables:
    Molecular point group: c1

    Geometry (in Angstrom), charge = 0, multiplicity = 1:

    H            0.162860200688    -0.175417931938     2.409575255569
    C            0.202641622015    -0.338356792602     1.325212495480
    C           -0.808903524626     0.453215288736     0.539535094348
    O            0.999355440082    -1.082782652683     0.868195692145
    C           -0.830974087746     0.186249772221    -0.962939920823
    H           -0.610411355229     1.504488260385     0.742117000326
    H           -1.777737297870     0.246353251369     0.988311481406
    C            0.349008099510     0.794930295018    -1.715601373220
    H           -1.755049170368     0.589100130585    -1.363934783509
    H           -0.857383138638    -0.883795159091    -1.131552396048
    H            0.374127851184     1.873188265711    -1.591542461471
    H            0.271320139210     0.589043498924    -2.776696876431
    H            1.289119787674     0.391242733353    -1.365470668318

  Mulliken Charges: (a.u.)
   Center  Symbol    Alpha    Beta     Spin     Total
       1     H     0.45000  0.45000  0.00000  0.10000
       2     C     2.91929  2.91929  0.00000  0.16142
       3     C     3.09746  3.09746  0.00000 -0.19492
       4     O     4.16716  4.16716  0.00000 -0.33432
       5     C     3.08390  3.08390  0.00000 -0.16781
       6     H     0.44719  0.44719  0.00000  0.10562
       7     H     0.43967  0.43967  0.00000  0.12066
       8     C     3.15105  3.15105  0.00000 -0.30211
       9     H     0.44755  0.44755  0.00000  0.10490
      10     H     0.44735  0.44735  0.00000  0.10530
      11     H     0.45906  0.45906  0.00000  0.08188
      12     H     0.44828  0.44828  0.00000  0.10344
      13     H     0.44203  0.44203  0.00000  0.11594

   Total alpha = 20.00000, Total beta = 20.00000, Total charge =  0.00000

*** Psi4 exiting successfully. Buy a developer a beer!
