  ==> Input File <==

--------------------------------------------------------------------------
set {
	reference rhf
	basis cc-pvtz
}

set_num_threads( 4 )
memory 2 gb

molecule MOL {
0 1

H	 -0.471500	 -1.595450	 0.295097
N	 -0.625934	 -0.663929	 -0.000707
C	 -1.978635	 -0.158664	 0.001017
C	 0.444773	 0.066839	 -0.383000
H	 -2.519057	 -0.493535	 -0.876362
H	 -1.938890	 0.917202	 -0.004137
H	 -2.514266	 -0.485137	 0.884506
C	 1.767494	 -0.662845	 -0.300600
O	 0.366717	 1.201103	 -0.752360
H	 1.756539	 -1.538817	 -0.938683
H	 2.554040	 0.002089	 -0.617264
H	 1.957649	 -0.989344	 0.715205

	symmetry c1
}
set optking {
	frozen_dihedral = ("
		4 2 3 5
	")
}

ee = optimize('scf')
oeprop('DIPOLE', 'QUADRUPOLE', 'MULLIKEN_CHARGES')
f=open( 'psi4out.xyz', 'w' )
f.write( "12  " )
f.write( str(ee) + "\n" )
f.write( MOL.save_string_xyz() )
f.close()
--------------------------------------------------------------------------

    Molecular point group: c1
  Charge       = 0
  Multiplicity = 1
  Basis Set: CC-PVTZ
  Basis Set:
  @DF-RHF Final Energy:  -247.10093055789548
    Total Energy =                       -247.1009305578956514
    Molecular point group: c1
  Basis Set: CC-PVTZ
  Basis Set:
  Basis Set: CC-PVTZ
  Basis Set:
  @DF-RHF Final Energy:  -247.10098560088994
    Total Energy =                       -247.1009856008899988
  Basis Set: CC-PVTZ
  Basis Set:
  Basis Set: CC-PVTZ
  Basis Set:
  @DF-RHF Final Energy:  -247.10087162234242
    Total Energy =                       -247.1008716223424813
  Basis Set: CC-PVTZ
  Basis Set:
  Basis Set: CC-PVTZ
  Basis Set:
  @DF-RHF Final Energy:  -247.10104785986411
    Total Energy =                       -247.1010478598641953
  Basis Set: CC-PVTZ
  Basis Set:
  @DF-RHF Final Energy:  -247.10105625129634
    Total Energy =                       -247.1010562512961428
  @DF-RHF Final Energy:  -247.10106581435656
    Total Energy =                       -247.1010658143566729
  @DF-RHF Final Energy:  -247.10106744997492
    Total Energy =                       -247.1010674499749484
  @DF-RHF Final Energy:  -247.10106882523968
    Total Energy =                       -247.1010688252394516
  @DF-RHF Final Energy:  -247.10107056465051
    Total Energy =                       -247.1010705646504562
  @DF-RHF Final Energy:  -247.10107260529583
    Total Energy =                       -247.1010726052959967
  @DF-RHF Final Energy:  -247.10107992768948
    Total Energy =                       -247.1010799276896250
  @DF-RHF Final Energy:  -247.10108288643255
    Total Energy =                       -247.1010828864325504
  @DF-RHF Final Energy:  -247.10109188260424
    Total Energy =                       -247.1010918826041802
  @DF-RHF Final Energy:  -247.10111112858579
    Total Energy =                       -247.1011111285857851
  @DF-RHF Final Energy:  -247.10112422474180
    Total Energy =                       -247.1011242247417385
  @DF-RHF Final Energy:  -247.10114585026480
    Total Energy =                       -247.1011458502648566
  @DF-RHF Final Energy:  -247.10118806504366
    Total Energy =                       -247.1011880650436296
  @DF-RHF Final Energy:  -247.10122167654626
    Total Energy =                       -247.1012216765461176
  Basis Set: CC-PVTZ
  Basis Set:
  @DF-RHF Final Energy:  -247.10122864920248
    Total Energy =                       -247.1012286492025396
  Basis Set: CC-PVTZ
  Basis Set:
  Basis Set: CC-PVTZ
  Basis Set:
  @DF-RHF Final Energy:  -247.10122984339364
    Total Energy =                       -247.1012298433937531
  Basis Set: CC-PVTZ
  Basis Set:
  Basis Set: CC-PVTZ
  Basis Set:
  @DF-RHF Final Energy:  -247.10123086739324
    Total Energy =                       -247.1012308673933262
  Basis Set: CC-PVTZ
  Basis Set:
  Charge       = 0
  Multiplicity = 1
  Basis Set: CC-PVTZ
  Basis Set:

    Orbital Energies (a.u.)
    -----------------------

    Doubly Occupied:

       1A    -20.504511     2A    -15.576757     3A    -11.336628
       4A    -11.253022     5A    -11.228371     6A     -1.387531
       7A     -1.231847     8A     -1.016284     9A     -0.933967
      10A     -0.789376    11A     -0.691035    12A     -0.652276
      13A     -0.635220    14A     -0.587029    15A     -0.583104
      16A     -0.554565    17A     -0.546657    18A     -0.508528
      19A     -0.416777    20A     -0.390088

  @DF-RHF Final Energy:  -247.10123181616052

   => Energetics <=

    Nuclear Repulsion Energy =            181.7051113581623554
    One-Electron Energy =                -695.9655329597026139
    Two-Electron Energy =                 267.1591897853797946
    DFT Exchange-Correlation Energy =       0.0000000000000000
    Empirical Dispersion Energy =           0.0000000000000000
    PCM Polarization Energy =               0.0000000000000000
    EFP Energy =                            0.0000000000000000
    Total Energy =                       -247.1012318161604071
    Molecular point group: c1
  Basis Set: CC-PVTZ
  Basis Set:

  -Total Gradient:
     Atom            X                  Y                   Z
    ------   -----------------  -----------------  -----------------
       1        0.000001228545    -0.000001937716    -0.000002334394
       2       -0.000056898108    -0.000221253980    -0.000257329470
       3        0.000096965149     0.000272680747    -0.000119576976
       4        0.000018020772     0.000090717484     0.000202630263
       5       -0.000071500968    -0.000169941581     0.000161576954
       6       -0.000000751930     0.000000833956    -0.000001055197
       7        0.000006047711     0.000000638600     0.000000399200
       8       -0.000002023595     0.000005129480     0.000006065637
       9        0.000008628293     0.000024775695     0.000018591304
      10       -0.000011356888    -0.000017633112     0.000004251416
      11        0.000003167773     0.000000517971    -0.000024811585
      12        0.000008473244     0.000015472456     0.000011592846

  **** Optimization is complete! (in 22 steps) ****
    Final optimized geometry and variables:
    Molecular point group: c1

    Geometry (in Angstrom), charge = 0, multiplicity = 1:

    H           -0.434750658488    -1.451867002426     0.818983084581
    N           -0.592832651304    -0.558234870888     0.425930659593
    C           -1.951554900137    -0.076553618266     0.338365718953
    C            0.457672473225     0.097286894384    -0.111826057620
    H           -2.507839595064    -0.581084850545    -0.443908610085
    H           -1.930583818601     0.978003343010     0.120909901355
    H           -2.459761291093    -0.233062412345     1.281040608422
    C            1.791189237203    -0.606393017692     0.005092571691
    O            0.356475337861     1.154989598371    -0.660842249756
    H            1.988213230732    -1.124910550052    -0.925836177132
    H            2.562075067323     0.135659306326     0.145933328808
    H            1.822168016655    -1.323599877444     0.814888838445

  Mulliken Charges: (a.u.)
   Center  Symbol    Alpha    Beta     Spin     Total
       1     H     0.41008  0.41008  0.00000  0.17983
       2     N     3.61718  3.61718  0.00000 -0.23436
       3     C     3.08333  3.08333  0.00000 -0.16667
       4     C     2.84054  2.84054  0.00000  0.31893
       5     H     0.45712  0.45712  0.00000  0.08576
       6     H     0.43221  0.43221  0.00000  0.13559
       7     H     0.45531  0.45531  0.00000  0.08938
       8     C     3.14553  3.14553  0.00000 -0.29107
       9     O     4.21980  4.21980  0.00000 -0.43959
      10     H     0.44398  0.44398  0.00000  0.11204
      11     H     0.43658  0.43658  0.00000  0.12683
      12     H     0.45833  0.45833  0.00000  0.08334

   Total alpha = 20.00000, Total beta = 20.00000, Total charge = -0.00000
