  ==> Input File <==

--------------------------------------------------------------------------
set {
	reference rhf
	basis 6-31G*
}

set_num_threads( 1 )
memory 2 gb

molecule MOL {
0 1

O	 0.074228	 1.262779	 -0.000085
C	 0.028650	 0.075053	 -0.000277
C	 -1.233602	 -0.752807	 0.000328
O	 1.109162	 -0.694619	 -0.000298
C	 -2.501530	 0.091881	 0.000126
H	 -1.193807	 -1.406641	 -0.865785
H	 -1.193516	 -1.405779	 0.867015
H	 -2.545121	 0.729328	 -0.874513
H	 -3.377167	 -0.548497	 0.000561
H	 -2.544818	 0.730135	 0.874258
C	 1.071880	 -1.854579	 0.811300
H	 0.928358	 -1.587898	 1.848458
H	 2.026821	 -2.338558	 0.678207
H	 0.272413	 -2.511049	 0.499258

	symmetry c1
}
set optking {
	frozen_dihedral = ("
		4 2 3 6
	")
}

ee = energy('scf')
oeprop('DIPOLE', 'QUADRUPOLE', 'MULLIKEN_CHARGES')
f=open( 'psi4out.xyz', 'w' )
f.write( "14  " )
f.write( str(ee) + "\n" )
f.write( MOL.save_string_xyz() )
f.close()
--------------------------------------------------------------------------

    Molecular point group: c1

    Geometry (in Angstrom), charge = 0, multiplicity = 1:

       Center              X                  Y                   Z               Mass
    ------------   -----------------  -----------------  -----------------  -----------------
           O          0.305607410530     1.587607799105    -0.145256995647    15.994914619560
           C          0.260029410530     0.399881799105    -0.145448995647    12.000000000000
           C         -1.002222589470    -0.427978200895    -0.144843995647    12.000000000000
           O          1.340541410530    -0.369790200895    -0.145469995647    15.994914619560
           C         -2.270150589470     0.416709799105    -0.145045995647    12.000000000000
           H         -0.962427589470    -1.081812200895    -1.010956995647     1.007825032070
           H         -0.962136589470    -1.080950200895     0.721843004353     1.007825032070
           H         -2.313741589470     1.054156799105    -1.019684995647     1.007825032070
           H         -3.145787589470    -0.223668200895    -0.144610995647     1.007825032070
           H         -2.313438589470     1.054963799105     0.729086004353     1.007825032070
           C          1.303259410530    -1.529750200895     0.666128004353    12.000000000000
           H          1.159737410530    -1.263069200895     1.703286004353     1.007825032070
           H          2.258200410530    -2.013729200895     0.533035004353     1.007825032070
           H          0.503792410530    -2.186220200895     0.354086004353     1.007825032070

  Charge       = 0
  Multiplicity = 1
  Basis Set: 6-31G*
  Basis Set:

    Orbital Energies (a.u.)
    -----------------------

    Doubly Occupied:

       1A    -20.600373     2A    -20.550226     3A    -11.375255
       4A    -11.298135     5A    -11.243705     6A    -11.220027
       7A     -1.467334     8A     -1.370617     9A     -1.064179
      10A     -0.988130    11A     -0.904436    12A     -0.767743
      13A     -0.706244    14A     -0.687147    15A     -0.678611
      16A     -0.630439    17A     -0.609150    18A     -0.564486
      19A     -0.550446    20A     -0.524276    21A     -0.515690
      22A     -0.494345    23A     -0.456735    24A     -0.433537

  @DF-RHF Final Energy:  -305.84617639278201

   => Energetics <=

    Nuclear Repulsion Energy =            249.6701448701965944
    One-Electron Energy =                -911.6300420117734120
    Two-Electron Energy =                 356.1137207487944352
    DFT Exchange-Correlation Energy =       0.0000000000000000
    Empirical Dispersion Energy =           0.0000000000000000
    PCM Polarization Energy =               0.0000000000000000
    EFP Energy =                            0.0000000000000000
    Total Energy =                       -305.8461763927823540

  Mulliken Charges: (a.u.)
   Center  Symbol    Alpha    Beta     Spin     Total
       1     O     4.26521  4.26521  0.00000 -0.53041
       2     C     2.60094  2.60094  0.00000  0.79811
       3     C     3.23458  3.23458  0.00000 -0.46917
       4     O     4.30048  4.30048  0.00000 -0.60096
       5     C     3.23575  3.23575  0.00000 -0.47149
       6     H     0.39837  0.39837  0.00000  0.20326
       7     H     0.40316  0.40316  0.00000  0.19369
       8     H     0.40768  0.40768  0.00000  0.18463
       9     H     0.41913  0.41913  0.00000  0.16174
      10     H     0.40939  0.40939  0.00000  0.18122
      11     C     3.10383  3.10383  0.00000 -0.20766
      12     H     0.41112  0.41112  0.00000  0.17777
      13     H     0.39750  0.39750  0.00000  0.20500
      14     H     0.41287  0.41287  0.00000  0.17426

   Total alpha = 24.00000, Total beta = 24.00000, Total charge =  0.00000
