  ==> Input File <==

--------------------------------------------------------------------------
set {
	reference rhf
	basis 6-31G*
}

set_num_threads( 1 )
memory 2 gb

molecule MOL {
0 1

O	 1.424360	 0.795360	 -0.932396
C	 1.705091	 0.115954	 0.001797
C	 0.976265	 0.094952	 1.323251
O	 2.721346	 -0.737485	 -0.000216
C	 -0.205300	 1.058489	 1.379301
H	 0.658535	 -0.928580	 1.502542
H	 1.703751	 0.318468	 2.098831
C	 -0.925443	 1.015956	 2.727873
H	 -0.901085	 0.817829	 0.581708
H	 0.145267	 2.066255	 1.179751
C	 -2.114125	 1.975906	 2.801284
H	 -1.271409	 0.002097	 2.923817
H	 -0.221914	 1.255814	 3.523734
C	 -2.832524	 1.933847	 4.149388
H	 -2.819113	 1.735978	 2.008461
H	 -1.769989	 2.989226	 2.606627
H	 -3.219003	 0.940039	 4.357220
H	 -3.669520	 2.624824	 4.170344
H	 -2.161352	 2.202826	 4.960245
C	 4.024888	 -0.184556	 -0.001949
H	 4.179030	 0.422472	 -0.882452
H	 4.701782	 -1.024608	 -0.003642
H	 4.181981	 0.421185	 0.878906

	symmetry c1
}
set optking {
	frozen_dihedral = ("
		15 11 8 12,
		9 5 8 12,
		1 2 3 6,
		9 5 3 6
	")
}

ee = energy('scf')
oeprop('DIPOLE', 'QUADRUPOLE', 'MULLIKEN_CHARGES')
f=open( 'psi4out.xyz', 'w' )
f.write( "23  " )
f.write( str(ee) + "\n" )
f.write( MOL.save_string_xyz() )
f.close()
--------------------------------------------------------------------------

    Molecular point group: c1

    Geometry (in Angstrom), charge = 0, multiplicity = 1:

       Center              X                  Y                   Z               Mass
    ------------   -----------------  -----------------  -----------------  -----------------
           O          0.860254503197     0.126606349777    -2.191390464143    15.994914619560
           C          1.140985503197    -0.552799650223    -1.257197464143    12.000000000000
           C          0.412159503197    -0.573801650223     0.064256535857    12.000000000000
           O          2.157240503197    -1.406238650223    -1.259210464143    15.994914619560
           C         -0.769405496803     0.389735349777     0.120306535857    12.000000000000
           H          0.094429503197    -1.597333650223     0.243547535857     1.007825032070
           H          1.139645503197    -0.350285650223     0.839836535857     1.007825032070
           C         -1.489548496803     0.347202349777     1.468878535857    12.000000000000
           H         -1.465190496803     0.149075349777    -0.677286464143     1.007825032070
           H         -0.418838496803     1.397501349777    -0.079243464143     1.007825032070
           C         -2.678230496803     1.307152349777     1.542289535857    12.000000000000
           H         -1.835514496803    -0.666656650223     1.664822535857     1.007825032070
           H         -0.786019496803     0.587060349777     2.264739535857     1.007825032070
           C         -3.396629496803     1.265093349777     2.890393535857    12.000000000000
           H         -3.383218496803     1.067224349777     0.749466535857     1.007825032070
           H         -2.334094496803     2.320472349777     1.347632535857     1.007825032070
           H         -3.783108496803     0.271285349777     3.098225535857     1.007825032070
           H         -4.233625496803     1.956070349777     2.911349535857     1.007825032070
           H         -2.725457496803     1.534072349777     3.701250535857     1.007825032070
           C          3.460782503197    -0.853309650223    -1.260943464143    12.000000000000
           H          3.614924503197    -0.246281650223    -2.141446464143     1.007825032070
           H          4.137676503197    -1.693361650223    -1.262636464143     1.007825032070
           H          3.617875503197    -0.247568650223    -0.380088464143     1.007825032070

  Charge       = 0
  Multiplicity = 1
  Basis Set: 6-31G*
  Basis Set:

    Orbital Energies (a.u.)
    -----------------------

    Doubly Occupied:

       1A    -20.588306     2A    -20.553226     3A    -11.373352
       4A    -11.291903     5A    -11.236431     6A    -11.219508
       7A    -11.218513     8A    -11.217028     9A    -11.210211
      10A     -1.464616    11A     -1.365606    12A     -1.093345
      13A     -1.041888    14A     -0.986596    15A     -0.939520
      16A     -0.847673    17A     -0.795904    18A     -0.768186
      19A     -0.695696    20A     -0.681372    21A     -0.674614
      22A     -0.649708    23A     -0.613732    24A     -0.606985
      25A     -0.577455    26A     -0.567343    27A     -0.555214
      28A     -0.535243    29A     -0.508831    30A     -0.499019
      31A     -0.486098    32A     -0.475293    33A     -0.469325
      34A     -0.466208    35A     -0.450333    36A     -0.430154

  @DF-RHF Final Energy:  -422.95851875768130

   => Energetics <=

    Nuclear Repulsion Energy =            453.1746037734610582
    One-Electron Energy =               -1473.9574034617962752
    Two-Electron Energy =                 597.8242809306566414
    DFT Exchange-Correlation Energy =       0.0000000000000000
    Empirical Dispersion Energy =           0.0000000000000000
    PCM Polarization Energy =               0.0000000000000000
    EFP Energy =                            0.0000000000000000
    Total Energy =                       -422.9585187576785756

  Mulliken Charges: (a.u.)
   Center  Symbol    Alpha    Beta     Spin     Total
       1     O     4.26462  4.26462  0.00000 -0.52924
       2     C     2.61073  2.61073  0.00000  0.77853
       3     C     3.21070  3.21070  0.00000 -0.42141
       4     O     4.31140  4.31140  0.00000 -0.62281
       5     C     3.15356  3.15356  0.00000 -0.30712
       6     H     0.39876  0.39876  0.00000  0.20248
       7     H     0.40706  0.40706  0.00000  0.18589
       8     C     3.15302  3.15302  0.00000 -0.30605
       9     H     0.41064  0.41064  0.00000  0.17873
      10     H     0.41308  0.41308  0.00000  0.17383
      11     C     3.15151  3.15151  0.00000 -0.30303
      12     H     0.42372  0.42372  0.00000  0.15257
      13     H     0.42504  0.42504  0.00000  0.14992
      14     C     3.23957  3.23957  0.00000 -0.47914
      15     H     0.42097  0.42097  0.00000  0.15806
      16     H     0.42162  0.42162  0.00000  0.15675
      17     H     0.42167  0.42167  0.00000  0.15667
      18     H     0.41838  0.41838  0.00000  0.16324
      19     H     0.42213  0.42213  0.00000  0.15575
      20     C     3.09385  3.09385  0.00000 -0.18770
      21     H     0.40451  0.40451  0.00000  0.19099
      22     H     0.40312  0.40312  0.00000  0.19376
      23     H     0.42033  0.42033  0.00000  0.15933

   Total alpha = 36.00000, Total beta = 36.00000, Total charge =  0.00000
