                              Psi4 1.0.54 Driver

  ==> Input File <==

--------------------------------------------------------------------------
set {
	reference rhf
	basis cc-pvtz
}

set_num_threads( 4 )
memory 2 gb

molecule MOL {
0 1

H	 -3.642953	 0.223825	 0.000000
C	 -2.571844	 0.155001	 0.000000
C	 -1.957580	 -1.086132	 0.000000
C	 -1.807160	 1.303787	 0.000000
H	 -2.551493	 -1.979629	 0.000000
C	 -0.582719	 -1.174294	 0.000000
H	 -2.279934	 2.266806	 0.000000
C	 -0.427220	 1.213406	 0.000000
H	 -0.094904	 -2.127556	 0.000000
C	 0.196908	 -0.024061	 0.000000
H	 0.151409	 2.115254	 0.000000
C	 1.690041	 -0.173233	 0.000000
C	 2.550156	 1.048337	 -0.229406
O	 2.190763	 -1.237641	 0.177977
H	 2.334067	 1.494305	 -1.192940
H	 3.585765	 0.749883	 -0.195194
H	 2.364296	 1.796880	 0.531593

	symmetry c1
}
set optking {
	frozen_dihedral = ("
		13 12 10 8
	")
}

ee,wfn = optimize('scf', return_wfn=True)
oeprop( wfn, 'DIPOLE', 'QUADRUPOLE', 'MULLIKEN_CHARGES')
f=open( 'psi4out.xyz', 'w' )
f.write( "17  " )
f.write( str(ee) + "\n" )
f.write( MOL.save_string_xyz() )
f.close()
--------------------------------------------------------------------------

    Molecular point group: c1
  Charge       = 0
  Multiplicity = 1
  Basis Set: CC-PVTZ
  Basis Set:
  @DF-RHF Final Energy:  -382.60555851334368
    Total Energy =                       -382.6055585133436807
    Molecular point group: c1
  Basis Set: CC-PVTZ
  Basis Set:
  Basis Set: CC-PVTZ
  Basis Set:
  @DF-RHF Final Energy:  -382.60434462629331
    Total Energy =                       -382.6043446262935959
  Basis Set: CC-PVTZ
  Basis Set:
  Basis Set: CC-PVTZ
  Basis Set:
  @DF-RHF Final Energy:  -382.60556179890165
    Total Energy =                       -382.6055617989018174
  Basis Set: CC-PVTZ
  Basis Set:
  Basis Set: CC-PVTZ
  Basis Set:
  @DF-RHF Final Energy:  -382.60563874853659
    Total Energy =                       -382.6056387485368759
  Basis Set: CC-PVTZ
  Basis Set:
  Basis Set: CC-PVTZ
  Basis Set:
  @DF-RHF Final Energy:  -382.60564351201640
    Total Energy =                       -382.6056435120162860
  Basis Set: CC-PVTZ
  Basis Set:
  Charge       = 0
  Multiplicity = 1
  Basis Set: CC-PVTZ
  Basis Set:

    Orbital Energies (a.u.)
    -----------------------

    Doubly Occupied:

       1A    -20.540517     2A    -11.327821     3A    -11.246888
       4A    -11.244399     5A    -11.242630     6A    -11.238990
       7A    -11.238896     8A    -11.236626     9A    -11.228928
      10A     -1.401984    11A     -1.171180    12A     -1.053418
      13A     -1.030709    14A     -0.998793    15A     -0.864570
      16A     -0.838896    17A     -0.763563    18A     -0.713362
      19A     -0.658669    20A     -0.651977    21A     -0.628674
      22A     -0.610573    23A     -0.602515    24A     -0.600715
      25A     -0.555336    26A     -0.529460    27A     -0.521871
      28A     -0.503659    29A     -0.497744    30A     -0.414424
      31A     -0.350966    32A     -0.346792

  @DF-RHF Final Energy:  -382.60564445138908

   => Energetics <=

    Nuclear Repulsion Energy =            404.4875707727051690
    One-Electron Energy =               -1320.4753419669880259
    Two-Electron Energy =                 533.3821267428938881
    DFT Exchange-Correlation Energy =       0.0000000000000000
    Empirical Dispersion Energy =           0.0000000000000000
    PCM Polarization Energy =               0.0000000000000000
    EFP Energy =                            0.0000000000000000
    Total Energy =                       -382.6056444513890256
    Molecular point group: c1
  Basis Set: CC-PVTZ
  Basis Set:

  -Total Gradient:
     Atom            X                  Y                   Z
    ------   -----------------  -----------------  -----------------
       1        0.000000290226    -0.000001054800     0.000006612486
       2        0.000001038469     0.000005896247    -0.000010668465
       3        0.000007085937    -0.000002265138     0.000002391422
       4       -0.000006849597     0.000003772600    -0.000010413817
       5       -0.000001830361    -0.000000901051    -0.000003545256
       6       -0.000016022243     0.000011642890     0.000014548773
       7       -0.000002007559    -0.000000624446     0.000002041610
       8       -0.000019365543     0.000001284220     0.000968928411
       9        0.000001983318    -0.000005396049    -0.000003421755
      10       -0.000010923688    -0.000056187098    -0.001807786269
      11       -0.000004895820    -0.000005504190    -0.000004896823
      12        0.000063377359     0.000080715190     0.001622894950
      13       -0.000006775734    -0.000152513984    -0.000693813083
      14       -0.000028874685     0.000074179571     0.000003053211
      15       -0.000032303666     0.000018934381    -0.000086073929
      16        0.000055711698    -0.000015685547    -0.000005498607
      17        0.000000361892     0.000043707199     0.000005647142

  **** Optimization is complete! (in 6 steps) ****
    Final optimized geometry and variables:
    Molecular point group: c1

    Geometry (in Angstrom), charge = 0, multiplicity = 1:

    H           -3.642742369234     0.224036575920     0.008905370485
    C           -2.571593181174     0.155398028639     0.006443184113
    C           -1.957225646231    -1.085791305793     0.013437389860
    C           -1.806916813787     1.304098749640    -0.002660404763
    H           -2.551191702069    -1.979273896819     0.020916757405
    C           -0.582343581216    -1.173899945616     0.014158056005
    H           -2.279532147577     2.267252750205    -0.004704099119
    C           -0.426843148724     1.213761059763    -0.009569598350
    H           -0.094681349682    -2.127286758258     0.027308619740
    C            0.196924335061    -0.023606750454    -0.002430245372
    H            0.152108542941     2.115537783092    -0.018631782203
    C            1.690357512174    -0.172311929400     0.012356755078
    C            2.550214166495     1.050986796621    -0.209869182993
    O            2.189589322451    -1.238579987402     0.181040703891
    H            2.289656146480     1.539353321090    -1.141188924861
    H            3.583886318173     0.744343670576    -0.235769492657
    H            2.410352615915     1.767783694026     0.590927775935

  Mulliken Charges: (a.u.)
   Center  Symbol    Alpha    Beta     Spin     Total
       1     H     0.42023  0.42023  0.00000  0.15955
       2     C     3.07252  3.07252  0.00000 -0.14504
       3     C     3.07439  3.07439  0.00000 -0.14877
       4     C     3.07735  3.07735  0.00000 -0.15469
       5     H     0.42028  0.42028  0.00000  0.15944
       6     C     3.07461  3.07461  0.00000 -0.14921
       7     H     0.42234  0.42234  0.00000  0.15531
       8     C     3.08648  3.08648  0.00000 -0.17297
       9     H     0.40719  0.40719  0.00000  0.18562
      10     C     3.01163  3.01163  0.00000 -0.02327
      11     H     0.42149  0.42149  0.00000  0.15701
      12     C     2.83457  2.83457  0.00000  0.33087
      13     C     3.16714  3.16714  0.00000 -0.33428
      14     O     4.18352  4.18352  0.00000 -0.36704
      15     H     0.44618  0.44618  0.00000  0.10765
      16     H     0.43188  0.43188  0.00000  0.13623
      17     H     0.44821  0.44821  0.00000  0.10358

   Total alpha = 32.00000, Total beta = 32.00000, Total charge =  0.00000

*** Psi4 exiting successfully. Buy a developer a beer!
