                              Psi4 1.0.54 Driver

  ==> Input File <==

--------------------------------------------------------------------------
set {
	reference rhf
	basis cc-pvtz
}

set_num_threads( 4 )
memory 2 gb

molecule MOL {
0 1

H	 4.374800	 3.539277	 -1.289605
C	 4.250938	 2.487885	 -1.057012
C	 2.921740	 2.231464	 -0.355011
H	 4.312007	 1.933893	 -1.987378
H	 5.088270	 2.185500	 -0.436338
C	 2.717116	 0.759998	 -0.001613
H	 2.110767	 2.566520	 -0.991406
H	 2.874677	 2.827739	 0.553319
C	 1.397382	 0.474040	 0.707904
H	 2.770597	 0.160330	 -0.901817
H	 3.528158	 0.434790	 0.643549
C	 0.166485	 0.574257	 -0.177158
H	 1.403289	 -0.538585	 1.103281
H	 1.269402	 1.124592	 1.568090
C	 -1.180025	 0.697761	 0.509157
O	 0.245545	 0.536966	 -1.362753
C	 -2.285431	 -0.137488	 -0.145671
H	 -1.447360	 1.745713	 0.496200
H	 -1.065514	 0.394096	 1.546399
C	 -3.646545	 0.082747	 0.508954
H	 -2.348635	 0.118247	 -1.199806
H	 -2.034895	 -1.192387	 -0.096473
C	 -4.757412	 -0.737227	 -0.138149
H	 -3.900211	 1.137405	 0.459735
H	 -3.580878	 -0.166775	 1.564416
H	 -4.867876	 -0.486707	 -1.187777
H	 -4.549650	 -1.800049	 -0.072540
H	 -5.709585	 -0.556397	 0.346597

	symmetry c1
}
set optking {
	frozen_dihedral = ("
		16 12 15 17
	")
}

ee,wfn = optimize('scf', return_wfn=True)
oeprop( wfn, 'DIPOLE', 'QUADRUPOLE', 'MULLIKEN_CHARGES')
f=open( 'psi4out.xyz', 'w' )
f.write( "28  " )
f.write( str(ee) + "\n" )
f.write( MOL.save_string_xyz() )
f.close()
--------------------------------------------------------------------------

    Molecular point group: c1
  Charge       = 0
  Multiplicity = 1
  Basis Set: CC-PVTZ
  Basis Set:
  @DF-RHF Final Energy:  -426.32055495296493
    Total Energy =                       -426.3205549529652671
    Molecular point group: c1
  Basis Set: CC-PVTZ
  Basis Set:
  Basis Set: CC-PVTZ
  Basis Set:
  @DF-RHF Final Energy:  -426.32019031709717
    Total Energy =                       -426.3201903170970581
  Basis Set: CC-PVTZ
  Basis Set:
  Basis Set: CC-PVTZ
  Basis Set:
  @DF-RHF Final Energy:  -426.32077001618484
    Total Energy =                       -426.3207700161847242
  Basis Set: CC-PVTZ
  Basis Set:
  Basis Set: CC-PVTZ
  Basis Set:
  @DF-RHF Final Energy:  -426.32112802729216
    Total Energy =                       -426.3211280272926160
  Basis Set: CC-PVTZ
  Basis Set:
  Basis Set: CC-PVTZ
  Basis Set:
  @DF-RHF Final Energy:  -426.32113061804284
    Total Energy =                       -426.3211306180437532
  Basis Set: CC-PVTZ
  Basis Set:
  Basis Set: CC-PVTZ
  Basis Set:
  @DF-RHF Final Energy:  -426.32113838167913
    Total Energy =                       -426.3211383816786793
  Basis Set: CC-PVTZ
  Basis Set:
  Basis Set: CC-PVTZ
  Basis Set:
  @DF-RHF Final Energy:  -426.32113989852155
    Total Energy =                       -426.3211398985220058
  Basis Set: CC-PVTZ
  Basis Set:
  Charge       = 0
  Multiplicity = 1
  Basis Set: CC-PVTZ
  Basis Set:

    Orbital Energies (a.u.)
    -----------------------

    Doubly Occupied:

       1A    -20.536797     2A    -11.318047     3A    -11.229742
       4A    -11.228102     5A    -11.218556     6A    -11.217932
       7A    -11.214854     8A    -11.210388     9A    -11.208977
      10A    -11.203798    11A     -1.397800    12A     -1.090274
      13A     -1.078988    14A     -1.023128    15A     -0.991816
      16A     -0.911044    17A     -0.867159    18A     -0.806814
      19A     -0.793352    20A     -0.725487    21A     -0.671622
      22A     -0.652743    23A     -0.629054    24A     -0.619501
      25A     -0.609593    26A     -0.587409    27A     -0.578634
      28A     -0.572251    29A     -0.540112    30A     -0.529413
      31A     -0.522524    32A     -0.510262    33A     -0.494143
      34A     -0.479569    35A     -0.476113    36A     -0.472524
      37A     -0.469219    38A     -0.466454    39A     -0.457415
      40A     -0.394749

  @DF-RHF Final Energy:  -426.32114001125819

   => Energetics <=

    Nuclear Repulsion Energy =            529.6194777923878974
    One-Electron Energy =               -1627.8685235853868107
    Two-Electron Energy =                 671.9279057817402645
    DFT Exchange-Correlation Energy =       0.0000000000000000
    Empirical Dispersion Energy =           0.0000000000000000
    PCM Polarization Energy =               0.0000000000000000
    EFP Energy =                            0.0000000000000000
    Total Energy =                       -426.3211400112586489
    Molecular point group: c1
  Basis Set: CC-PVTZ
  Basis Set:

  -Total Gradient:
     Atom            X                  Y                   Z
    ------   -----------------  -----------------  -----------------
       1        0.000002280308     0.000000593593    -0.000002576041
       2       -0.000000962433     0.000007284791    -0.000005276259
       3        0.000025510377    -0.000000353609     0.000006703979
       4        0.000000865862    -0.000001017608    -0.000000359997
       5       -0.000002447089     0.000000670914     0.000000600129
       6        0.000010892598    -0.000002836905     0.000014595639
       7       -0.000008482949     0.000002571706    -0.000002573810
       8        0.000000442830    -0.000002259380    -0.000001811921
       9       -0.000001557782    -0.000000291823    -0.000002007444
      10       -0.000002041195     0.000004063398     0.000006383111
      11        0.000005060141     0.000004444017    -0.000002369993
      12        0.000011108713    -0.002236604090     0.000156409989
      13       -0.000006999875    -0.000004399607     0.000002424709
      14        0.000008729393    -0.000001824044     0.000002557039
      15       -0.000363733593     0.001645503971    -0.000739002378
      16        0.000043010645     0.001362535076     0.000031769428
      17        0.000272045422    -0.000789249999     0.000526122058
      18        0.000002314842     0.000004812325    -0.000000534682
      19        0.000001152996     0.000005281462    -0.000001701378
      20        0.000002957143    -0.000004035476     0.000004714462
      21       -0.000004128416    -0.000010050009     0.000018000603
      22       -0.000001410530     0.000013260034    -0.000001636033
      23       -0.000008602721     0.000004810846    -0.000003303061
      24        0.000003236796    -0.000012441308     0.000002427971
      25        0.000001343566     0.000003640399    -0.000009906364
      26       -0.000000123142    -0.000008000045     0.000010672382
      27       -0.000003986141     0.000015812776     0.000000926003
      28        0.000013524236    -0.000001921407    -0.000011248141

  **** Optimization is complete! (in 8 steps) ****
    Final optimized geometry and variables:
    Molecular point group: c1

    Geometry (in Angstrom), charge = 0, multiplicity = 1:

    H            4.465508386477     2.727372911436    -1.323088596539
    C            4.301816261821     1.693597326977    -1.041371493252
    C            2.978248950143     1.526791273803    -0.302807069030
    H            4.318966678708     1.097417175191    -1.947204250906
    H            5.138743899857     1.382339970201    -0.424489106356
    C            2.719733952971     0.082836428103     0.122291310319
    H            2.168238034886     1.866628066151    -0.937109734197
    H            2.976313701952     2.164182585003     0.578390173138
    C            1.402171479921    -0.115831583370     0.862431789362
    H            2.735087465370    -0.559576656814    -0.749996794442
    H            3.528044197181    -0.244982106134     0.769557975418
    C            0.157565208061    -0.047798207327     0.000474351284
    H            1.377610382788    -1.092864890305     1.341543244517
    H            1.294673854104     0.602648824964     1.671293761085
    C           -1.171194010915    -0.005842923764     0.734938504202
    O            0.206600437152    -0.016999107390    -1.186430213148
    C           -2.261832705498    -0.837305783015     0.065139408298
    H           -1.465357992512     1.040948976281     0.768409514263
    H           -1.032353238743    -0.318407832759     1.764223409697
    C           -3.608290620025    -0.726468569300     0.774109622917
    H           -2.359877946551    -0.524154306394    -0.966489992033
    H           -1.951135700835    -1.878385657033     0.040641715558
    C           -4.697029110748    -1.564631946308     0.112726294988
    H           -3.918089641149     0.314941461431     0.794047926441
    H           -3.499822076314    -1.031686801875     1.811586309819
    H           -4.852203284842    -1.260628324786    -0.916757004519
    H           -4.432616904773    -2.616748560657     0.109019905464
    H           -5.641561566653    -1.462910757938     0.634462607804

  Mulliken Charges: (a.u.)
   Center  Symbol    Alpha    Beta     Spin     Total
       1     H     0.44872  0.44872  0.00000  0.10257
       2     C     3.15159  3.15159  0.00000 -0.30317
       3     C     3.08429  3.08429  0.00000 -0.16859
       4     H     0.45195  0.45195  0.00000  0.09611
       5     H     0.45708  0.45708  0.00000  0.08584
       6     C     3.08724  3.08724  0.00000 -0.17449
       7     H     0.44492  0.44492  0.00000  0.11016
       8     H     0.45864  0.45864  0.00000  0.08271
       9     C     3.12267  3.12267  0.00000 -0.24534
      10     H     0.44547  0.44547  0.00000  0.10906
      11     H     0.44773  0.44773  0.00000  0.10455
      12     C     2.87187  2.87187  0.00000  0.25626
      13     H     0.43542  0.43542  0.00000  0.12916
      14     H     0.44257  0.44257  0.00000  0.11487
      15     C     3.09983  3.09983  0.00000 -0.19966
      16     O     4.17992  4.17992  0.00000 -0.35984
      17     C     3.08539  3.08539  0.00000 -0.17077
      18     H     0.44444  0.44444  0.00000  0.11112
      19     H     0.44522  0.44522  0.00000  0.10955
      20     C     3.08680  3.08680  0.00000 -0.17360
      21     H     0.43867  0.43867  0.00000  0.12265
      22     H     0.45387  0.45387  0.00000  0.09226
      23     C     3.14962  3.14962  0.00000 -0.29924
      24     H     0.45411  0.45411  0.00000  0.09178
      25     H     0.45564  0.45564  0.00000  0.08873
      26     H     0.45306  0.45306  0.00000  0.09387
      27     H     0.45483  0.45483  0.00000  0.09033
      28     H     0.44844  0.44844  0.00000  0.10312

   Total alpha = 40.00000, Total beta = 40.00000, Total charge = -0.00000

*** Psi4 exiting successfully. Buy a developer a beer!
