  ==> Input File <==

--------------------------------------------------------------------------
set {
	reference rhf
	basis 6-31G*
}

set_num_threads( 4 )
memory 2 gb

molecule MOL {
0 1

H	 -0.884232	 -1.347383	 -0.116458
O	 -1.422729	 -0.573567	 -0.196946
C	 -0.731407	 0.539437	 0.309156
C	 0.680193	 0.672443	 -0.251532
H	 -1.319765	 1.404033	 0.030086
H	 -0.700012	 0.506517	 1.397677
C	 1.599139	 -0.492137	 0.118598
H	 0.616402	 0.758534	 -1.332349
H	 1.107032	 1.602637	 0.117369
H	 1.239738	 -1.428634	 -0.297334
H	 2.601428	 -0.335055	 -0.265730
H	 1.674954	 -0.608418	 1.197020

	symmetry c1
}
set optking {
	frozen_dihedral = ("
		1 2 3 4
	")
}

ee = optimize('scf')
oeprop('DIPOLE', 'QUADRUPOLE', 'MULLIKEN_CHARGES')
f=open( 'psi4out.xyz', 'w' )
f.write( "12  " )
f.write( str(ee) + "\n" )
f.write( MOL.save_string_xyz() )
f.close()
--------------------------------------------------------------------------

    Molecular point group: c1
  Charge       = 0
  Multiplicity = 1
  Basis Set: 6-31G*
  Basis Set:
  @DF-RHF Final Energy:  -193.10915771632594
    Total Energy =                       -193.1091577163259672
    Molecular point group: c1
  Basis Set: 6-31G*
  Basis Set:
  Basis Set: 6-31G*
  Basis Set:
  @DF-RHF Final Energy:  -193.10914967920098
    Total Energy =                       -193.1091496792010389
  Basis Set: 6-31G*
  Basis Set:
  Basis Set: 6-31G*
  Basis Set:
  @DF-RHF Final Energy:  -193.10924463519990
    Total Energy =                       -193.1092446351999286
  Basis Set: 6-31G*
  Basis Set:
  Basis Set: 6-31G*
  Basis Set:
  @DF-RHF Final Energy:  -193.10924808880000
    Total Energy =                       -193.1092480888000296
  Basis Set: 6-31G*
  Basis Set:
  Charge       = 0
  Multiplicity = 1
  Basis Set: 6-31G*
  Basis Set:

    Orbital Energies (a.u.)
    -----------------------

    Doubly Occupied:

       1A    -20.551891     2A    -11.267606     3A    -11.222764
       4A    -11.222046     5A     -1.359404     6A     -1.053728
       7A     -0.929868     8A     -0.813852     9A     -0.689424
      10A     -0.639198    11A     -0.608398    12A     -0.587661
      13A     -0.546617    14A     -0.509236    15A     -0.495211
      16A     -0.468925    17A     -0.429987

  @DF-RHF Final Energy:  -193.10924835606525

   => Energetics <=

    Nuclear Repulsion Energy =            133.0455837094367268
    One-Electron Energy =                -525.5180246168350777
    Two-Electron Energy =                 199.3631925513330998
    DFT Exchange-Correlation Energy =       0.0000000000000000
    Empirical Dispersion Energy =           0.0000000000000000
    PCM Polarization Energy =               0.0000000000000000
    EFP Energy =                            0.0000000000000000
    Total Energy =                       -193.1092483560652227
    Molecular point group: c1
  Basis Set: 6-31G*
  Basis Set:

  -Total Gradient:
     Atom            X                  Y                   Z
    ------   -----------------  -----------------  -----------------
       1        0.000778173591     0.000336265927    -0.001869842939
       2       -0.000741848683    -0.000782054689     0.002723570202
       3       -0.000490619590     0.001190704072    -0.001834494300
       4        0.000446085194    -0.000772533956     0.000976590813
       5        0.000008821803     0.000018182520     0.000009042752
       6       -0.000000841656    -0.000008824569    -0.000008670799
       7        0.000003209336     0.000010637887    -0.000009406198
       8       -0.000003413571    -0.000006023284     0.000005955741
       9        0.000008378739     0.000004878906     0.000004276972
      10       -0.000011026701     0.000006932414     0.000000223848
      11        0.000007644871     0.000002597768     0.000000197428
      12       -0.000004563334    -0.000000762995     0.000002556479

  **** Optimization is complete! (in 5 steps) ****
    Final optimized geometry and variables:
    Molecular point group: c1

    Geometry (in Angstrom), charge = 0, multiplicity = 1:

    H           -0.918611652885    -1.347658613277    -0.119039909058
    O           -1.443714131655    -0.563815783049    -0.189757585864
    C           -0.730899735488     0.535927117574     0.313187500805
    C            0.679889505100     0.663257919255    -0.252602817189
    H           -1.313961761870     1.409056476829     0.050986073477
    H           -0.685007644493     0.489806417337     1.401155661924
    C            1.608678410012    -0.491864611803     0.127107455750
    H            0.617906375432     0.744830742161    -1.334274490077
    H            1.105008025305     1.595686644323     0.111163036091
    H            1.276033795641    -1.437602083115    -0.292548356556
    H            2.612415182444    -0.319301539941    -0.246268371750
    H            1.672120466489    -0.608595541554     1.205598798583

  Mulliken Charges: (a.u.)
   Center  Symbol    Alpha    Beta     Spin     Total
       1     H     0.27955  0.27955  0.00000  0.44089
       2     O     4.37302  4.37302  0.00000 -0.74605
       3     C     2.98930  2.98930  0.00000  0.02139
       4     C     3.16954  3.16954  0.00000 -0.33908
       5     H     0.41511  0.41511  0.00000  0.16978
       6     H     0.43239  0.43239  0.00000  0.13522
       7     C     3.25008  3.25008  0.00000 -0.50016
       8     H     0.41385  0.41385  0.00000  0.17231
       9     H     0.42031  0.42031  0.00000  0.15938
      10     H     0.42604  0.42604  0.00000  0.14792
      11     H     0.41223  0.41223  0.00000  0.17554
      12     H     0.41857  0.41857  0.00000  0.16286

   Total alpha = 17.00000, Total beta = 17.00000, Total charge = -0.00000
