  ==> Input File <==

--------------------------------------------------------------------------
set {
	reference rhf
	basis cc-pvtz
}

set_num_threads( 4 )
memory 2 gb

molecule MOL {
0 1

H	 -1.835082	 1.385983	 0.000069
C	 -1.300516	 0.441153	 -0.000028
O	 -0.006604	 0.654344	 -0.000106
O	 -1.828920	 -0.612308	 0.000113
C	 0.839745	 -0.407416	 0.431383
C	 2.267712	 0.076036	 0.342576
H	 0.669756	 -1.268043	 -0.199792
H	 0.572236	 -0.678264	 1.442839
H	 2.520338	 0.347249	 -0.674574
H	 2.939318	 -0.710662	 0.664919
H	 2.422323	 0.940016	 0.976298

	symmetry c1
}
set optking {
	frozen_dihedral = ("
		5 3 2 4
	")
}

ee = optimize('scf')
oeprop('DIPOLE', 'QUADRUPOLE', 'MULLIKEN_CHARGES')
f=open( 'psi4out.xyz', 'w' )
f.write( "11  " )
f.write( str(ee) + "\n" )
f.write( MOL.save_string_xyz() )
f.close()
--------------------------------------------------------------------------

    Molecular point group: c1
  Charge       = 0
  Multiplicity = 1
  Basis Set: CC-PVTZ
  Basis Set:
  @DF-RHF Final Energy:  -266.92939064308854
    Total Energy =                       -266.9293906430885386
    Molecular point group: c1
  Basis Set: CC-PVTZ
  Basis Set:
  Basis Set: CC-PVTZ
  Basis Set:
  @DF-RHF Final Energy:  -266.92435263436732
    Total Energy =                       -266.9243526343670965
  Basis Set: CC-PVTZ
  Basis Set:
  Basis Set: CC-PVTZ
  Basis Set:
  @DF-RHF Final Energy:  -266.92960736871089
    Total Energy =                       -266.9296073687110038
  Basis Set: CC-PVTZ
  Basis Set:
  Basis Set: CC-PVTZ
  Basis Set:
  @DF-RHF Final Energy:  -266.92967327925692
    Total Energy =                       -266.9296732792569173
  Basis Set: CC-PVTZ
  Basis Set:
  Basis Set: CC-PVTZ
  Basis Set:
  @DF-RHF Final Energy:  -266.92967495463915
    Total Energy =                       -266.9296749546392675
  Basis Set: CC-PVTZ
  Basis Set:
  Charge       = 0
  Multiplicity = 1
  Basis Set: CC-PVTZ
  Basis Set:

    Orbital Energies (a.u.)
    -----------------------

    Doubly Occupied:

       1A    -20.603485     2A    -20.546990     3A    -11.370445
       4A    -11.290969     5A    -11.225396     6A     -1.478120
       7A     -1.377725     8A     -1.053592     9A     -0.902889
      10A     -0.807273    11A     -0.740755    12A     -0.692407
      13A     -0.681687    14A     -0.598303    15A     -0.573834
      16A     -0.558810    17A     -0.519990    18A     -0.516257
      19A     -0.464443    20A     -0.456823

  @DF-RHF Final Energy:  -266.92967576360104

   => Energetics <=

    Nuclear Repulsion Energy =            179.4003336750990059
    One-Electron Energy =                -719.7396380708503330
    Two-Electron Energy =                 273.4096286321502021
    DFT Exchange-Correlation Energy =       0.0000000000000000
    Empirical Dispersion Energy =           0.0000000000000000
    PCM Polarization Energy =               0.0000000000000000
    EFP Energy =                            0.0000000000000000
    Total Energy =                       -266.9296757636011534
    Molecular point group: c1
  Basis Set: CC-PVTZ
  Basis Set:

  -Total Gradient:
     Atom            X                  Y                   Z
    ------   -----------------  -----------------  -----------------
       1        0.000008796314    -0.000006398206     0.000007387149
       2        0.000666461762     0.001605483442     0.012701424233
       3       -0.000280142297    -0.003181184236    -0.010673025621
       4       -0.000408371454    -0.000407485842    -0.006759725011
       5        0.000022016492     0.001975166976     0.004732153412
       6       -0.000001657489     0.000011934235     0.000001722430
       7       -0.000009162533    -0.000011976085    -0.000000540939
       8        0.000000858904     0.000013755711    -0.000017726806
       9       -0.000002797913    -0.000002964097     0.000005150674
      10       -0.000001874644    -0.000001877523     0.000001352405
      11        0.000005872859     0.000005545624     0.000001828074

  **** Optimization is complete! (in 6 steps) ****
    Final optimized geometry and variables:
    Molecular point group: c1

    Geometry (in Angstrom), charge = 0, multiplicity = 1:

    H           -1.815473868357     1.371899443641    -0.218787346352
    C           -1.295046310608     0.422422073207    -0.137733457053
    O            0.003189034109     0.606097321584    -0.218178663409
    O           -1.842028364630    -0.617403676011    -0.052288569662
    C            0.852423953329    -0.449384828047     0.224649402728
    C            2.275467940964     0.053957924379     0.180816153928
    H            0.715271885458    -1.308372701016    -0.416217279820
    H            0.559494377756    -0.730299789942     1.226873808337
    H            2.551447833222     0.337410020031    -0.826841922933
    H            2.948606420841    -0.726978153929     0.513930836571
    H            2.400989570675     0.914354371811     0.825712923171

  Mulliken Charges: (a.u.)
   Center  Symbol    Alpha    Beta     Spin     Total
       1     H     0.44962  0.44962  0.00000  0.10075
       2     C     2.84520  2.84520  0.00000  0.30960
       3     O     4.14613  4.14613  0.00000 -0.29225
       4     O     4.19220  4.19220  0.00000 -0.38440
       5     C     2.97221  2.97221  0.00000  0.05559
       6     C     3.13309  3.13309  0.00000 -0.26618
       7     H     0.45033  0.45033  0.00000  0.09935
       8     H     0.45644  0.45644  0.00000  0.08713
       9     H     0.44952  0.44952  0.00000  0.10097
      10     H     0.45435  0.45435  0.00000  0.09130
      11     H     0.45092  0.45092  0.00000  0.09815

   Total alpha = 20.00000, Total beta = 20.00000, Total charge = -0.00000
