  ==> Input File <==

--------------------------------------------------------------------------
set {
	reference rhf
	basis cc-pvtz
}

set_num_threads( 4 )
memory 2 gb

molecule MOL {
0 1

H	 0.050321	 -2.578466	 0.148028
C	 -0.835635	 -1.941873	 0.183821
N	 -0.537714	 -0.645117	 0.000000
O	 -1.922764	 -2.390328	 0.367551
C	 -1.522613	 0.412524	 0.000000
H	 0.413928	 -0.412692	 -0.142623
H	 -2.150256	 0.356137	 -0.880771
H	 -1.005621	 1.357208	 0.000000
H	 -2.150256	 0.356137	 0.880771

	symmetry c1
}
set optking {
	frozen_dihedral = ("
		6 3 5 7
	")
}

ee = optimize('scf')
oeprop('DIPOLE', 'QUADRUPOLE', 'MULLIKEN_CHARGES')
f=open( 'psi4out.xyz', 'w' )
f.write( "9  " )
f.write( str(ee) + "\n" )
f.write( MOL.save_string_xyz() )
f.close()
--------------------------------------------------------------------------

    Molecular point group: c1
  Charge       = 0
  Multiplicity = 1
  Basis Set: CC-PVTZ
  Basis Set:
  @DF-RHF Final Energy:  -208.04346793187347
    Total Energy =                       -208.0434679318733515
    Molecular point group: c1
  Basis Set: CC-PVTZ
  Basis Set:
  Basis Set: CC-PVTZ
  Basis Set:
  @DF-RHF Final Energy:  -208.04364165799137
    Total Energy =                       -208.0436416579912589
  Basis Set: CC-PVTZ
  Basis Set:
  Basis Set: CC-PVTZ
  Basis Set:
  @DF-RHF Final Energy:  -208.04365022375148
    Total Energy =                       -208.0436502237514844
  Basis Set: CC-PVTZ
  Basis Set:
  Basis Set: CC-PVTZ
  Basis Set:
  @DF-RHF Final Energy:  -208.04363376787609
    Total Energy =                       -208.0436337678760879
  Basis Set: CC-PVTZ
  Basis Set:
  Basis Set: CC-PVTZ
  Basis Set:
  @DF-RHF Final Energy:  -208.04366591790046
    Total Energy =                       -208.0436659179004835
  Basis Set: CC-PVTZ
  Basis Set:
  Basis Set: CC-PVTZ
  Basis Set:
  @DF-RHF Final Energy:  -208.04366803479928
    Total Energy =                       -208.0436680347993956
  Basis Set: CC-PVTZ
  Basis Set:
  Charge       = 0
  Multiplicity = 1
  Basis Set: CC-PVTZ
  Basis Set:

    Orbital Energies (a.u.)
    -----------------------

    Doubly Occupied:

       1A    -20.516613     2A    -15.584376     3A    -11.335968
       4A    -11.260537     5A     -1.393947     6A     -1.239326
       7A     -0.969797     8A     -0.809256     9A     -0.749156
      10A     -0.645805    11A     -0.629951    12A     -0.596151
      13A     -0.559580    14A     -0.536946    15A     -0.428240
      16A     -0.396748

  @DF-RHF Final Energy:  -208.04366954845855

   => Energetics <=

    Nuclear Repulsion Energy =            122.9375095131211708
    One-Electron Energy =                -526.6575674016584117
    Two-Electron Energy =                 195.6763883400786881
    DFT Exchange-Correlation Energy =       0.0000000000000000
    Empirical Dispersion Energy =           0.0000000000000000
    PCM Polarization Energy =               0.0000000000000000
    EFP Energy =                            0.0000000000000000
    Total Energy =                       -208.0436695484585243
    Molecular point group: c1
  Basis Set: CC-PVTZ
  Basis Set:

  -Total Gradient:
     Atom            X                  Y                   Z
    ------   -----------------  -----------------  -----------------
       1       -0.000003083701    -0.000000146239     0.000019828110
       2        0.000086458598     0.000025949987    -0.000077078997
       3       -0.000027995120    -0.000083314448    -0.000034583570
       4       -0.000035617736     0.000008967227     0.000032441018
       5       -0.000009203066     0.000098160643    -0.000008287881
       6        0.000002330984    -0.000006759315     0.000052308635
       7       -0.000010262951    -0.000019404821     0.000011416744
       8       -0.000011985415    -0.000020271659    -0.000002486291
       9        0.000009358403    -0.000003181380     0.000006442231

  **** Optimization is complete! (in 7 steps) ****
    Final optimized geometry and variables:
    Molecular point group: c1

    Geometry (in Angstrom), charge = 0, multiplicity = 1:

    H            1.246234434362    -1.474059668826     0.016161488061
    C            0.374829123764    -0.817186590433     0.044255165664
    N            0.691541061326     0.476991141120    -0.111616698560
    O           -0.728435764681    -1.235019326263     0.203604989452
    C           -0.310808192921     1.519251560354    -0.130444727458
    H            1.639058523798     0.709976117858    -0.273228882366
    H           -0.953570240482     1.433436976006    -0.997025195860
    H            0.185908048520     2.478291176662    -0.155240628971
    H           -0.927626554628     1.466159026258     0.755060136223

  Mulliken Charges: (a.u.)
   Center  Symbol    Alpha    Beta     Spin     Total
       1     H     0.46442  0.46442  0.00000  0.07117
       2     C     2.87950  2.87950  0.00000  0.24099
       3     N     3.60564  3.60564  0.00000 -0.21127
       4     O     4.21439  4.21439  0.00000 -0.42877
       5     C     3.07507  3.07507  0.00000 -0.15015
       6     H     0.41004  0.41004  0.00000  0.17993
       7     H     0.45105  0.45105  0.00000  0.09789
       8     H     0.45454  0.45454  0.00000  0.09092
       9     H     0.44535  0.44535  0.00000  0.10929

   Total alpha = 16.00000, Total beta = 16.00000, Total charge = -0.00000
