                              Psi4 1.0.54 Driver

  ==> Input File <==

--------------------------------------------------------------------------
set {
	reference rhf
	basis cc-pvtz
}

set_num_threads( 4 )
memory 2 gb

molecule MOL {
0 1

H	 1.352126	 -2.118747	 0.665858
C	 0.411708	 -1.611695	 0.801302
O	 0.462329	 -0.453336	 -0.000137
H	 0.292129	 -1.357446	 1.846901
H	 -0.393059	 -2.265932	 0.490558
C	 -0.590565	 0.341382	 0.000062
O	 -1.693898	 -0.053880	 0.000252
H	 -0.340426	 1.403822	 0.000200

	symmetry c1
}
set optking {
	frozen_dihedral = ("
		2 3 6 7
	")
}

ee,wfn = optimize('scf', return_wfn=True)
oeprop( wfn, 'DIPOLE', 'QUADRUPOLE', 'MULLIKEN_CHARGES')
f=open( 'psi4out.xyz', 'w' )
f.write( "8  " )
f.write( str(ee) + "\n" )
f.write( MOL.save_string_xyz() )
f.close()
--------------------------------------------------------------------------

    Molecular point group: c1
  Charge       = 0
  Multiplicity = 1
  Basis Set: CC-PVTZ
  Basis Set:
  @DF-RHF Final Energy:  -227.86939572580897
    Total Energy =                       -227.8693957258089711
    Molecular point group: c1
  Basis Set: CC-PVTZ
  Basis Set:
  Basis Set: CC-PVTZ
  Basis Set:
  @DF-RHF Final Energy:  -227.86262764390420
    Total Energy =                       -227.8626276439042044
  Basis Set: CC-PVTZ
  Basis Set:
  Basis Set: CC-PVTZ
  Basis Set:
  @DF-RHF Final Energy:  -227.86899932508447
    Total Energy =                       -227.8689993250844168
  Basis Set: CC-PVTZ
  Basis Set:
  Basis Set: CC-PVTZ
  Basis Set:
  @DF-RHF Final Energy:  -227.87062758498087
    Total Energy =                       -227.8706275849808378
  Basis Set: CC-PVTZ
  Basis Set:
  Basis Set: CC-PVTZ
  Basis Set:
  @DF-RHF Final Energy:  -227.87063405559519
    Total Energy =                       -227.8706340555950760
  Basis Set: CC-PVTZ
  Basis Set:
  Basis Set: CC-PVTZ
  Basis Set:
  @DF-RHF Final Energy:  -227.87066741372939
    Total Energy =                       -227.8706674137293930
  Basis Set: CC-PVTZ
  Basis Set:
  Charge       = 0
  Multiplicity = 1
  Basis Set: CC-PVTZ
  Basis Set:

    Orbital Energies (a.u.)
    -----------------------

    Doubly Occupied:

       1A    -20.601629     2A    -20.553317     3A    -11.373881
       4A    -11.290062     5A     -1.477434     6A     -1.381286
       7A     -0.995352     8A     -0.823032     9A     -0.744898
      10A     -0.686687    11A     -0.677822    12A     -0.611381
      13A     -0.562254    14A     -0.528714    15A     -0.471725
      16A     -0.458829

  @DF-RHF Final Energy:  -227.87066764225614

   => Energetics <=

    Nuclear Repulsion Energy =            123.2480534557458185
    One-Electron Energy =                -555.7608337663523344
    Two-Electron Energy =                 204.6421126683503644
    DFT Exchange-Correlation Energy =       0.0000000000000000
    Empirical Dispersion Energy =           0.0000000000000000
    PCM Polarization Energy =               0.0000000000000000
    EFP Energy =                            0.0000000000000000
    Total Energy =                       -227.8706676422561372
    Molecular point group: c1
  Basis Set: CC-PVTZ
  Basis Set:

  -Total Gradient:
     Atom            X                  Y                   Z
    ------   -----------------  -----------------  -----------------
       1        0.000001200602    -0.000022470192     0.000020959927
       2        0.003497791795     0.004315994174     0.005692026703
       3       -0.005615326592    -0.006677877937    -0.013999354992
       4       -0.000000596321     0.000025309674    -0.000008297021
       5       -0.000001958139     0.000000785468     0.000008750001
       6        0.002807542847     0.002763534926     0.018781302891
       7       -0.000671744512    -0.000407447671    -0.010485853252
       8       -0.000016909682     0.000002171558    -0.000009534257

  **** Optimization is complete! (in 7 steps) ****
    Final optimized geometry and variables:
    Molecular point group: c1

    Geometry (in Angstrom), charge = 0, multiplicity = 1:

    H            1.746247455421    -1.638199763690     0.434497939344
    C            0.802091382955    -1.143709154692     0.591182004519
    O            0.802581890985    -0.010634973528    -0.260691038961
    H            0.719730450152    -0.830326995749     1.622968751179
    H           -0.011137386041    -1.810773405895     0.349313801860
    C           -0.252691901471     0.784878781179    -0.224861046584
    O           -1.372020552240     0.434859235494    -0.141846455140
    H            0.040958761097     1.819085059887    -0.379939236115

  Mulliken Charges: (a.u.)
   Center  Symbol    Alpha    Beta     Spin     Total
       1     H     0.44489  0.44489  0.00000  0.11022
       2     C     3.02670  3.02670  0.00000 -0.05340
       3     O     4.14728  4.14728  0.00000 -0.29456
       4     H     0.46076  0.46076  0.00000  0.07848
       5     H     0.44806  0.44806  0.00000  0.10388
       6     C     2.83352  2.83352  0.00000  0.33297
       7     O     4.18363  4.18363  0.00000 -0.36726
       8     H     0.45516  0.45516  0.00000  0.08967

   Total alpha = 16.00000, Total beta = 16.00000, Total charge =  0.00000

*** Psi4 exiting successfully. Buy a developer a beer!
