  ==> Input File <==

--------------------------------------------------------------------------
set {
	reference rhf
	basis 6-31G*
}

set_num_threads( 4 )
memory 2 gb

molecule MOL {
0 1

H	 1.314184	 -1.182694	 2.040678
O	 0.633647	 -0.623080	 1.695147
C	 1.135793	 0.118896	 0.612333
C	 0.031547	 1.023609	 0.088541
H	 1.463242	 -0.545560	 -0.185267
H	 1.998923	 0.705352	 0.919215
C	 -1.134819	 0.293262	 -0.585751
H	 0.474374	 1.714721	 -0.623187
H	 -0.338529	 1.620940	 0.920081
C	 -1.917817	 -0.639439	 0.339494
H	 -0.758119	 -0.268455	 -1.433105
H	 -1.813832	 1.041889	 -0.986690
H	 -2.777680	 -1.057197	 -0.174994
H	 -1.310268	 -1.471279	 0.680599
H	 -2.283753	 -0.111424	 1.216626

	symmetry c1
}
set optking {
	frozen_dihedral = ("
		2 3 4 8
	")
}

ee = optimize('scf')
oeprop('DIPOLE', 'QUADRUPOLE', 'MULLIKEN_CHARGES')
f=open( 'psi4out.xyz', 'w' )
f.write( "15  " )
f.write( str(ee) + "\n" )
f.write( MOL.save_string_xyz() )
f.close()
--------------------------------------------------------------------------

    Molecular point group: c1
  Charge       = 0
  Multiplicity = 1
  Basis Set: 6-31G*
  Basis Set:
  @DF-RHF Final Energy:  -232.14111849529050
    Total Energy =                       -232.1411184952903568
    Molecular point group: c1
  Basis Set: 6-31G*
  Basis Set:
  Basis Set: 6-31G*
  Basis Set:
  @DF-RHF Final Energy:  -232.14210128205923
    Total Energy =                       -232.1421012820592296
  Basis Set: 6-31G*
  Basis Set:
  Basis Set: 6-31G*
  Basis Set:
  @DF-RHF Final Energy:  -232.14239857613106
    Total Energy =                       -232.1423985761311428
  Basis Set: 6-31G*
  Basis Set:
  Basis Set: 6-31G*
  Basis Set:
  @DF-RHF Final Energy:  -232.14245260446125
    Total Energy =                       -232.1424526044613685
  Basis Set: 6-31G*
  Basis Set:
  Basis Set: 6-31G*
  Basis Set:
  @DF-RHF Final Energy:  -232.14245865299333
    Total Energy =                       -232.1424586529934686
  Basis Set: 6-31G*
  Basis Set:
  Charge       = 0
  Multiplicity = 1
  Basis Set: 6-31G*
  Basis Set:

    Orbital Energies (a.u.)
    -----------------------

    Doubly Occupied:

       1A    -20.554304     2A    -11.269059     3A    -11.213481
       4A    -11.211191     5A    -11.194090     6A     -1.361005
       7A     -1.061689     8A     -0.970100     9A     -0.860984
      10A     -0.778627    11A     -0.704101    12A     -0.645884
      13A     -0.602864    14A     -0.578919    15A     -0.548522
      16A     -0.537418    17A     -0.508141    18A     -0.468588
      19A     -0.467609    20A     -0.451196    21A     -0.427902

  @DF-RHF Final Energy:  -232.14245941577636

   => Energetics <=

    Nuclear Repulsion Energy =            192.2571453121333036
    One-Electron Energy =                -695.9678570592848246
    Two-Electron Energy =                 271.5682523313749357
    DFT Exchange-Correlation Energy =       0.0000000000000000
    Empirical Dispersion Energy =           0.0000000000000000
    PCM Polarization Energy =               0.0000000000000000
    EFP Energy =                            0.0000000000000000
    Total Energy =                       -232.1424594157766137
    Molecular point group: c1
  Basis Set: 6-31G*
  Basis Set:

  -Total Gradient:
     Atom            X                  Y                   Z
    ------   -----------------  -----------------  -----------------
       1       -0.000001575188     0.000001253207     0.000000705056
       2       -0.000062305924    -0.000123792656    -0.000058797178
       3        0.000053835439     0.000092587489     0.000059059716
       4       -0.000006394279     0.000117428492     0.000130515902
       5        0.000011964668     0.000002547663    -0.000021312429
       6       -0.000031439275     0.000009650592    -0.000018838879
       7        0.000048687160    -0.000008408496    -0.000011796065
       8       -0.000037841997    -0.000112691967    -0.000152152977
       9       -0.000017322730     0.000006600630     0.000006739429
      10        0.000020430032    -0.000019282184     0.000020323888
      11        0.000005743271     0.000017377606     0.000023869664
      12        0.000043750879     0.000037001983    -0.000003591570
      13        0.000006695417    -0.000000766379     0.000018320843
      14       -0.000029396037    -0.000014536983     0.000006471113
      15       -0.000004831437    -0.000004968995     0.000000483490

  **** Optimization is complete! (in 6 steps) ****
    Final optimized geometry and variables:
    Molecular point group: c1

    Geometry (in Angstrom), charge = 0, multiplicity = 1:

    H            1.722818162237    -1.210218615160     1.466450960379
    O            0.988345774847    -0.683186780968     1.185538548041
    C            1.387991342507     0.154851405897     0.130453370503
    C            0.215715392322     1.007810252699    -0.329496273423
    H            1.763350430908    -0.435422935278    -0.704821721411
    H            2.195503239893     0.807691686802     0.457276642424
    C           -0.918715548784     0.260047789477    -1.043318950658
    H            0.618355145811     1.753563577718    -1.012081689632
    H           -0.175798726330     1.548459887257     0.528410439324
    C           -1.826900412373    -0.574643356216    -0.138448909322
    H           -0.493386977266    -0.374421170682    -1.818923532286
    H           -1.528916166257     0.996616733755    -1.560890430754
    H           -2.635909008630    -1.013232733245    -0.715950586306
    H           -1.283132740992    -1.371445712053     0.349889363841
    H           -2.272130500831     0.043301603079     0.636360671344

  Mulliken Charges: (a.u.)
   Center  Symbol    Alpha    Beta     Spin     Total
       1     H     0.28072  0.28072  0.00000  0.43855
       2     O     4.36832  4.36832  0.00000 -0.73664
       3     C     2.99545  2.99545  0.00000  0.00911
       4     C     3.16153  3.16153  0.00000 -0.32306
       5     H     0.43273  0.43273  0.00000  0.13454
       6     H     0.42997  0.42997  0.00000  0.14005
       7     C     3.15305  3.15305  0.00000 -0.30610
       8     H     0.42257  0.42257  0.00000  0.15485
       9     H     0.41463  0.41463  0.00000  0.17074
      10     C     3.23757  3.23757  0.00000 -0.47514
      11     H     0.42572  0.42572  0.00000  0.14855
      12     H     0.42234  0.42234  0.00000  0.15531
      13     H     0.42632  0.42632  0.00000  0.14736
      14     H     0.40504  0.40504  0.00000  0.18991
      15     H     0.42402  0.42402  0.00000  0.15196

   Total alpha = 21.00000, Total beta = 21.00000, Total charge = -0.00000
