  ==> Input File <==

--------------------------------------------------------------------------
set {
	reference rhf
	basis 6-31G*
}

set_num_threads( 1 )
memory 2 gb

molecule MOL {
0 1

H	 3.276176	 0.174363	 -0.109463
N	 2.434251	 -0.367735	 -0.081097
C	 1.267428	 0.496480	 0.024474
H	 2.501951	 -0.965776	 0.720575
C	 -0.016086	 -0.325158	 -0.029487
H	 1.288818	 1.183521	 -0.816092
H	 1.267576	 1.109062	 0.929528
C	 -1.282277	 0.529072	 0.046735
H	 -0.012495	 -0.908639	 -0.945788
H	 -0.015903	 -1.041248	 0.791956
C	 -2.426877	 -0.168833	 0.780575
H	 -1.604868	 0.785842	 -0.960236
H	 -1.057193	 1.470284	 0.544142
H	 -2.699607	 -1.097179	 0.287107
H	 -3.311710	 0.459042	 0.817514
H	 -2.148339	 -0.408565	 1.802909

	symmetry c1
}
set optking {
	frozen_dihedral = ("
		6 3 5 9,
		1 2 3 6
	")
}

ee = energy('scf')
oeprop('DIPOLE', 'QUADRUPOLE', 'MULLIKEN_CHARGES')
f=open( 'psi4out.xyz', 'w' )
f.write( "16  " )
f.write( str(ee) + "\n" )
f.write( MOL.save_string_xyz() )
f.close()
--------------------------------------------------------------------------

    Molecular point group: c1

    Geometry (in Angstrom), charge = 0, multiplicity = 1:

       Center              X                  Y                   Z               Mass
    ------------   -----------------  -----------------  -----------------  -----------------
           H          3.248018957353     0.147054279690    -0.271156907357     1.007825032070
           N          2.406093957353    -0.395043720310    -0.242790907357    14.003074004780
           C          1.239270957353     0.469171279690    -0.137219907357    12.000000000000
           H          2.473793957353    -0.993084720310     0.558881092643     1.007825032070
           C         -0.044243042647    -0.352466720310    -0.191180907357    12.000000000000
           H          1.260660957353     1.156212279690    -0.977785907357     1.007825032070
           H          1.239418957353     1.081753279690     0.767834092643     1.007825032070
           C         -1.310434042647     0.501763279690    -0.114958907357    12.000000000000
           H         -0.040652042647    -0.935947720310    -1.107481907357     1.007825032070
           H         -0.044060042647    -1.068556720310     0.630262092643     1.007825032070
           C         -2.455034042647    -0.196141720310     0.618881092643    12.000000000000
           H         -1.633025042647     0.758533279690    -1.121929907357     1.007825032070
           H         -1.085350042647     1.442975279690     0.382448092643     1.007825032070
           H         -2.727764042647    -1.124487720310     0.125413092643     1.007825032070
           H         -3.339867042647     0.431733279690     0.655820092643     1.007825032070
           H         -2.176496042647    -0.435873720310     1.641215092643     1.007825032070

  Charge       = 0
  Multiplicity = 1
  Basis Set: 6-31G*
  Basis Set:

    Orbital Energies (a.u.)
    -----------------------

    Doubly Occupied:

       1A    -15.532485     2A    -11.240237     3A    -11.214167
       4A    -11.208682     5A    -11.208368     6A     -1.176700
       7A     -1.059622     8A     -0.958339     9A     -0.844618
      10A     -0.791874    11A     -0.663115    12A     -0.638473
      13A     -0.597545    14A     -0.586273    15A     -0.562827
      16A     -0.519230    17A     -0.508869    18A     -0.469494
      19A     -0.461974    20A     -0.458837    21A     -0.381490

  @DF-RHF Final Energy:  -212.31380465480629

   => Energetics <=

    Nuclear Repulsion Energy =            186.5705099171946699
    One-Electron Energy =                -655.6022054898535316
    Two-Electron Energy =                 256.7178909178524577
    DFT Exchange-Correlation Energy =       0.0000000000000000
    Empirical Dispersion Energy =           0.0000000000000000
    PCM Polarization Energy =               0.0000000000000000
    EFP Energy =                            0.0000000000000000
    Total Energy =                       -212.3138046548064040

  Mulliken Charges: (a.u.)
   Center  Symbol    Alpha    Beta     Spin     Total
       1     H     0.33254  0.33254  0.00000  0.33492
       2     N     3.92190  3.92190  0.00000 -0.84381
       3     C     3.06233  3.06233  0.00000 -0.12465
       4     H     0.33527  0.33527  0.00000  0.32947
       5     C     3.15206  3.15206  0.00000 -0.30412
       6     H     0.42062  0.42062  0.00000  0.15877
       7     H     0.43442  0.43442  0.00000  0.13116
       8     C     3.15691  3.15691  0.00000 -0.31382
       9     H     0.41151  0.41151  0.00000  0.17699
      10     H     0.42678  0.42678  0.00000  0.14644
      11     C     3.23965  3.23965  0.00000 -0.47930
      12     H     0.41978  0.41978  0.00000  0.16044
      13     H     0.42301  0.42301  0.00000  0.15399
      14     H     0.42060  0.42060  0.00000  0.15880
      15     H     0.42029  0.42029  0.00000  0.15942
      16     H     0.42234  0.42234  0.00000  0.15531

   Total alpha = 21.00000, Total beta = 21.00000, Total charge = -0.00000
