                              Psi4 1.0.54 Driver

  ==> Input File <==

--------------------------------------------------------------------------
set {
	reference rhf
	basis cc-pvtz
}

set_num_threads( 4 )
memory 2 gb

molecule MOL {
0 1

H	 -3.162190	 0.493205	 -0.000107
C	 -2.363908	 -0.234727	 0.000005
O	 -1.158738	 0.454634	 -0.000087
H	 -2.464314	 -0.863616	 -0.882153
H	 -2.464327	 -0.863359	 0.882345
C	 -0.028611	 -0.359694	 0.000037
C	 1.212847	 0.509314	 -0.000053
H	 -0.034155	 -1.007047	 -0.877198
H	 -0.034195	 -1.006836	 0.877430
C	 1.324896	 1.364544	 -1.257183
H	 1.192253	 1.141171	 0.881002
H	 2.082774	 -0.131149	 0.094739
H	 0.475046	 2.031254	 -1.358863
H	 2.219421	 1.974588	 -1.230879
H	 1.371819	 0.750437	 -2.150346

	symmetry c1
}
set optking {
	frozen_dihedral = ("
		11 7 6 8
	")
}

ee,wfn = optimize('scf', return_wfn=True)
oeprop( wfn, 'DIPOLE', 'QUADRUPOLE', 'MULLIKEN_CHARGES')
f=open( 'psi4out.xyz', 'w' )
f.write( "15  " )
f.write( str(ee) + "\n" )
f.write( MOL.save_string_xyz() )
f.close()
--------------------------------------------------------------------------

    Molecular point group: c1
  Charge       = 0
  Multiplicity = 1
  Basis Set: CC-PVTZ
  Basis Set:
  @DF-RHF Final Energy:  -232.22808696832834
    Total Energy =                       -232.2280869683283413
    Molecular point group: c1
  Basis Set: CC-PVTZ
  Basis Set:
  Basis Set: CC-PVTZ
  Basis Set:
  @DF-RHF Final Energy:  -232.22818319721665
    Total Energy =                       -232.2281831972164241
  Basis Set: CC-PVTZ
  Basis Set:
  Basis Set: CC-PVTZ
  Basis Set:
  @DF-RHF Final Energy:  -232.22819357817468
    Total Energy =                       -232.2281935781748530
  Basis Set: CC-PVTZ
  Basis Set:
  Charge       = 0
  Multiplicity = 1
  Basis Set: CC-PVTZ
  Basis Set:

    Orbital Energies (a.u.)
    -----------------------

    Doubly Occupied:

       1A    -20.548128     2A    -11.264822     3A    -11.262331
       4A    -11.213633     5A    -11.202174     6A     -1.382419
       7A     -1.055352     8A     -0.951588     9A     -0.886763
      10A     -0.799726    11A     -0.671965    12A     -0.663581
      13A     -0.634780    14A     -0.592469    15A     -0.567451
      16A     -0.546537    17A     -0.500916    18A     -0.484490
      19A     -0.479499    20A     -0.460641    21A     -0.416260

  @DF-RHF Final Energy:  -232.22819389457504

   => Energetics <=

    Nuclear Repulsion Energy =            192.9891915155342303
    One-Electron Energy =                -697.2637153630623743
    Two-Electron Energy =                 272.0463299529531014
    DFT Exchange-Correlation Energy =       0.0000000000000000
    Empirical Dispersion Energy =           0.0000000000000000
    PCM Polarization Energy =               0.0000000000000000
    EFP Energy =                            0.0000000000000000
    Total Energy =                       -232.2281938945750426
    Molecular point group: c1
  Basis Set: CC-PVTZ
  Basis Set:

  -Total Gradient:
     Atom            X                  Y                   Z
    ------   -----------------  -----------------  -----------------
       1       -0.000006969831    -0.000006835828    -0.000001453819
       2       -0.000034391191     0.000000462439     0.000011769796
       3        0.000042461350    -0.000046517721     0.000010296803
       4        0.000006215492     0.000005348221     0.000003751707
       5       -0.000003861039    -0.000000608509    -0.000005443429
       6       -0.000013997917     0.000047263844    -0.000042389417
       7        0.000034717150     0.000025609446     0.000026342963
       8       -0.000010475261    -0.000014602187    -0.000007464031
       9       -0.000003069201     0.000022864959    -0.000002070256
      10       -0.000027846201    -0.000003633032    -0.000006730318
      11       -0.000000169144    -0.000002191250     0.000005591926
      12        0.000011301956    -0.000006950665     0.000004052700
      13        0.000005940073     0.000004276138     0.000004321859
      14       -0.000006228044    -0.000018028324     0.000010902509
      15        0.000006371806    -0.000006457529    -0.000011478994

  **** Optimization is complete! (in 4 steps) ****
    Final optimized geometry and variables:
    Molecular point group: c1

    Geometry (in Angstrom), charge = 0, multiplicity = 1:

    H           -2.934832202796     0.135273574360     0.270198765297
    C           -2.130802395032    -0.586378305301     0.258465153720
    O           -0.930680280204     0.111151297011     0.264432028037
    H           -2.228847944927    -1.204410018034    -0.631583012240
    H           -2.224092246707    -1.227547881420     1.132647081421
    C            0.206286699593    -0.695342914064     0.254969751500
    C            1.448251563125     0.174980964118     0.245231469460
    H            0.195084470400    -1.344026834526    -0.621621423395
    H            0.211022260996    -1.338690110967     1.133945234678
    C            1.581219414033     1.033807169000    -1.007778075738
    H            1.431920257820     0.807593359326     1.126446656272
    H            2.312847869784    -0.475578658015     0.339759650457
    H            0.736849390829     1.702241964025    -1.110323567862
    H            2.483907002097     1.632591020695    -0.970538015486
    H            1.630199324812     0.416903603802    -1.899529200079

  Mulliken Charges: (a.u.)
   Center  Symbol    Alpha    Beta     Spin     Total
       1     H     0.44723  0.44723  0.00000  0.10555
       2     C     3.03195  3.03195  0.00000 -0.06390
       3     O     4.17503  4.17503  0.00000 -0.35005
       4     H     0.47205  0.47205  0.00000  0.05590
       5     H     0.47147  0.47147  0.00000  0.05706
       6     C     2.97111  2.97111  0.00000  0.05778
       7     C     3.08012  3.08012  0.00000 -0.16024
       8     H     0.47348  0.47348  0.00000  0.05305
       9     H     0.46551  0.46551  0.00000  0.06898
      10     C     3.14925  3.14925  0.00000 -0.29850
      11     H     0.45260  0.45260  0.00000  0.09480
      12     H     0.45553  0.45553  0.00000  0.08895
      13     H     0.44544  0.44544  0.00000  0.10911
      14     H     0.45056  0.45056  0.00000  0.09888
      15     H     0.45868  0.45868  0.00000  0.08265

   Total alpha = 21.00000, Total beta = 21.00000, Total charge = -0.00000

*** Psi4 exiting successfully. Buy a developer a beer!
