  ==> Input File <==

--------------------------------------------------------------------------
set {
	reference rhf
	basis 6-31G*
}

set_num_threads( 4 )
memory 2 gb

molecule MOL {
0 1

H	 -1.079736	 -0.922731	 0.032078
N	 -0.712432	 0.000013	 -0.096310
C	 0.734192	 -0.000004	 0.040609
H	 -1.133752	 0.580333	 0.602672
H	 1.139899	 -0.873598	 -0.456463
H	 1.139939	 0.873831	 -0.456100
H	 1.096456	 -0.000300	 1.069655

	symmetry c1
}
set optking {
	frozen_dihedral = ("
		1 2 3 7
	")
}

ee = optimize('scf')
oeprop('DIPOLE', 'QUADRUPOLE', 'MULLIKEN_CHARGES')
f=open( 'psi4out.xyz', 'w' )
f.write( "7  " )
f.write( str(ee) + "\n" )
f.write( MOL.save_string_xyz() )
f.close()
--------------------------------------------------------------------------

    Molecular point group: c1
  Charge       = 0
  Multiplicity = 1
  Basis Set: 6-31G*
  Basis Set:
  @DF-RHF Final Energy:   -95.20873363054932
    Total Energy =                        -95.2087336305493750
    Molecular point group: c1
  Basis Set: 6-31G*
  Basis Set:
  Basis Set: 6-31G*
  Basis Set:
  @DF-RHF Final Energy:   -95.20882157696893
    Total Energy =                        -95.2088215769689299
  Basis Set: 6-31G*
  Basis Set:
  Charge       = 0
  Multiplicity = 1
  Basis Set: 6-31G*
  Basis Set:

    Orbital Energies (a.u.)
    -----------------------

    Doubly Occupied:

       1A    -15.533260     2A    -11.237284     3A     -1.169050
       4A     -0.896596     5A     -0.665917     6A     -0.600733
       7A     -0.557831     8A     -0.519013     9A     -0.380405

  @DF-RHF Final Energy:   -95.20883594450508

   => Energetics <=

    Nuclear Repulsion Energy =             42.3173908457469992
    One-Electron Energy =                -211.9322776767540120
    Two-Electron Energy =                  74.4060508865018733
    DFT Exchange-Correlation Energy =       0.0000000000000000
    Empirical Dispersion Energy =           0.0000000000000000
    PCM Polarization Energy =               0.0000000000000000
    EFP Energy =                            0.0000000000000000
    Total Energy =                        -95.2088359445051537
    Molecular point group: c1
  Basis Set: 6-31G*
  Basis Set:

  -Total Gradient:
     Atom            X                  Y                   Z
    ------   -----------------  -----------------  -----------------
       1        0.000242017897    -0.000590963417    -0.002675254320
       2       -0.000586033816     0.001374713901     0.003256245133
       3        0.000494999815    -0.003440469605    -0.000585819503
       4        0.000042922526     0.000078286104     0.000044910489
       5       -0.000092193714     0.000000009531    -0.000012827398
       6       -0.000010033394    -0.000009494192     0.000041128877
       7       -0.000091679314     0.002587917678    -0.000068383278

  **** Optimization is complete! (in 3 steps) ****
    Final optimized geometry and variables:
    Molecular point group: c1

    Geometry (in Angstrom), charge = 0, multiplicity = 1:

    H           -1.085028884155    -0.911641858519     0.040546235602
    N           -0.713158405315     0.007819292719    -0.088151125969
    C            0.735263080231     0.011740621058     0.037951467106
    H           -1.142837481008     0.611183525607     0.583973385496
    H            1.143400376622    -0.853413162373    -0.470299807794
    H            1.139503258894     0.894034881354    -0.446870759257
    H            1.099183876151     0.011399058464     1.065571949599

  Mulliken Charges: (a.u.)
   Center  Symbol    Alpha    Beta     Spin     Total
       1     H     0.33264  0.33264  0.00000  0.33473
       2     N     3.92074  3.92074  0.00000 -0.84148
       3     C     3.14606  3.14606  0.00000 -0.29212
       4     H     0.33242  0.33242  0.00000  0.33515
       5     H     0.41890  0.41890  0.00000  0.16220
       6     H     0.41683  0.41683  0.00000  0.16633
       7     H     0.43241  0.43241  0.00000  0.13519

   Total alpha =  9.00000, Total beta =  9.00000, Total charge =  0.00000
