                              Psi4 1.0.54 Driver

  ==> Input File <==

--------------------------------------------------------------------------
set {
	reference rhf
	basis cc-pvtz
}

set_num_threads( 4 )
memory 2 gb

molecule MOL {
0 1

O	 -2.071633	 -1.227563	 -0.223463
C	 -1.652164	 -0.152425	 0.058082
C	 -0.327811	 0.006324	 0.778296
C	 -2.402515	 1.108629	 -0.298924
C	 0.531604	 -1.255857	 0.637832
H	 0.211269	 0.863467	 0.388650
H	 -0.542989	 0.185399	 1.823986
C	 1.867949	 -1.142628	 1.365562
H	 0.713872	 -1.461647	 -0.413892
H	 -0.026184	 -2.100699	 1.027035
C	 2.720760	 -2.400364	 1.239164
H	 2.419513	 -0.291417	 0.976021
H	 1.685222	 -0.934025	 2.415626
H	 2.950011	 -2.615861	 0.200877
H	 2.207697	 -3.263272	 1.649681
H	 3.659779	 -2.290647	 1.768886
H	 -3.240910	 0.874416	 -0.936711
H	 -1.747554	 1.818823	 -0.790984
H	 -2.760419	 1.579708	 0.610998

	symmetry c1
}
set optking {
	frozen_dihedral = ("
		5 3 2 4
	")
}

ee,wfn = optimize('scf', return_wfn=True)
oeprop( wfn, 'DIPOLE', 'QUADRUPOLE', 'MULLIKEN_CHARGES')
f=open( 'psi4out.xyz', 'w' )
f.write( "19  " )
f.write( str(ee) + "\n" )
f.write( MOL.save_string_xyz() )
f.close()
--------------------------------------------------------------------------

    Molecular point group: c1
  Charge       = 0
  Multiplicity = 1
  Basis Set: CC-PVTZ
  Basis Set:
  @DF-RHF Final Energy:  -309.17741325646159
    Total Energy =                       -309.1774132564615911
    Molecular point group: c1
  Basis Set: CC-PVTZ
  Basis Set:
  Basis Set: CC-PVTZ
  Basis Set:
  @DF-RHF Final Energy:  -308.91649899179828
    Total Energy =                       -308.9164989917983348
  Basis Set: CC-PVTZ
  Basis Set:
  Basis Set: CC-PVTZ
  Basis Set:
  @DF-RHF Final Energy:  -309.06981307613046
    Total Energy =                       -309.0698130761308562
  Basis Set: CC-PVTZ
  Basis Set:
  Basis Set: CC-PVTZ
  Basis Set:
  @DF-RHF Final Energy:  -309.16540673595858
    Total Energy =                       -309.1654067359587543
  Basis Set: CC-PVTZ
  Basis Set:
  @DF-RHF Final Energy:  -309.17733215056336
    Total Energy =                       -309.1773321505633021
  @DF-RHF Final Energy:  -309.17808444176092
    Total Energy =                       -309.1780844417610297
  @DF-RHF Final Energy:  -309.17716524373566
    Total Energy =                       -309.1771652437357147
  @DF-RHF Final Energy:  -309.17857862013130
    Total Energy =                       -309.1785786201313044
  @DF-RHF Final Energy:  -309.17865948476242
    Total Energy =                       -309.1786594847624769
  @DF-RHF Final Energy:  -309.17868498710197
    Total Energy =                       -309.1786849871018035
  Basis Set: CC-PVTZ
  Basis Set:
  @DF-RHF Final Energy:  -309.17873137727759
    Total Energy =                       -309.1787313772778134
  Basis Set: CC-PVTZ
  Basis Set:
  Basis Set: CC-PVTZ
  Basis Set:
  @DF-RHF Final Energy:  -309.17873630815160
    Total Energy =                       -309.1787363081513149
  Basis Set: CC-PVTZ
  Basis Set:
  Basis Set: CC-PVTZ
  Basis Set:
  @DF-RHF Final Energy:  -309.17873621484080
    Total Energy =                       -309.1787362148407396
  Basis Set: CC-PVTZ
  Basis Set:
  Charge       = 0
  Multiplicity = 1
  Basis Set: CC-PVTZ
  Basis Set:

    Orbital Energies (a.u.)
    -----------------------

    Doubly Occupied:

       1A    -20.538365     2A    -11.320862     3A    -11.230413
       4A    -11.227123     5A    -11.218133     6A    -11.216296
       7A    -11.208576     8A     -1.398782     9A     -1.087565
      10A     -1.030926    11A     -0.984730    12A     -0.887369
      13A     -0.802295    14A     -0.732136    15A     -0.658953
      16A     -0.651920    17A     -0.628023    18A     -0.612745
      19A     -0.582585    20A     -0.571481    21A     -0.555532
      22A     -0.531286    23A     -0.513157    24A     -0.490498
      25A     -0.477007    26A     -0.474797    27A     -0.469599
      28A     -0.401735

  @DF-RHF Final Energy:  -309.17873755538778

   => Energetics <=

    Nuclear Repulsion Energy =            301.3496632290365369
    One-Electron Energy =               -1016.0510191597954872
    Two-Electron Energy =                 405.5226183753712235
    DFT Exchange-Correlation Energy =       0.0000000000000000
    Empirical Dispersion Energy =           0.0000000000000000
    PCM Polarization Energy =               0.0000000000000000
    EFP Energy =                            0.0000000000000000
    Total Energy =                       -309.1787375553877268
    Molecular point group: c1
  Basis Set: CC-PVTZ
  Basis Set:

  -Total Gradient:
     Atom            X                  Y                   Z
    ------   -----------------  -----------------  -----------------
       1       -0.000003300587    -0.000003136443     0.000000123028
       2        0.000006919493     0.000444967571     0.000859081820
       3        0.000092620854    -0.000131823090     0.000857300556
       4       -0.000026730535    -0.000310972116    -0.000838287585
       5       -0.000069940434     0.000010902597    -0.000873023253
       6       -0.000001710479    -0.000001207851    -0.000001740142
       7        0.000000011009    -0.000000053656     0.000001674254
       8        0.000009629008    -0.000008800576    -0.000005596554
       9        0.000002494967     0.000001095609     0.000000258817
      10       -0.000006310448    -0.000006819157     0.000007108009
      11       -0.000010598764     0.000009138817    -0.000002285323
      12        0.000004530313     0.000004956103    -0.000004006715
      13       -0.000001648303     0.000002553907     0.000003461808
      14       -0.000000760205    -0.000003700860    -0.000002730246
      15       -0.000000724208    -0.000002110148     0.000003040095
      16        0.000007968256     0.000000458354     0.000000338357
      17       -0.000009376364     0.000003174624    -0.000001440999
      18        0.000001502323    -0.000004246195    -0.000006789894
      19        0.000005424100    -0.000004377489     0.000003513968

  **** Optimization is complete! (in 14 steps) ****
    Final optimized geometry and variables:
    Molecular point group: c1

    Geometry (in Angstrom), charge = 0, multiplicity = 1:

    O           -2.058666954782    -0.361378518550     0.491923334292
    C           -1.524073808707     0.628918684814     0.113080340898
    C           -0.015962034933     0.743847654509     0.010398713498
    C           -2.318565329215     1.846893950179    -0.297103196293
    C            0.712368053457    -0.592798178090    -0.039122188333
    H            0.228710753144     1.349160236311    -0.857714317895
    H            0.308152413461     1.324117430195     0.872806716886
    C            2.228643346406    -0.434819628213    -0.106819158164
    H            0.365457446045    -1.154686159771    -0.900790415389
    H            0.440414568161    -1.178445082598     0.830312265862
    C            2.961442653987    -1.770833948233    -0.164205766587
    H            2.494278810577     0.158300278267    -0.978134224310
    H            2.571545059548     0.126229097289     0.758637391376
    H            2.666117916042    -2.341249021922    -1.038376329895
    H            2.743329575302    -2.373445981018     0.710849381847
    H            4.034936695044    -1.627995107954    -0.209293330316
    H           -3.352240805843     1.728510388198    -0.010393646206
    H           -2.255830103845     1.963998489056    -1.374176122200
    H           -1.908139926115     2.745586903320     0.149273790218

  Mulliken Charges: (a.u.)
   Center  Symbol    Alpha    Beta     Spin     Total
       1     O     4.17215  4.17215  0.00000 -0.34430
       2     C     2.86128  2.86128  0.00000  0.27744
       3     C     3.11223  3.11223  0.00000 -0.22446
       4     C     3.15220  3.15220  0.00000 -0.30439
       5     C     3.08230  3.08230  0.00000 -0.16461
       6     H     0.44570  0.44570  0.00000  0.10860
       7     H     0.44423  0.44423  0.00000  0.11153
       8     C     3.08496  3.08496  0.00000 -0.16993
       9     H     0.45082  0.45082  0.00000  0.09835
      10     H     0.44175  0.44175  0.00000  0.11649
      11     C     3.14952  3.14952  0.00000 -0.29904
      12     H     0.45614  0.45614  0.00000  0.08772
      13     H     0.45512  0.45512  0.00000  0.08976
      14     H     0.45434  0.45434  0.00000  0.09133
      15     H     0.45333  0.45333  0.00000  0.09334
      16     H     0.44865  0.44865  0.00000  0.10269
      17     H     0.43590  0.43590  0.00000  0.12820
      18     H     0.44879  0.44879  0.00000  0.10241
      19     H     0.45057  0.45057  0.00000  0.09886

   Total alpha = 28.00000, Total beta = 28.00000, Total charge =  0.00000

*** Psi4 exiting successfully. Buy a developer a beer!
