  ==> Input File <==

--------------------------------------------------------------------------
set {
	reference rhf
	basis 6-31G*
}

set_num_threads( 4 )
memory 2 gb

molecule MOL {
0 1

H	 -2.172150	 0.880146	 0.502514
C	 -2.018062	 -0.000025	 -0.114509
O	 -0.774054	 0.001095	 -0.743181
H	 -2.760490	 0.003458	 -0.901350
H	 -2.173624	 -0.884374	 0.496163
C	 0.196149	 -0.964959	 -0.379892
C	 1.386640	 -0.636612	 -1.278185
C	 0.596456	 -0.819721	 1.091791
C	 -0.301533	 -2.384546	 -0.670067
H	 1.724645	 0.376977	 -1.094276
H	 1.099360	 -0.711584	 -2.320885
H	 2.212861	 -1.316260	 -1.096252
H	 0.878982	 0.205923	 1.304540
H	 1.443033	 -1.460474	 1.316166
H	 -0.207820	 -1.098499	 1.764085
H	 -0.649430	 -2.458336	 -1.695042
H	 0.501831	 -3.100464	 -0.530064
H	 -1.113368	 -2.676020	 -0.012345

	symmetry c1
}
set optking {
	frozen_dihedral = ("
		6 3 2 5
	")
}

ee = optimize('scf')
oeprop('DIPOLE', 'QUADRUPOLE', 'MULLIKEN_CHARGES')
f=open( 'psi4out.xyz', 'w' )
f.write( "18  " )
f.write( str(ee) + "\n" )
f.write( MOL.save_string_xyz() )
f.close()
--------------------------------------------------------------------------

    Molecular point group: c1
  Charge       = 0
  Multiplicity = 1
  Basis Set: 6-31G*
  Basis Set:
  @DF-RHF Final Energy:  -271.17264495514900
    Total Energy =                       -271.1726449551491669
    Molecular point group: c1
  Basis Set: 6-31G*
  Basis Set:
  Basis Set: 6-31G*
  Basis Set:
  @DF-RHF Final Energy:  -271.17252445082943
    Total Energy =                       -271.1725244508293144
  Basis Set: 6-31G*
  Basis Set:
  Basis Set: 6-31G*
  Basis Set:
  @DF-RHF Final Energy:  -271.17270484662936
    Total Energy =                       -271.1727048466293013
  Basis Set: 6-31G*
  Basis Set:
  Basis Set: 6-31G*
  Basis Set:
  @DF-RHF Final Energy:  -271.17329726859185
    Total Energy =                       -271.1732972685918526
  Basis Set: 6-31G*
  Basis Set:
  Basis Set: 6-31G*
  Basis Set:
  @DF-RHF Final Energy:  -271.17332190890016
    Total Energy =                       -271.1733219088999931
  Basis Set: 6-31G*
  Basis Set:
  Basis Set: 6-31G*
  Basis Set:
  @DF-RHF Final Energy:  -271.17332073874201
    Total Energy =                       -271.1733207387421771
  Basis Set: 6-31G*
  Basis Set:
  Basis Set: 6-31G*
  Basis Set:
  @DF-RHF Final Energy:  -271.17332769055668
    Total Energy =                       -271.1733276905566754
  Basis Set: 6-31G*
  Basis Set:
  Charge       = 0
  Multiplicity = 1
  Basis Set: 6-31G*
  Basis Set:

    Orbital Energies (a.u.)
    -----------------------

    Doubly Occupied:

       1A    -20.544373     2A    -11.281978     3A    -11.260955
       4A    -11.208906     5A    -11.208378     6A    -11.203211
       7A     -1.367756     8A     -1.072538     9A     -0.945624
      10A     -0.939932    11A     -0.912828    12A     -0.752658
      13A     -0.655024    14A     -0.643185    15A     -0.638552
      16A     -0.590079    17A     -0.570994    18A     -0.551912
      19A     -0.538668    20A     -0.523730    21A     -0.514931
      22A     -0.490044    23A     -0.487171    24A     -0.437693
      25A     -0.400964

  @DF-RHF Final Energy:  -271.17332753457299

   => Energetics <=

    Nuclear Repulsion Energy =            272.1396548503201984
    One-Electron Energy =                -907.1417950850348006
    Two-Electron Energy =                 363.8288127001417820
    DFT Exchange-Correlation Energy =       0.0000000000000000
    Empirical Dispersion Energy =           0.0000000000000000
    PCM Polarization Energy =               0.0000000000000000
    EFP Energy =                            0.0000000000000000
    Total Energy =                       -271.1733275345728202
    Molecular point group: c1
  Basis Set: 6-31G*
  Basis Set:

  -Total Gradient:
     Atom            X                  Y                   Z
    ------   -----------------  -----------------  -----------------
       1       -0.000012188661    -0.000007340930     0.000000119818
       2       -0.000750363028    -0.001015358449    -0.001415982911
       3        0.000639748143     0.001030871483     0.001173835221
       4        0.000003378525     0.000003200483     0.000001117564
       5        0.000460881572     0.000538346140     0.000850126736
       6       -0.000320819477    -0.000577060679    -0.000624792617
       7        0.000008038615     0.000000872182    -0.000008488617
       8       -0.000044188550     0.000006850690     0.000017926452
       9        0.000017590028     0.000002869687     0.000006335226
      10        0.000004838910    -0.000000181123     0.000011518733
      11        0.000005698675     0.000014649459    -0.000001087383
      12       -0.000003965742    -0.000005735825    -0.000010459029
      13        0.000025387067     0.000002338409    -0.000016523433
      14       -0.000021774432    -0.000004437807    -0.000016615518
      15       -0.000006064792     0.000008275927     0.000027046408
      16       -0.000013495586    -0.000001204598     0.000007440808
      17        0.000003471141    -0.000011803847    -0.000009237707
      18        0.000003827590     0.000014848797     0.000007720251

  **** Optimization is complete! (in 8 steps) ****
    Final optimized geometry and variables:
    Molecular point group: c1

    Geometry (in Angstrom), charge = 0, multiplicity = 1:

    H           -1.926294490628     1.700395032087     0.850853326922
    C           -1.846751545562     0.801527654663     0.246985510779
    O           -0.612820871153     0.774527427391    -0.408783287652
    H           -2.635915401545     0.815058737125    -0.495846443521
    H           -2.004358551904    -0.050252339289     0.896740004829
    C            0.371078094963    -0.173854510973    -0.038438540801
    C            1.562925173491     0.169662473360    -0.928926761553
    C            0.758041118172    -0.015339020148     1.435284333352
    C           -0.105858061377    -1.599116855049    -0.335540553158
    H            1.888306340387     1.186724017932    -0.742065426692
    H            1.283317545620     0.092064287461    -1.973451867153
    H            2.395554728780    -0.500954751615    -0.742116951988
    H            1.063568232052     1.006582890650     1.633271236332
    H            1.584385043460    -0.673149022014     1.684732615550
    H           -0.063735411167    -0.258175153492     2.100735578394
    H           -0.413532754291    -1.679675718987    -1.372529511281
    H            0.693520583278    -2.311763223877    -0.159286723355
    H           -0.943227170187    -1.889856161643     0.289629562479

  Mulliken Charges: (a.u.)
   Center  Symbol    Alpha    Beta     Spin     Total
       1     H     0.42297  0.42297  0.00000  0.15406
       2     C     3.07659  3.07659  0.00000 -0.15317
       3     O     4.32198  4.32198  0.00000 -0.64397
       4     H     0.41852  0.41852  0.00000  0.16295
       5     H     0.42981  0.42981  0.00000  0.14038
       6     C     2.84409  2.84409  0.00000  0.31181
       7     C     3.23301  3.23301  0.00000 -0.46603
       8     C     3.24573  3.24573  0.00000 -0.49146
       9     C     3.24444  3.24444  0.00000 -0.48887
      10     H     0.41425  0.41425  0.00000  0.17149
      11     H     0.41394  0.41394  0.00000  0.17212
      12     H     0.42509  0.42509  0.00000  0.14983
      13     H     0.41364  0.41364  0.00000  0.17273
      14     H     0.41995  0.41995  0.00000  0.16010
      15     H     0.42095  0.42095  0.00000  0.15811
      16     H     0.41346  0.41346  0.00000  0.17307
      17     H     0.42059  0.42059  0.00000  0.15881
      18     H     0.42099  0.42099  0.00000  0.15801

   Total alpha = 25.00000, Total beta = 25.00000, Total charge = -0.00000
