  ==> Input File <==

--------------------------------------------------------------------------
set {
	reference rhf
	basis 6-31G*
}

set_num_threads( 4 )
memory 2 gb

molecule MOL {
0 1

H	 -3.046089	 -0.475785	 0.222657
C	 -2.889350	 0.313258	 -0.510136
O	 -1.544487	 0.438611	 -0.843253
H	 -3.427300	 0.063269	 -1.414159
H	 -3.290822	 1.242439	 -0.107804
C	 -0.719715	 0.768384	 0.229244
C	 0.719720	 0.768376	 -0.229267
H	 -0.974110	 1.757715	 0.611610
H	 -0.837208	 0.054260	 1.041787
O	 1.392611	 -0.295398	 0.366430
H	 0.750534	 0.687200	 -1.313918
H	 1.185043	 1.714359	 0.050526
C	 2.706965	 -0.449871	 -0.062409
H	 2.756559	 -0.644779	 -1.131878
H	 3.305899	 0.433456	 0.155466
H	 3.125548	 -1.294566	 0.467107

	symmetry c1
}
set optking {
	frozen_dihedral = ("
		3 6 7 11
	")
}

ee = optimize('scf')
oeprop('DIPOLE', 'QUADRUPOLE', 'MULLIKEN_CHARGES')
f=open( 'psi4out.xyz', 'w' )
f.write( "16  " )
f.write( str(ee) + "\n" )
f.write( MOL.save_string_xyz() )
f.close()
--------------------------------------------------------------------------

    Molecular point group: c1
  Charge       = 0
  Multiplicity = 1
  Basis Set: 6-31G*
  Basis Set:
  @DF-RHF Final Energy:  -306.97378664394495
    Total Energy =                       -306.9737866439449476
    Molecular point group: c1
  Basis Set: 6-31G*
  Basis Set:
  Basis Set: 6-31G*
  Basis Set:
  @DF-RHF Final Energy:  -306.97416744955217
    Total Energy =                       -306.9741674495521124
  Basis Set: 6-31G*
  Basis Set:
  Basis Set: 6-31G*
  Basis Set:
  @DF-RHF Final Energy:  -306.97424689913311
    Total Energy =                       -306.9742468991330497
  Basis Set: 6-31G*
  Basis Set:
  Charge       = 0
  Multiplicity = 1
  Basis Set: 6-31G*
  Basis Set:

    Orbital Energies (a.u.)
    -----------------------

    Doubly Occupied:

       1A    -20.555909     2A    -20.555526     3A    -11.268102
       4A    -11.267485     5A    -11.264887     6A    -11.264717
       7A     -1.386745     8A     -1.373582     9A     -1.027622
      10A     -0.938426    11A     -0.886737    12A     -0.830142
      13A     -0.684531    14A     -0.678559    15A     -0.656406
      16A     -0.639948    17A     -0.628533    18A     -0.598665
      19A     -0.552087    20A     -0.532680    21A     -0.508042
      22A     -0.479747    23A     -0.464911    24A     -0.421062
      25A     -0.410869

  @DF-RHF Final Energy:  -306.97424987594309

   => Energetics <=

    Nuclear Repulsion Energy =            255.9219117031673250
    One-Electron Energy =                -926.0404812577160101
    Two-Electron Energy =                 363.1443196786054841
    DFT Exchange-Correlation Energy =       0.0000000000000000
    Empirical Dispersion Energy =           0.0000000000000000
    PCM Polarization Energy =               0.0000000000000000
    EFP Energy =                            0.0000000000000000
    Total Energy =                       -306.9742498759432010
    Molecular point group: c1
  Basis Set: 6-31G*
  Basis Set:

  -Total Gradient:
     Atom            X                  Y                   Z
    ------   -----------------  -----------------  -----------------
       1       -0.000006908509     0.000011062879    -0.000000913425
       2       -0.000034800950    -0.000028931622    -0.000067819801
       3       -0.000019167045     0.001374939436    -0.000209444952
       4       -0.000042679545    -0.000003807942     0.000013655954
       5        0.000004283739    -0.000002170958     0.000008339866
       6        0.000049796850    -0.002106595471     0.000380334807
       7        0.000021975543     0.002419367582    -0.000224966361
       8       -0.000016019017     0.000006105618     0.000030932875
       9        0.000001757164    -0.000017345419    -0.000003094890
      10       -0.000064425029     0.000164495410    -0.000046547893
      11        0.000035829564    -0.001749742487     0.000113733296
      12       -0.000000589311    -0.000005027094    -0.000006886855
      13        0.000038329267    -0.000072252157     0.000027489933
      14        0.000009791486     0.000007203149     0.000003381101
      15       -0.000008752281     0.000000791012    -0.000004651388
      16        0.000031578071     0.000001908065    -0.000013542266

  **** Optimization is complete! (in 4 steps) ****
    Final optimized geometry and variables:
    Molecular point group: c1

    Geometry (in Angstrom), charge = 0, multiplicity = 1:

    H           -3.018503108239    -0.686179232916     0.426714948807
    C           -2.844309304781     0.077638201329    -0.328608529558
    O           -1.495871953120     0.168568935103    -0.659989272729
    H           -3.384634244403    -0.188013366188    -1.226822593867
    H           -3.228074013145     1.025582166231     0.045488328670
    C           -0.669189974211     0.514239352061     0.411926227666
    C            0.781734022513     0.520056680631    -0.056848242787
    H           -0.955699003685     1.495138490184     0.789157227721
    H           -0.770214151194    -0.198695427088     1.225136667194
    O            1.453736861195    -0.558082147117     0.526735040062
    H            0.795868305224     0.429743766026    -1.139229550738
    H            1.275731983761     1.451047262052     0.216153610470
    C            2.777665645609    -0.687691496056     0.118715068388
    H            2.849825351389    -0.849148612524    -0.955137318438
    H            3.362471899471     0.194712166291     0.374078126242
    H            3.195413396482    -1.543715475877     0.630614675251

  Mulliken Charges: (a.u.)
   Center  Symbol    Alpha    Beta     Spin     Total
       1     H     0.42793  0.42793  0.00000  0.14414
       2     C     3.08041  3.08041  0.00000 -0.16082
       3     O     4.30638  4.30638  0.00000 -0.61275
       4     H     0.41160  0.41160  0.00000  0.17680
       5     H     0.43078  0.43078  0.00000  0.13843
       6     C     2.99909  2.99909  0.00000  0.00182
       7     C     2.99945  2.99945  0.00000  0.00110
       8     H     0.43037  0.43037  0.00000  0.13926
       9     H     0.41332  0.41332  0.00000  0.17336
      10     O     4.30669  4.30669  0.00000 -0.61339
      11     H     0.41326  0.41326  0.00000  0.17347
      12     H     0.42975  0.42975  0.00000  0.14050
      13     C     3.08033  3.08033  0.00000 -0.16067
      14     H     0.42811  0.42811  0.00000  0.14378
      15     H     0.43087  0.43087  0.00000  0.13826
      16     H     0.41165  0.41165  0.00000  0.17670

   Total alpha = 25.00000, Total beta = 25.00000, Total charge = -0.00000
