  ==> Input File <==

--------------------------------------------------------------------------
set {
	reference rhf
	basis cc-pvtz
}

set_num_threads( 4 )
memory 2 gb

molecule MOL {
0 1

O	 2.381825	 2.105639	 0.210937
C	 1.342044	 2.483858	 0.642118
C	 0.094543	 1.624162	 0.619875
C	 1.194312	 3.861558	 1.247381
C	 0.288398	 0.247429	 0.000314
H	 -0.262778	 1.539264	 1.643682
H	 -0.676539	 2.179750	 0.090952
C	 -0.993089	 -0.581367	 -0.000217
H	 1.067342	 -0.278837	 0.540134
H	 0.653355	 0.362258	 -1.013961
C	 -2.258482	 0.271340	 0.000669
H	 -1.002280	 -1.233920	 -0.870484
H	 -1.002061	 -1.235367	 0.868958
C	 -3.544441	 -0.550271	 -0.000253
H	 -2.250545	 0.925250	 -0.867923
H	 -2.250598	 0.923423	 0.870642
C	 -4.804551	 0.308747	 0.000556
H	 -3.553737	 -1.201524	 -0.870151
H	 -3.553831	 -1.203282	 0.868313
H	 -4.842050	 0.949078	 -0.874436
H	 -5.698404	 -0.304480	 -0.000254
H	 -4.842277	 0.947103	 0.876982
H	 0.859235	 3.784340	 2.275879
H	 2.139610	 4.380683	 1.211160
H	 0.445176	 4.429152	 0.706388

	symmetry c1
}
set optking {
	frozen_dihedral = ("
		9 5 8 12
	")
}

ee = optimize('scf')
oeprop('DIPOLE', 'QUADRUPOLE', 'MULLIKEN_CHARGES')
f=open( 'psi4out.xyz', 'w' )
f.write( "25  " )
f.write( str(ee) + "\n" )
f.write( MOL.save_string_xyz() )
f.close()
--------------------------------------------------------------------------

    Molecular point group: c1
  Charge       = 0
  Multiplicity = 1
  Basis Set: CC-PVTZ
  Basis Set:
  @DF-RHF Final Energy:  -387.26421845707353
    Total Energy =                       -387.2642184570745485
    Molecular point group: c1
  Basis Set: CC-PVTZ
  Basis Set:
  Basis Set: CC-PVTZ
  Basis Set:
  @DF-RHF Final Energy:  -387.26496574361408
    Total Energy =                       -387.2649657436136295
  Basis Set: CC-PVTZ
  Basis Set:
  Basis Set: CC-PVTZ
  Basis Set:
  @DF-RHF Final Energy:  -387.26744082694631
    Total Energy =                       -387.2674408269469950
  Basis Set: CC-PVTZ
  Basis Set:
  Basis Set: CC-PVTZ
  Basis Set:
  @DF-RHF Final Energy:  -387.26772109913384
    Total Energy =                       -387.2677210991334960
  Basis Set: CC-PVTZ
  Basis Set:
  Basis Set: CC-PVTZ
  Basis Set:
  @DF-RHF Final Energy:  -387.26760003214918
    Total Energy =                       -387.2676000321494030
  Basis Set: CC-PVTZ
  Basis Set:
  Basis Set: CC-PVTZ
  Basis Set:
  @DF-RHF Final Energy:  -387.26773282972931
    Total Energy =                       -387.2677328297285158
  Basis Set: CC-PVTZ
  Basis Set:
  Basis Set: CC-PVTZ
  Basis Set:
  @DF-RHF Final Energy:  -387.26776855776251
    Total Energy =                       -387.2677685577625653
  Basis Set: CC-PVTZ
  Basis Set:
  Charge       = 0
  Multiplicity = 1
  Basis Set: CC-PVTZ
  Basis Set:

    Orbital Energies (a.u.)
    -----------------------

    Doubly Occupied:

       1A    -20.538500     2A    -11.319995     3A    -11.229143
       4A    -11.226207     5A    -11.215876     6A    -11.215710
       7A    -11.215263     8A    -11.214790     9A    -11.209243
      10A     -1.398573    11A     -1.095081    12A     -1.056601
      13A     -1.014615    14A     -0.968459    15A     -0.900246
      16A     -0.817854    17A     -0.786736    18A     -0.728538
      19A     -0.662464    20A     -0.656359    21A     -0.635008
      22A     -0.623511    23A     -0.597880    24A     -0.583793
      25A     -0.569170    26A     -0.562765    27A     -0.544026
      28A     -0.527166    29A     -0.521599    30A     -0.494816
      31A     -0.493046    32A     -0.477914    33A     -0.459520
      34A     -0.458128    35A     -0.447243    36A     -0.402494

  @DF-RHF Final Energy:  -387.26776836045553

   => Energetics <=

    Nuclear Repulsion Energy =            446.8694913191841351
    One-Electron Energy =               -1410.5378597211304168
    Two-Electron Energy =                 576.4006000414902928
    DFT Exchange-Correlation Energy =       0.0000000000000000
    Empirical Dispersion Energy =           0.0000000000000000
    PCM Polarization Energy =               0.0000000000000000
    EFP Energy =                            0.0000000000000000
    Total Energy =                       -387.2677683604559888
    Molecular point group: c1
  Basis Set: CC-PVTZ
  Basis Set:

  -Total Gradient:
     Atom            X                  Y                   Z
    ------   -----------------  -----------------  -----------------
       1       -0.000008191779    -0.000004035126    -0.000021470403
       2        0.000010860453    -0.000014448146     0.000065495657
       3       -0.000017531389     0.000043846158    -0.000045570728
       4       -0.000013721960     0.000012296083    -0.000027573461
       5        0.001345865340    -0.002727486718    -0.007391980693
       6       -0.000003513951    -0.000001441189    -0.000000519520
       7       -0.000001112709     0.000015188892    -0.000013991869
       8        0.003385316902    -0.004694125386     0.005250962858
       9       -0.001659746878     0.002951551388     0.005435261130
      10        0.000000585955    -0.000020762893     0.000004289083
      11       -0.000013209218     0.000035989389     0.000169941239
      12       -0.003062783555     0.004413797568    -0.003377441789
      13        0.000016721966     0.000012919424     0.000010453727
      14        0.000002033874    -0.000005811557    -0.000026510031
      15        0.000036727684     0.000027534374     0.000009189810
      16       -0.000037915655    -0.000034252221    -0.000010442759
      17        0.000013916180     0.000005460076    -0.000023433539
      18       -0.000003475607    -0.000025089052    -0.000007711694
      19        0.000001238935     0.000019351192    -0.000000604331
      20       -0.000005608916     0.000004243289    -0.000000172071
      21        0.000006280682    -0.000003735510    -0.000003668555
      22        0.000006063140    -0.000003012717    -0.000000221816
      23        0.000006151594    -0.000010064144    -0.000001427751
      24        0.000000374372    -0.000005845584    -0.000000139249
      25       -0.000005325460     0.000007932412     0.000007286758

  **** Optimization is complete! (in 8 steps) ****
    Final optimized geometry and variables:
    Molecular point group: c1

    Geometry (in Angstrom), charge = 0, multiplicity = 1:

    O            3.155398960932     0.947198268352    -0.126934563336
    C            2.158803630631     1.396215430149     0.337008861321
    C            0.846342361028     0.637318680034     0.339859191306
    C            2.132862193342     2.773584153306     0.961254739957
    C            0.934942290134    -0.745271339033    -0.301837313453
    H            0.517755218030     0.566461284444     1.374229590915
    H            0.112834427224     1.266456305532    -0.154324928716
    C           -0.355645377709    -1.586004705486    -0.232671342311
    H            1.720323376002    -1.270922729186     0.225963113448
    H            1.258306065922    -0.633050092326    -1.328220236046
    C           -1.675496689840    -0.811683675519    -0.277718954271
    H           -0.365376799387    -2.246993106010    -1.093476589953
    H           -0.343994819494    -2.208259648740     0.656148260187
    C           -2.892315005070    -1.731731209114    -0.335564428518
    H           -1.685576505488    -0.158522621714    -1.147713504966
    H           -1.767890194752    -0.166338064046     0.590504508189
    C           -4.215651415475    -0.974750878084    -0.374434273622
    H           -2.817995289815    -2.371313013900    -1.210586361052
    H           -2.881726056619    -2.393880629176     0.526016601110
    H           -4.271265840152    -0.327667004258    -1.243620647699
    H           -5.057122802400    -1.656679768510    -0.416564523786
    H           -4.338032287141    -0.353569155451     0.506760315511
    H            1.816718636440     2.709324158169     1.996594899563
    H            3.114669681548     3.218262913469     0.908146071517
    H            1.418120040935     3.404735156506     0.444727528780

  Mulliken Charges: (a.u.)
   Center  Symbol    Alpha    Beta     Spin     Total
       1     O     4.17018  4.17018  0.00000 -0.34036
       2     C     2.86366  2.86366  0.00000  0.27268
       3     C     3.11815  3.11815  0.00000 -0.23630
       4     C     3.15119  3.15119  0.00000 -0.30239
       5     C     3.09009  3.09009  0.00000 -0.18018
       6     H     0.44442  0.44442  0.00000  0.11116
       7     H     0.44167  0.44167  0.00000  0.11666
       8     C     3.09764  3.09764  0.00000 -0.19527
       9     H     0.44212  0.44212  0.00000  0.11576
      10     H     0.44346  0.44346  0.00000  0.11308
      11     C     3.09305  3.09305  0.00000 -0.18611
      12     H     0.44912  0.44912  0.00000  0.10177
      13     H     0.45021  0.45021  0.00000  0.09957
      14     C     3.08512  3.08512  0.00000 -0.17023
      15     H     0.45414  0.45414  0.00000  0.09172
      16     H     0.45327  0.45327  0.00000  0.09345
      17     C     3.14989  3.14989  0.00000 -0.29977
      18     H     0.45288  0.45288  0.00000  0.09423
      19     H     0.45432  0.45432  0.00000  0.09136
      20     H     0.45522  0.45522  0.00000  0.08957
      21     H     0.44771  0.44771  0.00000  0.10458
      22     H     0.45590  0.45590  0.00000  0.08819
      23     H     0.45081  0.45081  0.00000  0.09839
      24     H     0.43512  0.43512  0.00000  0.12976
      25     H     0.45066  0.45066  0.00000  0.09869

   Total alpha = 36.00000, Total beta = 36.00000, Total charge = -0.00000
