  ==> Input File <==

--------------------------------------------------------------------------
set {
	reference rhf
	basis 6-31G*
}

set_num_threads( 1 )
memory 2 gb

molecule MOL {
0 1

O	 -0.876541	 1.117833	 -2.460073
C	 -1.390549	 0.762323	 -1.443292
C	 -0.889235	 -0.467034	 -0.705952
C	 -2.537349	 1.528879	 -0.823119
C	 0.379448	 -0.143569	 0.099626
H	 -0.663485	 -1.225847	 -1.447264
H	 -1.658778	 -0.857194	 -0.045948
C	 1.631333	 -0.777471	 -0.511575
H	 0.482768	 0.934507	 0.149241
H	 0.263088	 -0.495696	 1.123449
C	 2.915987	 -0.544314	 0.291766
H	 1.766672	 -0.399098	 -1.523130
H	 1.471257	 -1.849544	 -0.605828
C	 3.373361	 0.914346	 0.347591
H	 3.708709	 -1.142521	 -0.150311
H	 2.780642	 -0.921148	 1.303579
H	 3.506512	 1.320010	 -0.651625
H	 4.322697	 0.999599	 0.867103
H	 2.660624	 1.545032	 0.868198
H	 -3.438284	 0.921437	 -0.847489
H	 -2.707976	 2.446083	 -1.369386
H	 -2.330683	 1.753141	 0.219379

	symmetry c1
}
set optking {
	frozen_dihedral = ("
		6 3 2 1,
		3 5 8 12,
		12 8 11 15
	")
}

ee = energy('scf')
oeprop('DIPOLE', 'QUADRUPOLE', 'MULLIKEN_CHARGES')
f=open( 'psi4out.xyz', 'w' )
f.write( "22  " )
f.write( str(ee) + "\n" )
f.write( MOL.save_string_xyz() )
f.close()
--------------------------------------------------------------------------

    Molecular point group: c1

    Geometry (in Angstrom), charge = 0, multiplicity = 1:

       Center              X                  Y                   Z               Mass
    ------------   -----------------  -----------------  -----------------  -----------------
           O         -1.209736097081     0.800492004412    -1.807910434615    15.994914619560
           C         -1.723744097081     0.444982004412    -0.791129434615    12.000000000000
           C         -1.222430097081    -0.784374995588    -0.053789434615    12.000000000000
           C         -2.870544097081     1.211538004412    -0.170956434615    12.000000000000
           C          0.046252902919    -0.460909995588     0.751788565385    12.000000000000
           H         -0.996680097081    -1.543187995588    -0.795101434615     1.007825032070
           H         -1.991973097081    -1.174534995588     0.606214565385     1.007825032070
           C          1.298137902919    -1.094811995588     0.140587565385    12.000000000000
           H          0.149572902919     0.617166004412     0.801403565385     1.007825032070
           H         -0.070107097081    -0.813036995588     1.775611565385     1.007825032070
           C          2.582791902919    -0.861654995588     0.943928565385    12.000000000000
           H          1.433476902919    -0.716438995588    -0.870967434615     1.007825032070
           H          1.138061902919    -2.166884995588     0.046334565385     1.007825032070
           C          3.040165902919     0.597005004412     0.999753565385    12.000000000000
           H          3.375513902919    -1.459861995588     0.501851565385     1.007825032070
           H          2.447446902919    -1.238488995588     1.955741565385     1.007825032070
           H          3.173316902919     1.002669004412     0.000537565385     1.007825032070
           H          3.989501902919     0.682258004412     1.519265565385     1.007825032070
           H          2.327428902919     1.227691004412     1.520360565385     1.007825032070
           H         -3.771479097081     0.604096004412    -0.195326434615     1.007825032070
           H         -3.041171097081     2.128742004412    -0.717223434615     1.007825032070
           H         -2.663878097081     1.435800004412     0.871541565385     1.007825032070

  Charge       = 0
  Multiplicity = 1
  Basis Set: 6-31G*
  Basis Set:

    Orbital Energies (a.u.)
    -----------------------

    Doubly Occupied:

       1A    -20.547089     2A    -11.324653     3A    -11.228703
       4A    -11.228661     5A    -11.227440     6A    -11.217581
       7A    -11.216798     8A    -11.208584     9A     -1.393182
      10A     -1.093786    11A     -1.042647    12A     -0.999057
      13A     -0.934712    14A     -0.856665    15A     -0.784520
      16A     -0.735139    17A     -0.660939    18A     -0.639987
      19A     -0.626704    20A     -0.609513    21A     -0.599167
      22A     -0.587685    23A     -0.551965    24A     -0.551541
      25A     -0.530949    26A     -0.519073    27A     -0.502311
      28A     -0.481627    29A     -0.466011    30A     -0.461966
      31A     -0.453818    32A     -0.396175

  @DF-RHF Final Energy:  -348.09290901676525

   => Energetics <=

    Nuclear Repulsion Energy =            377.7880563652016690
    One-Electron Energy =               -1220.4049758922092224
    Two-Electron Energy =                 494.5240105102424195
    DFT Exchange-Correlation Energy =       0.0000000000000000
    Empirical Dispersion Energy =           0.0000000000000000
    PCM Polarization Energy =               0.0000000000000000
    EFP Energy =                            0.0000000000000000
    Total Energy =                       -348.0929090167651339

  Mulliken Charges: (a.u.)
   Center  Symbol    Alpha    Beta     Spin     Total
       1     O     4.26220  4.26220  0.00000 -0.52441
       2     C     2.74130  2.74130  0.00000  0.51739
       3     C     3.20255  3.20255  0.00000 -0.40510
       4     C     3.28941  3.28941  0.00000 -0.57882
       5     C     3.16053  3.16053  0.00000 -0.32106
       6     H     0.39923  0.39923  0.00000  0.20155
       7     H     0.41403  0.41403  0.00000  0.17193
       8     C     3.15640  3.15640  0.00000 -0.31280
       9     H     0.41270  0.41270  0.00000  0.17460
      10     H     0.41778  0.41778  0.00000  0.16443
      11     C     3.15439  3.15439  0.00000 -0.30878
      12     H     0.41053  0.41053  0.00000  0.17895
      13     H     0.42138  0.42138  0.00000  0.15724
      14     C     3.24143  3.24143  0.00000 -0.48286
      15     H     0.41943  0.41943  0.00000  0.16113
      16     H     0.42437  0.42437  0.00000  0.15126
      17     H     0.41836  0.41836  0.00000  0.16327
      18     H     0.41904  0.41904  0.00000  0.16191
      19     H     0.42144  0.42144  0.00000  0.15712
      20     H     0.40664  0.40664  0.00000  0.18673
      21     H     0.39712  0.39712  0.00000  0.20577
      22     H     0.40973  0.40973  0.00000  0.18055

   Total alpha = 32.00000, Total beta = 32.00000, Total charge =  0.00000
