  ==> Input File <==

--------------------------------------------------------------------------
set {
	reference rhf
	basis 6-31G*
}

set_num_threads( 1 )
memory 2 gb

molecule MOL {
0 1

H	 -3.420663	 1.227371	 -1.044276
O	 -3.452007	 0.283848	 -0.965577
C	 -3.181085	 -0.079926	 0.364119
C	 -1.765924	 0.277073	 0.805136
H	 -3.327791	 -1.152017	 0.410903
H	 -3.905698	 0.375695	 1.036898
C	 -1.460264	 1.773222	 0.723710
H	 -1.613342	 -0.074132	 1.826085
H	 -1.063976	 -0.278633	 0.185717
C	 -0.045513	 2.123186	 1.189740
H	 -2.187255	 2.318477	 1.317757
H	 -1.594364	 2.106768	 -0.303985
C	 0.255057	 3.621734	 1.099757
H	 0.085080	 1.778853	 2.212872
H	 0.679562	 1.575958	 0.588565
C	 1.690147	 4.011741	 1.472003
H	 -0.440823	 4.166872	 1.735580
H	 0.059976	 3.955132	 0.082601
C	 2.054505	 3.771177	 2.938214
H	 1.829454	 5.066450	 1.247342
H	 2.386621	 3.471811	 0.833565
H	 1.366581	 4.289358	 3.601077
H	 3.054817	 4.135423	 3.151611
H	 2.031121	 2.717361	 3.195293

	symmetry c1
}
set optking {
	frozen_dihedral = ("
		20 16 13 17,
		17 13 10 7,
		13 10 7 11,
		11 7 4 3,
		1 2 3 5
	")
}

ee = energy('scf')
oeprop('DIPOLE', 'QUADRUPOLE', 'MULLIKEN_CHARGES')
f=open( 'psi4out.xyz', 'w' )
f.write( "24  " )
f.write( str(ee) + "\n" )
f.write( MOL.save_string_xyz() )
f.close()
--------------------------------------------------------------------------

    Molecular point group: c1

    Geometry (in Angstrom), charge = 0, multiplicity = 1:

       Center              X                  Y                   Z               Mass
    ------------   -----------------  -----------------  -----------------  -----------------
           H         -2.639061928564    -0.723010794366    -1.973508106824     1.007825032070
           O         -2.670405928564    -1.666533794366    -1.894809106824    15.994914619560
           C         -2.399483928564    -2.030307794366    -0.565113106824    12.000000000000
           C         -0.984322928564    -1.673308794366    -0.124096106824    12.000000000000
           H         -2.546189928564    -3.102398794366    -0.518329106824     1.007825032070
           H         -3.124096928564    -1.574686794366     0.107665893176     1.007825032070
           C         -0.678662928564    -0.177159794366    -0.205522106824    12.000000000000
           H         -0.831740928564    -2.024513794366     0.896852893176     1.007825032070
           H         -0.282374928564    -2.229014794366    -0.743515106824     1.007825032070
           C          0.736088071436     0.172804205634     0.260507893176    12.000000000000
           H         -1.405653928564     0.368095205634     0.388524893176     1.007825032070
           H         -0.812762928564     0.156386205634    -1.233217106824     1.007825032070
           C          1.036658071436     1.671352205634     0.170524893176    12.000000000000
           H          0.866681071436    -0.171528794366     1.283639893176     1.007825032070
           H          1.461163071436    -0.374423794366    -0.340667106824     1.007825032070
           C          2.471748071436     2.061359205634     0.542770893176    12.000000000000
           H          0.340778071436     2.216490205634     0.806347893176     1.007825032070
           H          0.841577071436     2.004750205634    -0.846631106824     1.007825032070
           C          2.836106071436     1.820795205634     2.008981893176    12.000000000000
           H          2.611055071436     3.116068205634     0.318109893176     1.007825032070
           H          3.168222071436     1.521429205634    -0.095667106824     1.007825032070
           H          2.148182071436     2.338976205634     2.671844893176     1.007825032070
           H          3.836418071436     2.185041205634     2.222378893176     1.007825032070
           H          2.812722071436     0.766979205634     2.266060893176     1.007825032070

  Charge       = 0
  Multiplicity = 1
  Basis Set: 6-31G*
  Basis Set:

    Orbital Energies (a.u.)
    -----------------------

    Doubly Occupied:

       1A    -20.552248     2A    -11.266939     3A    -11.221942
       4A    -11.218183     5A    -11.217478     6A    -11.216694
       7A    -11.216380     8A    -11.210032     9A     -1.359104
      10A     -1.093675    11A     -1.051300    12A     -0.988232
      13A     -0.920074    14A     -0.854513    15A     -0.798162
      16A     -0.781363    17A     -0.691581    18A     -0.654827
      19A     -0.624699    20A     -0.614171    21A     -0.602268
      22A     -0.588212    23A     -0.563080    24A     -0.538447
      25A     -0.525929    26A     -0.510692    27A     -0.491350
      28A     -0.487986    29A     -0.475437    30A     -0.463620
      31A     -0.458569    32A     -0.444730    33A     -0.423861

  @DF-RHF Final Energy:  -349.24682887128171

   => Energetics <=

    Nuclear Repulsion Energy =            384.8411986001976288
    One-Electron Energy =               -1235.9244829970627961
    Two-Electron Energy =                 501.8364555255819823
    DFT Exchange-Correlation Energy =       0.0000000000000000
    Empirical Dispersion Energy =           0.0000000000000000
    PCM Polarization Energy =               0.0000000000000000
    EFP Energy =                            0.0000000000000000
    Total Energy =                       -349.2468288712831281

  Mulliken Charges: (a.u.)
   Center  Symbol    Alpha    Beta     Spin     Total
       1     H     0.27900  0.27900  0.00000  0.44200
       2     O     4.37160  4.37160  0.00000 -0.74320
       3     C     2.99597  2.99597  0.00000  0.00806
       4     C     3.16298  3.16298  0.00000 -0.32596
       5     H     0.41428  0.41428  0.00000  0.17143
       6     H     0.43196  0.43196  0.00000  0.13609
       7     C     3.16304  3.16304  0.00000 -0.32608
       8     H     0.42344  0.42344  0.00000  0.15313
       9     H     0.41570  0.41570  0.00000  0.16861
      10     C     3.15244  3.15244  0.00000 -0.30488
      11     H     0.42312  0.42312  0.00000  0.15376
      12     H     0.42647  0.42647  0.00000  0.14706
      13     C     3.15282  3.15282  0.00000 -0.30565
      14     H     0.42052  0.42052  0.00000  0.15895
      15     H     0.42144  0.42144  0.00000  0.15713
      16     C     3.15264  3.15264  0.00000 -0.30529
      17     H     0.42442  0.42442  0.00000  0.15115
      18     H     0.42231  0.42231  0.00000  0.15539
      19     C     3.24135  3.24135  0.00000 -0.48271
      20     H     0.42063  0.42063  0.00000  0.15875
      21     H     0.42273  0.42273  0.00000  0.15453
      22     H     0.42232  0.42232  0.00000  0.15535
      23     H     0.41875  0.41875  0.00000  0.16250
      24     H     0.42006  0.42006  0.00000  0.15988

   Total alpha = 33.00000, Total beta = 33.00000, Total charge =  0.00000
