  ==> Input File <==

--------------------------------------------------------------------------
set {
	reference rhf
	basis 6-31G*
}

set_num_threads( 1 )
memory 2 gb

molecule MOL {
0 1

O	 -0.434980	 -4.639932	 -1.557373
C	 0.006973	 -3.819796	 -2.303355
C	 0.179603	 -2.377373	 -1.860726
C	 0.445257	 -4.176644	 -3.706189
C	 1.444635	 -2.215080	 -1.002532
H	 -0.692148	 -2.106520	 -1.275070
H	 0.227552	 -1.716506	 -2.721529
C	 1.631333	 -0.777471	 -0.511575
H	 1.374422	 -2.898790	 -0.164084
H	 2.319114	 -2.513156	 -1.578886
C	 2.915987	 -0.544314	 0.291766
H	 0.772718	 -0.491400	 0.093131
H	 1.634471	 -0.110820	 -1.371467
C	 3.373361	 0.914346	 0.347591
H	 3.708709	 -1.142521	 -0.150311
H	 2.780642	 -0.921148	 1.303579
H	 3.506512	 1.320010	 -0.651625
H	 4.322697	 0.999599	 0.867103
H	 2.660624	 1.545032	 0.868198
H	 -0.202856	 -3.685631	 -4.427382
H	 0.394881	 -5.247114	 -3.848805
H	 1.456153	 -3.826424	 -3.893916

	symmetry c1
}
set optking {
	frozen_dihedral = ("
		6 3 2 1,
		6 3 5 8,
		3 5 8 12
	")
}

ee = energy('scf')
oeprop('DIPOLE', 'QUADRUPOLE', 'MULLIKEN_CHARGES')
f=open( 'psi4out.xyz', 'w' )
f.write( "22  " )
f.write( str(ee) + "\n" )
f.write( MOL.save_string_xyz() )
f.close()
--------------------------------------------------------------------------

    Molecular point group: c1

    Geometry (in Angstrom), charge = 0, multiplicity = 1:

       Center              X                  Y                   Z               Mass
    ------------   -----------------  -----------------  -----------------  -----------------
           O         -1.639680215293    -2.439059197910    -0.269658319449    15.994914619560
           C         -1.197727215293    -1.618923197910    -1.015640319449    12.000000000000
           C         -1.025097215293    -0.176500197910    -0.573011319449    12.000000000000
           C         -0.759443215293    -1.975771197910    -2.418474319449    12.000000000000
           C          0.239934784707    -0.014207197910     0.285182680551    12.000000000000
           H         -1.896848215293     0.094352802090     0.012644680551     1.007825032070
           H         -0.977148215293     0.484366802090    -1.433814319449     1.007825032070
           C          0.426632784707     1.423401802090     0.776139680551    12.000000000000
           H          0.169721784707    -0.697917197910     1.123630680551     1.007825032070
           H          1.114413784707    -0.312283197910    -0.291171319449     1.007825032070
           C          1.711286784707     1.656558802090     1.579480680551    12.000000000000
           H         -0.431982215293     1.709472802090     1.380845680551     1.007825032070
           H          0.429770784707     2.090052802090    -0.083752319449     1.007825032070
           C          2.168660784707     3.115218802090     1.635305680551    12.000000000000
           H          2.504008784707     1.058351802090     1.137403680551     1.007825032070
           H          1.575941784707     1.279724802090     2.591293680551     1.007825032070
           H          2.301811784707     3.520882802090     0.636089680551     1.007825032070
           H          3.117996784707     3.200471802090     2.154817680551     1.007825032070
           H          1.455923784707     3.745904802090     2.155912680551     1.007825032070
           H         -1.407556215293    -1.484758197910    -3.139667319449     1.007825032070
           H         -0.809819215293    -3.046241197910    -2.561090319449     1.007825032070
           H          0.251452784707    -1.625551197910    -2.606201319449     1.007825032070

  Charge       = 0
  Multiplicity = 1
  Basis Set: 6-31G*
  Basis Set:

    Orbital Energies (a.u.)
    -----------------------

    Doubly Occupied:

       1A    -20.547477     2A    -11.324675     3A    -11.230361
       4A    -11.229351     5A    -11.228341     6A    -11.222060
       7A    -11.220408     8A    -11.213398     9A     -1.393219
      10A     -1.095093    11A     -1.045239    12A     -1.001186
      13A     -0.939241    14A     -0.847052    15A     -0.797756
      16A     -0.732501    17A     -0.665465    18A     -0.646810
      19A     -0.630610    20A     -0.609017    21A     -0.591376
      22A     -0.585447    23A     -0.562313    24A     -0.549856
      25A     -0.533777    26A     -0.515139    27A     -0.496861
      28A     -0.487812    29A     -0.471349    30A     -0.468015
      31A     -0.460127    32A     -0.396517

  @DF-RHF Final Energy:  -348.09792224444601

   => Energetics <=

    Nuclear Repulsion Energy =            368.2744107968443927
    One-Electron Energy =               -1201.2690472835902256
    Two-Electron Energy =                 484.8967142422987990
    DFT Exchange-Correlation Energy =       0.0000000000000000
    Empirical Dispersion Energy =           0.0000000000000000
    PCM Polarization Energy =               0.0000000000000000
    EFP Energy =                            0.0000000000000000
    Total Energy =                       -348.0979222444469769

  Mulliken Charges: (a.u.)
   Center  Symbol    Alpha    Beta     Spin     Total
       1     O     4.26232  4.26232  0.00000 -0.52464
       2     C     2.73716  2.73716  0.00000  0.52567
       3     C     3.20035  3.20035  0.00000 -0.40071
       4     C     3.28957  3.28957  0.00000 -0.57913
       5     C     3.16252  3.16252  0.00000 -0.32505
       6     H     0.40108  0.40108  0.00000  0.19784
       7     H     0.41677  0.41677  0.00000  0.16645
       8     C     3.15161  3.15161  0.00000 -0.30322
       9     H     0.40522  0.40522  0.00000  0.18956
      10     H     0.42085  0.42085  0.00000  0.15831
      11     C     3.15303  3.15303  0.00000 -0.30606
      12     H     0.41935  0.41935  0.00000  0.16131
      13     H     0.42401  0.42401  0.00000  0.15199
      14     C     3.23992  3.23992  0.00000 -0.47985
      15     H     0.42286  0.42286  0.00000  0.15429
      16     H     0.41946  0.41946  0.00000  0.16108
      17     H     0.42194  0.42194  0.00000  0.15613
      18     H     0.41812  0.41812  0.00000  0.16377
      19     H     0.42024  0.42024  0.00000  0.15951
      20     H     0.40689  0.40689  0.00000  0.18623
      21     H     0.39702  0.39702  0.00000  0.20596
      22     H     0.40972  0.40972  0.00000  0.18056

   Total alpha = 32.00000, Total beta = 32.00000, Total charge = -0.00000
