  ==> Input File <==

--------------------------------------------------------------------------
set {
	reference rhf
	basis 6-31G*
}

set_num_threads( 4 )
memory 2 gb

molecule MOL {
0 1

H	 -1.748661	 -2.220942	 -0.005015
C	 -1.343207	 -1.225221	 -0.013879
N	 -0.055091	 -1.100174	 -0.261126
C	 -2.150779	 -0.125890	 0.222726
C	 0.449969	 0.122615	 -0.277109
H	 -3.200618	 -0.238980	 0.422496
N	 -1.660212	 1.097703	 0.209594
C	 -0.371804	 1.219904	 -0.038265
C	 1.928147	 0.267347	 -0.541394
H	 0.029131	 2.217482	 -0.051283
C	 2.299119	 1.668259	 -1.039229
H	 2.460814	 0.059269	 0.380469
H	 2.240722	 -0.476519	 -1.267435
H	 3.370675	 1.746409	 -1.193040
H	 2.003403	 2.419646	 -0.316423
H	 1.807258	 1.891781	 -1.980728

	symmetry c1
}
set optking {
	frozen_dihedral = ("
		12 9 5 3
	")
}

ee = optimize('scf')
oeprop('DIPOLE', 'QUADRUPOLE', 'MULLIKEN_CHARGES')
f=open( 'psi4out.xyz', 'w' )
f.write( "16  " )
f.write( str(ee) + "\n" )
f.write( MOL.save_string_xyz() )
f.close()
--------------------------------------------------------------------------

    Molecular point group: c1
  Charge       = 0
  Multiplicity = 1
  Basis Set: 6-31G*
  Basis Set:
  @DF-RHF Final Energy:  -340.75424687982712
    Total Energy =                       -340.7542468798275195
    Molecular point group: c1
  Basis Set: 6-31G*
  Basis Set:
  Basis Set: 6-31G*
  Basis Set:
  @DF-RHF Final Energy:  -340.75534000991752
    Total Energy =                       -340.7553400099176315
  Basis Set: 6-31G*
  Basis Set:
  Basis Set: 6-31G*
  Basis Set:
  @DF-RHF Final Energy:  -340.75608267144418
    Total Energy =                       -340.7560826714443465
  Basis Set: 6-31G*
  Basis Set:
  Basis Set: 6-31G*
  Basis Set:
  @DF-RHF Final Energy:  -340.75612666236646
    Total Energy =                       -340.7561266623662277
  Basis Set: 6-31G*
  Basis Set:
  Basis Set: 6-31G*
  Basis Set:
  @DF-RHF Final Energy:  -340.75612978357509
    Total Energy =                       -340.7561297835750906
  Basis Set: 6-31G*
  Basis Set:
  Basis Set: 6-31G*
  Basis Set:
  @DF-RHF Final Energy:  -340.75613351787149
    Total Energy =                       -340.7561335178714899
  Basis Set: 6-31G*
  Basis Set:
  Charge       = 0
  Multiplicity = 1
  Basis Set: 6-31G*
  Basis Set:

    Orbital Energies (a.u.)
    -----------------------

    Doubly Occupied:

       1A    -15.585981     2A    -15.580990     3A    -11.282037
       4A    -11.275524     5A    -11.271176     6A    -11.270936
       7A    -11.233315     8A    -11.223481     9A     -1.312460
      10A     -1.220748    11A     -1.085233    12A     -1.015078
      13A     -0.907727    14A     -0.892006    15A     -0.829998
      16A     -0.714429    17A     -0.707911    18A     -0.653163
      19A     -0.627228    20A     -0.609925    21A     -0.569608
      22A     -0.564070    23A     -0.519444    24A     -0.511911
      25A     -0.506195    26A     -0.482273    27A     -0.427307
      28A     -0.394228    29A     -0.344688

  @DF-RHF Final Energy:  -340.75613386997372

   => Energetics <=

    Nuclear Repulsion Energy =            349.1656591101801723
    One-Electron Energy =               -1152.6054464748374357
    Two-Electron Energy =                 462.6836534946834263
    DFT Exchange-Correlation Energy =       0.0000000000000000
    Empirical Dispersion Energy =           0.0000000000000000
    PCM Polarization Energy =               0.0000000000000000
    EFP Energy =                            0.0000000000000000
    Total Energy =                       -340.7561338699738371
    Molecular point group: c1
  Basis Set: 6-31G*
  Basis Set:

  -Total Gradient:
     Atom            X                  Y                   Z
    ------   -----------------  -----------------  -----------------
       1        0.000005012922    -0.000002377949     0.000029657097
       2       -0.000028517585     0.000007657285    -0.000090577274
       3       -0.000014225029     0.000017176788    -0.000146809615
       4        0.000002510861    -0.000018579050     0.000014564730
       5        0.000058268907     0.000012785990     0.000294931667
       6        0.000001864829    -0.000003650662     0.000009512947
       7        0.000011704354     0.000008991072    -0.000010651881
       8        0.000004939436     0.000007407709     0.000008358013
       9       -0.000003668599    -0.000206301870    -0.000135076299
      10        0.000005074659     0.000007598778    -0.000016625955
      11       -0.000015563451     0.000004450590    -0.000005892513
      12       -0.000026380426     0.000168828737     0.000049271534
      13        0.000001838836    -0.000005742682    -0.000001678049
      14        0.000000108156    -0.000005873449    -0.000000201001
      15       -0.000000075324     0.000003139549     0.000002570021
      16       -0.000002892546     0.000004489165    -0.000001353423

  **** Optimization is complete! (in 7 steps) ****
    Final optimized geometry and variables:
    Molecular point group: c1

    Geometry (in Angstrom), charge = 0, multiplicity = 1:

    H           -1.636211787894    -2.512013005200     0.197942406741
    C           -1.258630917132    -1.505250919629     0.202803546507
    N            0.025353189414    -1.341854588373    -0.040968428697
    C           -2.095018047137    -0.431563147248     0.453255069478
    C            0.503229892023    -0.107335615521    -0.039237709057
    H           -3.141931571840    -0.573379841100     0.650355535482
    N           -1.634705805447     0.803114013035     0.455988368010
    C           -0.349118242379     0.964704217121     0.212105269487
    C            1.987148485295     0.040836797818    -0.295862717303
    H            0.013798792223     1.974773234588     0.214649860033
    C            2.441857568836     1.398706330318    -0.831889961209
    H            2.512952555447    -0.175484362873     0.631352750612
    H            2.267739576751    -0.743179543519    -0.989194508500
    H            3.500809314444     1.366933628554    -1.064002400990
    H            2.294409246481     2.194534643734    -0.109570212958
    H            1.910269173576     1.665644322277    -1.739889868963

  Mulliken Charges: (a.u.)
   Center  Symbol    Alpha    Beta     Spin     Total
       1     H     0.39390  0.39390  0.00000  0.21220
       2     C     2.98978  2.98978  0.00000  0.02043
       3     N     3.75529  3.75529  0.00000 -0.51057
       4     C     2.99814  2.99814  0.00000  0.00373
       5     C     2.87969  2.87969  0.00000  0.24062
       6     H     0.39444  0.39444  0.00000  0.21112
       7     N     3.73084  3.73084  0.00000 -0.46168
       8     C     2.99699  2.99699  0.00000  0.00602
       9     C     3.16377  3.16377  0.00000 -0.32753
      10     H     0.39327  0.39327  0.00000  0.21346
      11     C     3.25154  3.25154  0.00000 -0.50308
      12     H     0.40590  0.40590  0.00000  0.18819
      13     H     0.40154  0.40154  0.00000  0.19692
      14     H     0.41226  0.41226  0.00000  0.17548
      15     H     0.41829  0.41829  0.00000  0.16342
      16     H     0.41437  0.41437  0.00000  0.17126

   Total alpha = 29.00000, Total beta = 29.00000, Total charge = -0.00000
