  ==> Input File <==

--------------------------------------------------------------------------
set {
	reference rhf
	basis 6-31G*
}

set_num_threads( 4 )
memory 2 gb

molecule MOL {
0 1

H	 -2.644465	 1.541790	 2.007177
C	 -2.482748	 0.580574	 1.559324
C	 -1.411393	 0.370527	 0.829886
H	 -3.211128	 -0.191161	 1.723029
O	 -1.180634	 -0.819263	 0.215062
H	 -0.666537	 1.127784	 0.659747
C	 0.051604	 -1.018856	 -0.387932
C	 1.043764	 0.054862	 -0.001873
H	 -0.017620	 -1.041351	 -1.469781
H	 0.437898	 -1.966374	 -0.042284
F	 2.212596	 -0.199467	 -0.571921
F	 0.652529	 1.252447	 -0.405055
F	 1.230877	 0.110694	 1.300533

	symmetry c1
}
set optking {
	frozen_dihedral = ("
		3 5 7 9
	")
}

ee = optimize('scf')
oeprop('DIPOLE', 'QUADRUPOLE', 'MULLIKEN_CHARGES')
f=open( 'psi4out.xyz', 'w' )
f.write( "13  " )
f.write( str(ee) + "\n" )
f.write( MOL.save_string_xyz() )
f.close()
--------------------------------------------------------------------------

    Molecular point group: c1
  Charge       = 0
  Multiplicity = 1
  Basis Set: 6-31G*
  Basis Set:
  @DF-RHF Final Energy:  -527.50795536161502
    Total Energy =                       -527.5079553616149042
    Molecular point group: c1
  Basis Set: 6-31G*
  Basis Set:
  Basis Set: 6-31G*
  Basis Set:
  @DF-RHF Final Energy:  -527.52046105963836
    Total Energy =                       -527.5204610596390467
  Basis Set: 6-31G*
  Basis Set:
  Basis Set: 6-31G*
  Basis Set:
  @DF-RHF Final Energy:  -527.52498613311673
    Total Energy =                       -527.5249861331168404
  Basis Set: 6-31G*
  Basis Set:
  Basis Set: 6-31G*
  Basis Set:
  @DF-RHF Final Energy:  -527.52597757624721
    Total Energy =                       -527.5259775762467598
  Basis Set: 6-31G*
  Basis Set:
  @DF-RHF Final Energy:  -527.52627821076908
    Total Energy =                       -527.5262782107687372
  @DF-RHF Final Energy:  -527.52633792272331
    Total Energy =                       -527.5263379227228597
  @DF-RHF Final Energy:  -527.52636070804510
    Total Energy =                       -527.5263607080448764
  Basis Set: 6-31G*
  Basis Set:
  @DF-RHF Final Energy:  -527.52636765314139
    Total Energy =                       -527.5263676531415058
  Basis Set: 6-31G*
  Basis Set:
  Basis Set: 6-31G*
  Basis Set:
  @DF-RHF Final Energy:  -527.52637184408968
    Total Energy =                       -527.5263718440894536
  Basis Set: 6-31G*
  Basis Set:
  Basis Set: 6-31G*
  Basis Set:
  @DF-RHF Final Energy:  -527.52637285054766
    Total Energy =                       -527.5263728505476593
  Basis Set: 6-31G*
  Basis Set:
  Charge       = 0
  Multiplicity = 1
  Basis Set: 6-31G*
  Basis Set:

    Orbital Energies (a.u.)
    -----------------------

    Doubly Occupied:

       1A    -26.352030     2A    -26.351496     3A    -26.350468
       4A    -20.601364     5A    -11.513668     6A    -11.319432
       7A    -11.295388     8A    -11.213026     9A     -1.750511
      10A     -1.647711    11A     -1.647114    12A     -1.427851
      13A     -1.084565    14A     -1.019399    15A     -0.931362
      16A     -0.844692    17A     -0.839626    18A     -0.835251
      19A     -0.763921    20A     -0.724321    21A     -0.721358
      22A     -0.700079    23A     -0.682573    24A     -0.663843
      25A     -0.657865    26A     -0.651809    27A     -0.642556
      28A     -0.590124    29A     -0.557931    30A     -0.525971
      31A     -0.492021    32A     -0.348898

  @DF-RHF Final Energy:  -527.52637310235468

   => Energetics <=

    Nuclear Repulsion Energy =            416.1815752105724187
    One-Electron Energy =               -1555.9194511921873527
    Two-Electron Energy =                 612.2115028792603653
    DFT Exchange-Correlation Energy =       0.0000000000000000
    Empirical Dispersion Energy =           0.0000000000000000
    PCM Polarization Energy =               0.0000000000000000
    EFP Energy =                            0.0000000000000000
    Total Energy =                       -527.5263731023545688
    Molecular point group: c1
  Basis Set: 6-31G*
  Basis Set:

  -Total Gradient:
     Atom            X                  Y                   Z
    ------   -----------------  -----------------  -----------------
       1        0.000002856835    -0.000002386673     0.000000765566
       2       -0.000016715240     0.000013386507     0.000009101242
       3        0.000566114232    -0.000735549949     0.001574220164
       4       -0.000000910762    -0.000004090421    -0.000000556654
       5       -0.000953955304     0.000567915942    -0.002421193504
       6       -0.000001254445     0.000009066682     0.000009561657
       7        0.000755920928     0.002132350869     0.000801402178
       8        0.000041363472    -0.000042945753    -0.000007334164
       9       -0.000362603201    -0.001981562877     0.000046618330
      10        0.000004831534    -0.000001942817    -0.000002200668
      11       -0.000030809088     0.000010533155     0.000024786748
      12        0.000009506457     0.000040329403    -0.000032765524
      13       -0.000014345401    -0.000005104067    -0.000002405372

  **** Optimization is complete! (in 11 steps) ****
    Final optimized geometry and variables:
    Molecular point group: c1

    Geometry (in Angstrom), charge = 0, multiplicity = 1:

    H           -3.051064150505     1.401832768811     1.816909144200
    C           -2.760358720458     0.468522561504     1.374719770866
    C           -1.779612051055     0.436226220773     0.501568314508
    H           -3.293742344191    -0.420429172846     1.654994235367
    O           -1.436788865335    -0.721578612484    -0.124022264357
    H           -1.242706704958     1.316406802426     0.207871132359
    C           -0.178519784122    -0.972533459191    -0.666606289085
    C            0.956090833500    -0.043083614915    -0.290858451761
    H           -0.239974125051    -0.987845563066    -1.747744226233
    H            0.121688927766    -1.957379468661    -0.335988060491
    F            2.081634683704    -0.550456923957    -0.765378462673
    F            0.824585685906     1.169404946698    -0.809238979686
    F            1.088652647593     0.092926986651     1.014007911850

  Mulliken Charges: (a.u.)
   Center  Symbol    Alpha    Beta     Spin     Total
       1     H     0.40782  0.40782  0.00000  0.18437
       2     C     3.23229  3.23229  0.00000 -0.46457
       3     C     2.90752  2.90752  0.00000  0.18496
       4     H     0.40378  0.40378  0.00000  0.19243
       5     O     4.31598  4.31598  0.00000 -0.63196
       6     H     0.39538  0.39538  0.00000  0.20925
       7     C     3.02417  3.02417  0.00000 -0.04835
       8     C     2.47919  2.47919  0.00000  1.04161
       9     H     0.40218  0.40218  0.00000  0.19563
      10     H     0.39702  0.39702  0.00000  0.20597
      11     F     4.68022  4.68022  0.00000 -0.36044
      12     F     4.67958  4.67958  0.00000 -0.35916
      13     F     4.67488  4.67488  0.00000 -0.34976

   Total alpha = 32.00000, Total beta = 32.00000, Total charge = -0.00000
