                              Psi4 1.0.54 Driver

  ==> Input File <==

--------------------------------------------------------------------------
set {
	reference rhf
	basis cc-pvtz
}

set_num_threads( 4 )
memory 2 gb

molecule MOL {
0 1

O	 2.868453	 1.353349	 -0.000734
C	 2.841259	 0.166180	 -0.000295
C	 1.542794	 -0.614730	 -0.000853
C	 4.113372	 -0.651103	 0.000743
C	 0.288398	 0.247429	 0.000314
H	 1.557171	 -1.273139	 -0.866508
H	 1.557484	 -1.274998	 0.863344
C	 -0.993089	 -0.581367	 -0.000217
H	 0.305153	 0.900562	 -0.864701
H	 0.305567	 0.898805	 0.866656
C	 -2.258482	 0.271340	 0.000669
H	 -1.002280	 -1.233920	 -0.870484
H	 -1.002061	 -1.235367	 0.868958
C	 -2.008929	 1.727990	 0.380972
H	 -2.980780	 -0.160016	 0.689386
H	 -2.717955	 0.231805	 -0.983937
C	 -3.278030	 2.573667	 0.379716
H	 -1.550746	 1.768535	 1.365534
H	 -1.288015	 2.160346	 -0.307701
H	 -4.006522	 2.186942	 1.084544
H	 -3.066261	 3.600866	 0.653648
H	 -3.741699	 2.581865	 -0.601093
H	 4.145311	 -1.294584	 -0.871587
H	 4.970080	 0.004978	 -0.000091
H	 4.145223	 -1.291980	 0.874988

	symmetry c1
}
set optking {
	frozen_dihedral = ("
		15 11 8 12
	")
}

ee,wfn = optimize('scf', return_wfn=True)
oeprop( wfn, 'DIPOLE', 'QUADRUPOLE', 'MULLIKEN_CHARGES')
f=open( 'psi4out.xyz', 'w' )
f.write( "25  " )
f.write( str(ee) + "\n" )
f.write( MOL.save_string_xyz() )
f.close()
--------------------------------------------------------------------------

    Molecular point group: c1
  Charge       = 0
  Multiplicity = 1
  Basis Set: CC-PVTZ
  Basis Set:
  @DF-RHF Final Energy:  -387.26212243517296
    Total Energy =                       -387.2621224351729552
    Molecular point group: c1
  Basis Set: CC-PVTZ
  Basis Set:
  Basis Set: CC-PVTZ
  Basis Set:
  @DF-RHF Final Energy:  -387.16642230891932
    Total Energy =                       -387.1664223089192092
  Basis Set: CC-PVTZ
  Basis Set:
  Basis Set: CC-PVTZ
  Basis Set:
  @DF-RHF Final Energy:  -387.24938185263522
    Total Energy =                       -387.2493818526356790
  Basis Set: CC-PVTZ
  Basis Set:
  Basis Set: CC-PVTZ
  Basis Set:
  @DF-RHF Final Energy:  -387.26494348584691
    Total Energy =                       -387.2649434858467430
  Basis Set: CC-PVTZ
  Basis Set:
  @DF-RHF Final Energy:  -387.26584739722000
    Total Energy =                       -387.2658473972202273
  Basis Set: CC-PVTZ
  Basis Set:
  @DF-RHF Final Energy:  -387.26556732192876
    Total Energy =                       -387.2655673219287564
  Basis Set: CC-PVTZ
  Basis Set:
  Basis Set: CC-PVTZ
  Basis Set:
  @DF-RHF Final Energy:  -387.26589204288973
    Total Energy =                       -387.2658920428895044
  Basis Set: CC-PVTZ
  Basis Set:
  Basis Set: CC-PVTZ
  Basis Set:
  @DF-RHF Final Energy:  -387.26589339405814
    Total Energy =                       -387.2658933940581392
  Basis Set: CC-PVTZ
  Basis Set:
  Charge       = 0
  Multiplicity = 1
  Basis Set: CC-PVTZ
  Basis Set:

    Orbital Energies (a.u.)
    -----------------------

    Doubly Occupied:

       1A    -20.538812     2A    -11.320439     3A    -11.229809
       4A    -11.226538     5A    -11.215875     6A    -11.214093
       7A    -11.212377     8A    -11.210446     9A    -11.204533
      10A     -1.398805    11A     -1.092896    12A     -1.054832
      13A     -1.013548    14A     -0.968021    15A     -0.889532
      16A     -0.834953    17A     -0.768133    18A     -0.731907
      19A     -0.661661    20A     -0.653187    21A     -0.632704
      22A     -0.626537    23A     -0.596703    24A     -0.581038
      25A     -0.568919    26A     -0.561734    27A     -0.552602
      28A     -0.515729    29A     -0.505086    30A     -0.496905
      31A     -0.492342    32A     -0.485433    33A     -0.460215
      34A     -0.448867    35A     -0.446452    36A     -0.401740

  @DF-RHF Final Energy:  -387.26589375274011

   => Energetics <=

    Nuclear Repulsion Energy =            446.9012489770719867
    One-Electron Energy =               -1410.7074805954021031
    Two-Electron Energy =                 576.5403378655898905
    DFT Exchange-Correlation Energy =       0.0000000000000000
    Empirical Dispersion Energy =           0.0000000000000000
    PCM Polarization Energy =               0.0000000000000000
    EFP Energy =                            0.0000000000000000
    Total Energy =                       -387.2658937527402259
    Molecular point group: c1
  Basis Set: CC-PVTZ
  Basis Set:

  -Total Gradient:
     Atom            X                  Y                   Z
    ------   -----------------  -----------------  -----------------
       1       -0.000045162538     0.000062645662     0.000016442624
       2       -0.000005514521     0.000013537916    -0.000019145486
       3        0.000033768999     0.000026154122     0.000008293980
       4        0.000004725296    -0.000035124968     0.000031305921
       5        0.000017847720     0.000031440283     0.000070122353
       6        0.000001024623    -0.000015845190    -0.000039105484
       7       -0.000001418968    -0.000024570748     0.000013109693
       8       -0.001060339540    -0.005078303726     0.003733433921
       9        0.000001410209     0.000018606585    -0.000027784467
      10        0.000019240789     0.000009656837     0.000008001508
      11       -0.002662080167    -0.001981765605    -0.005451762188
      12        0.001248717070     0.004580143812    -0.002351351752
      13       -0.000012328918    -0.000026707635     0.000034531098
      14        0.000025248804     0.000071186573    -0.000055775994
      15        0.002437312256     0.002385901706     0.004045212088
      16        0.000002912363    -0.000023342910    -0.000052110083
      17        0.000011636855     0.000009905233     0.000037858067
      18        0.000020178640     0.000001856681     0.000029500467
      19        0.000003853393     0.000030009188    -0.000000390732
      20       -0.000028335538    -0.000019002485     0.000028893526
      21       -0.000002350677    -0.000009737257     0.000000855506
      22       -0.000013385634     0.000012378691    -0.000023763410
      23        0.000003447897    -0.000019160579    -0.000041862751
      24       -0.000012943964     0.000017262969    -0.000001889865
      25        0.000012535553    -0.000037125154     0.000007381463

  **** Optimization is complete! (in 9 steps) ****
    Final optimized geometry and variables:
    Molecular point group: c1

    Geometry (in Angstrom), charge = 0, multiplicity = 1:

    O            2.431538401242     1.190532872214    -0.540418937042
    C            2.479868969855     0.026863862068    -0.772235246103
    C            1.280350190931    -0.883921768344    -0.605639622807
    C            3.754481419157    -0.628229814259    -1.254910585216
    C            0.018908595417    -0.181746652469    -0.121862266476
    H            1.108051059715    -1.375628560871    -1.560484721009
    H            1.566039511183    -1.678946529921     0.079653309966
    C           -1.150533124795    -1.159706574158     0.019111641237
    H           -0.232466333424     0.606665925785    -0.821289135280
    H            0.231448082620     0.307364935057     0.819305703228
    C           -2.504022678128    -0.554367537931     0.463075236552
    H           -1.288207346771    -1.617924656081    -0.955744346539
    H           -0.863100950671    -1.950477863501     0.704520667557
    C           -2.454010564242     0.802341471601     1.170853914551
    H           -2.971080260594    -1.243273262603     1.160080500987
    H           -3.164643947212    -0.471526508987    -0.393456985008
    C           -3.839605296288     1.273117285893     1.602224418367
    H           -1.814137861714     0.736508117363     2.045789467960
    H           -2.011449565882     1.551498899620     0.524417951165
    H           -4.299994892110     0.567269251507     2.285869726643
    H           -3.788379846230     2.232935072571     2.103217309612
    H           -4.499898210775     1.381356673796     0.747881925862
    H            3.594084593680    -1.086694663582    -2.224628761889
    H            4.540011205523     0.108120835193    -1.327245837430
    H            4.053227702818    -1.415720668370    -0.571812763374

  Mulliken Charges: (a.u.)
   Center  Symbol    Alpha    Beta     Spin     Total
       1     O     4.17087  4.17087  0.00000 -0.34175
       2     C     2.86094  2.86094  0.00000  0.27812
       3     C     3.11622  3.11622  0.00000 -0.23245
       4     C     3.15168  3.15168  0.00000 -0.30337
       5     C     3.08606  3.08606  0.00000 -0.17212
       6     H     0.44518  0.44518  0.00000  0.10965
       7     H     0.44570  0.44570  0.00000  0.10859
       8     C     3.09917  3.09917  0.00000 -0.19834
       9     H     0.44510  0.44510  0.00000  0.10980
      10     H     0.44198  0.44198  0.00000  0.11605
      11     C     3.09071  3.09071  0.00000 -0.18142
      12     H     0.45249  0.45249  0.00000  0.09503
      13     H     0.45241  0.45241  0.00000  0.09519
      14     C     3.09037  3.09037  0.00000 -0.18075
      15     H     0.45230  0.45230  0.00000  0.09539
      16     H     0.45185  0.45185  0.00000  0.09630
      17     C     3.15150  3.15150  0.00000 -0.30300
      18     H     0.45278  0.45278  0.00000  0.09444
      19     H     0.44779  0.44779  0.00000  0.10443
      20     H     0.45564  0.45564  0.00000  0.08872
      21     H     0.44742  0.44742  0.00000  0.10516
      22     H     0.45563  0.45563  0.00000  0.08874
      23     H     0.45026  0.45026  0.00000  0.09949
      24     H     0.43540  0.43540  0.00000  0.12919
      25     H     0.45054  0.45054  0.00000  0.09892

   Total alpha = 36.00000, Total beta = 36.00000, Total charge = -0.00000

*** Psi4 exiting successfully. Buy a developer a beer!
