                              Psi4 1.0.54 Driver

  ==> Input File <==

--------------------------------------------------------------------------
set {
	reference rhf
	basis cc-pvtz
}

set_num_threads( 4 )
memory 2 gb

molecule MOL {
0 1

O	 3.219313	 0.959291	 -0.614106
C	 2.698710	 0.058177	 -0.050237
C	 1.246364	 -0.005813	 0.348416
O	 3.344101	 -1.038700	 0.312317
C	 0.453207	 1.232821	 -0.049003
H	 0.839270	 -0.907818	 -0.092281
H	 1.216683	 -0.160521	 1.422434
C	 -0.998367	 1.217982	 0.432195
H	 0.481498	 1.345443	 -1.127236
H	 0.951413	 2.105557	 0.354893
C	 -1.882951	 0.151251	 -0.211235
H	 -1.429490	 2.193659	 0.228843
H	 -1.019755	 1.099323	 1.513279
C	 -3.342450	 0.243269	 0.226009
H	 -1.826223	 0.246578	 -1.293162
H	 -1.508033	 -0.839650	 0.027695
C	 -4.234517	 -0.821434	 -0.405970
H	 -3.730149	 1.228245	 -0.022691
H	 -3.398860	 0.159952	 1.308941
C	 -4.697329	 -0.458153	 -1.812956
H	 -3.698746	 -1.766289	 -0.436286
H	 -5.102546	 -0.984522	 0.227106
H	 -5.327950	 -1.233882	 -2.231938
H	 -3.852460	 -0.322856	 -2.480039
H	 -5.266458	 0.465588	 -1.811477
C	 4.720529	 -1.114346	 0.001449
H	 4.874321	 -1.055557	 -1.065852
H	 5.057824	 -2.067950	 0.373977
H	 5.264321	 -0.313596	 0.480350

	symmetry c1
}
set optking {
	frozen_dihedral = ("
		21 17 14 11
	")
}

ee,wfn = optimize('scf', return_wfn=True)
oeprop( wfn, 'DIPOLE', 'QUADRUPOLE', 'MULLIKEN_CHARGES')
f=open( 'psi4out.xyz', 'w' )
f.write( "29  " )
f.write( str(ee) + "\n" )
f.write( MOL.save_string_xyz() )
f.close()
--------------------------------------------------------------------------

    Molecular point group: c1
  Charge       = 0
  Multiplicity = 1
  Basis Set: CC-PVTZ
  Basis Set:
  @DF-RHF Final Energy:  -501.22228851258842
    Total Energy =                       -501.2222885125883067
    Molecular point group: c1
  Basis Set: CC-PVTZ
  Basis Set:
  Basis Set: CC-PVTZ
  Basis Set:
  @DF-RHF Final Energy:  -501.22246462624094
    Total Energy =                       -501.2224646262413899
  Basis Set: CC-PVTZ
  Basis Set:
  Basis Set: CC-PVTZ
  Basis Set:
  @DF-RHF Final Energy:  -501.22247891109907
    Total Energy =                       -501.2224789110995289
  Basis Set: CC-PVTZ
  Basis Set:
  Basis Set: CC-PVTZ
  Basis Set:
  @DF-RHF Final Energy:  -501.22238558992376
    Total Energy =                       -501.2223855899233058
  Basis Set: CC-PVTZ
  Basis Set:
  Basis Set: CC-PVTZ
  Basis Set:
  @DF-RHF Final Energy:  -501.22249386604335
    Total Energy =                       -501.2224938660434645
  Basis Set: CC-PVTZ
  Basis Set:
  Charge       = 0
  Multiplicity = 1
  Basis Set: CC-PVTZ
  Basis Set:

    Orbital Energies (a.u.)
    -----------------------

    Doubly Occupied:

       1A    -20.596035     2A    -20.533889     3A    -11.364306
       4A    -11.278290     5A    -11.233010     6A    -11.217111
       7A    -11.215522     8A    -11.214127     9A    -11.213696
      10A    -11.212429    11A    -11.206757    12A     -1.471920
      13A     -1.365515    14A     -1.099272    15A     -1.067319
      16A     -1.019412    17A     -0.977024    18A     -0.928849
      19A     -0.867840    20A     -0.802419    21A     -0.784257
      22A     -0.765875    23A     -0.702819    24A     -0.685536
      25A     -0.676056    26A     -0.643967    27A     -0.629160
      28A     -0.610161    29A     -0.602263    30A     -0.583286
      31A     -0.562062    32A     -0.555826    33A     -0.536385
      34A     -0.526154    35A     -0.516944    36A     -0.509450
      37A     -0.502234    38A     -0.476836    39A     -0.473736
      40A     -0.460917    41A     -0.459847    42A     -0.453783
      43A     -0.444028    44A     -0.437612

  @DF-RHF Final Energy:  -501.22249335745403

   => Energetics <=

    Nuclear Repulsion Energy =            615.5498879309747053
    One-Electron Energy =               -1902.5768874793473060
    Two-Electron Energy =                 785.8045061909185733
    DFT Exchange-Correlation Energy =       0.0000000000000000
    Empirical Dispersion Energy =           0.0000000000000000
    PCM Polarization Energy =               0.0000000000000000
    EFP Energy =                            0.0000000000000000
    Total Energy =                       -501.2224933574541410
    Molecular point group: c1
  Basis Set: CC-PVTZ
  Basis Set:

  -Total Gradient:
     Atom            X                  Y                   Z
    ------   -----------------  -----------------  -----------------
       1       -0.000006174201    -0.000008809401    -0.000040931005
       2        0.000019336417     0.000048512548     0.000093819078
       3       -0.000031717706    -0.000019182386    -0.000045239876
       4       -0.000002906240    -0.000028944325    -0.000021718312
       5        0.000015977526     0.000028343849     0.000052654946
       6       -0.000045405881    -0.000040373430    -0.000003110470
       7        0.000011316620     0.000010222176    -0.000005145464
       8       -0.000008328194     0.000026361992    -0.000035644066
       9       -0.000001541416     0.000016992554    -0.000009271868
      10        0.000017740826    -0.000004395465     0.000011909401
      11        0.000358702622    -0.001113774763     0.001359501775
      12       -0.000015153676    -0.000004217701    -0.000014429383
      13       -0.000004326303     0.000017521776    -0.000000861896
      14       -0.000276942218     0.001693024653    -0.002398369293
      15       -0.000012681218     0.000007490306     0.000009287554
      16        0.000044193107    -0.000033959185    -0.000008336523
      17       -0.000909338930    -0.001172855659     0.003218937731
      18        0.000006216922     0.000014268004    -0.000009248649
      19       -0.000001658675     0.000006412454     0.000026932931
      20        0.000003285084    -0.000024034591     0.000021877148
      21        0.000842832337     0.000589663350    -0.002195937294
      22       -0.000008431666    -0.000008902387     0.000007877768
      23       -0.000008624602    -0.000004868348    -0.000013599507
      24        0.000014091428     0.000003143956    -0.000000792939
      25       -0.000006722677     0.000006144076     0.000004147589
      26       -0.000003132813    -0.000001792771    -0.000006137393
      27        0.000003959218    -0.000000501014    -0.000007036610
      28        0.000003165615    -0.000008977827     0.000003524196
      29        0.000002268711     0.000007487560     0.000005340433

  **** Optimization is complete! (in 6 steps) ****
    Final optimized geometry and variables:
    Molecular point group: c1

    Geometry (in Angstrom), charge = 0, multiplicity = 1:

    O            3.131806726839     0.929788468555    -0.436286176107
    C            2.608719834735     0.033815054092     0.133456645276
    C            1.154510145577    -0.026857302963     0.525959797431
    O            3.252454721940    -1.060056501444     0.507927379936
    C            0.363347924952     1.208825957142     0.115443179154
    H            0.749320795142    -0.932223356002     0.090303336081
    H            1.119777366328    -0.173386658944     1.600964534309
    C           -1.091221446721     1.196366294386     0.587662406700
    H            0.398411137014     1.314423924916    -0.963322519161
    H            0.858665832906     2.084452623272     0.516710595873
    C           -1.970184296496     0.122138385239    -0.051152486199
    H           -1.522588415586     2.169371381956     0.372548745068
    H           -1.119177019763     1.087795516018     1.669718741513
    C           -3.428236453956     0.204655040641     0.398882256841
    H           -1.909296221032     0.214689654878    -1.132318181856
    H           -1.591321130847    -0.865706918686     0.193034737443
    C           -4.341902271132    -0.846415451002    -0.240711808021
    H           -3.820160486007     1.197609545320     0.194201719053
    H           -3.455889776984     0.086763469304     1.478709745878
    C           -4.820154280800    -0.474245093226    -1.643159180155
    H           -3.814138812375    -1.794541567249    -0.294638937444
    H           -5.207799026175    -1.005358022694     0.393012002435
    H           -5.447616489789    -1.253848314555    -2.060170383198
    H           -3.989711790671    -0.324760348708    -2.323930051319
    H           -5.400417581296     0.442300826542    -1.624984955748
    C            4.630153323999    -1.138499717440     0.203346939029
    H            4.788335436019    -1.088760042532    -0.863785620529
    H            4.965855309119    -2.088950089600     0.585312868304
    H            5.172085775898    -0.333753644599     0.677672502705

  Mulliken Charges: (a.u.)
   Center  Symbol    Alpha    Beta     Spin     Total
       1     O     4.19696  4.19696  0.00000 -0.39392
       2     C     2.80486  2.80486  0.00000  0.39028
       3     C     3.10178  3.10178  0.00000 -0.20355
       4     O     4.14722  4.14722  0.00000 -0.29444
       5     C     3.09239  3.09239  0.00000 -0.18478
       6     H     0.43919  0.43919  0.00000  0.12162
       7     H     0.43985  0.43985  0.00000  0.12030
       8     C     3.10346  3.10346  0.00000 -0.20692
       9     H     0.44624  0.44624  0.00000  0.10752
      10     H     0.43961  0.43961  0.00000  0.12079
      11     C     3.09424  3.09424  0.00000 -0.18849
      12     H     0.44495  0.44495  0.00000  0.11009
      13     H     0.45337  0.45337  0.00000  0.09325
      14     C     3.09483  3.09483  0.00000 -0.18966
      15     H     0.45193  0.45193  0.00000  0.09614
      16     H     0.45356  0.45356  0.00000  0.09288
      17     C     3.08997  3.08997  0.00000 -0.17993
      18     H     0.45366  0.45366  0.00000  0.09267
      19     H     0.44919  0.44919  0.00000  0.10162
      20     C     3.14870  3.14870  0.00000 -0.29740
      21     H     0.45661  0.45661  0.00000  0.08678
      22     H     0.44750  0.44750  0.00000  0.10499
      23     H     0.44784  0.44784  0.00000  0.10432
      24     H     0.45505  0.45505  0.00000  0.08991
      25     H     0.45506  0.45506  0.00000  0.08988
      26     C     3.03813  3.03813  0.00000 -0.07626
      27     H     0.45435  0.45435  0.00000  0.09130
      28     H     0.44527  0.44527  0.00000  0.10946
      29     H     0.45422  0.45422  0.00000  0.09155

   Total alpha = 44.00000, Total beta = 44.00000, Total charge =  0.00000

*** Psi4 exiting successfully. Buy a developer a beer!
