  ==> Input File <==

--------------------------------------------------------------------------
set {
	reference rhf
	basis cc-pvtz
}

set_num_threads( 4 )
memory 2 gb

molecule MOL {
0 1

O	 1.847685	 1.294399	 -0.000190
C	 1.704209	 0.119472	 -0.000093
C	 0.380337	 -0.600947	 -0.000234
O	 2.715427	 -0.733672	 0.000025
C	 -0.824290	 0.329213	 -0.000115
H	 0.371455	 -1.255476	 -0.865660
H	 0.371410	 -1.255787	 0.864952
C	 -2.146151	 -0.432825	 -0.000068
H	 -0.773936	 0.979158	 -0.866319
H	 -0.773838	 0.979034	 0.866186
C	 -3.366283	 0.483552	 0.000557
H	 -2.189286	 -1.084450	 -0.869996
H	 -2.188867	 -1.085083	 0.869399
C	 -4.655983	 -0.235864	 -0.379610
H	 -3.196067	 1.306567	 -0.687796
H	 -3.478617	 0.929231	 0.984890
H	 -4.587363	 -0.663544	 -1.374404
H	 -5.501245	 0.442491	 -0.369573
H	 -4.872363	 -1.043613	 0.311734
C	 4.020999	 -0.192556	 0.000019
H	 4.182809	 0.412891	 -0.879449
H	 4.692590	 -1.035653	 0.000152
H	 4.182726	 0.413087	 0.879368

	symmetry c1
}
set optking {
	frozen_dihedral = ("
		15 11 8 12
	")
}

ee = optimize('scf')
oeprop('DIPOLE', 'QUADRUPOLE', 'MULLIKEN_CHARGES')
f=open( 'psi4out.xyz', 'w' )
f.write( "23  " )
f.write( str(ee) + "\n" )
f.write( MOL.save_string_xyz() )
f.close()
--------------------------------------------------------------------------

    Molecular point group: c1
  Charge       = 0
  Multiplicity = 1
  Basis Set: CC-PVTZ
  Basis Set:
  @DF-RHF Final Energy:  -423.13018161702695
    Total Energy =                       -423.1301816170271195
    Molecular point group: c1
  Basis Set: CC-PVTZ
  Basis Set:
  Basis Set: CC-PVTZ
  Basis Set:
  @DF-RHF Final Energy:  -423.13029496018305
    Total Energy =                       -423.1302949601830505
  Basis Set: CC-PVTZ
  Basis Set:
  Basis Set: CC-PVTZ
  Basis Set:
  @DF-RHF Final Energy:  -423.13032090445756
    Total Energy =                       -423.1303209044574487
  Basis Set: CC-PVTZ
  Basis Set:
  Basis Set: CC-PVTZ
  Basis Set:
  @DF-RHF Final Energy:  -423.13024788217956
    Total Energy =                       -423.1302478821799014
  Basis Set: CC-PVTZ
  Basis Set:
  Basis Set: CC-PVTZ
  Basis Set:
  @DF-RHF Final Energy:  -423.13032347618906
    Total Energy =                       -423.1303234761885506
  Basis Set: CC-PVTZ
  Basis Set:
  Charge       = 0
  Multiplicity = 1
  Basis Set: CC-PVTZ
  Basis Set:

    Orbital Energies (a.u.)
    -----------------------

    Doubly Occupied:

       1A    -20.596329     2A    -20.534151     3A    -11.364587
       4A    -11.278482     5A    -11.233815     6A    -11.217435
       7A    -11.215714     8A    -11.214397     9A    -11.208019
      10A     -1.472231    11A     -1.365811    12A     -1.094372
      13A     -1.044681    14A     -0.988160    15A     -0.932822
      16A     -0.844511    17A     -0.795952    18A     -0.769395
      19A     -0.699201    20A     -0.686862    21A     -0.675465
      22A     -0.651277    23A     -0.609634    24A     -0.601230
      25A     -0.573892    26A     -0.562716    27A     -0.555223
      28A     -0.525378    29A     -0.522303    30A     -0.508336
      31A     -0.485662    32A     -0.471283    33A     -0.465097
      34A     -0.463294    35A     -0.458609    36A     -0.438498

  @DF-RHF Final Energy:  -423.13032363061302

   => Energetics <=

    Nuclear Repulsion Energy =            452.8836948446861470
    One-Electron Energy =               -1473.7783778121743126
    Two-Electron Energy =                 597.7643593368760548
    DFT Exchange-Correlation Energy =       0.0000000000000000
    Empirical Dispersion Energy =           0.0000000000000000
    PCM Polarization Energy =               0.0000000000000000
    EFP Energy =                            0.0000000000000000
    Total Energy =                       -423.1303236306121107
    Molecular point group: c1
  Basis Set: CC-PVTZ
  Basis Set:

  -Total Gradient:
     Atom            X                  Y                   Z
    ------   -----------------  -----------------  -----------------
       1       -0.000002586913    -0.000006832507     0.000006902135
       2       -0.000002332454     0.000027066735    -0.000016553462
       3        0.000005388794    -0.000012233554     0.000010404055
       4        0.000012096128    -0.000039049735     0.000006302326
       5        0.000006733118     0.000019309238    -0.000022170223
       6        0.000002952555     0.000004509578     0.000000975085
       7        0.000002250547    -0.000001002944    -0.000000270024
       8        0.001995405545     0.002740633525    -0.001363270574
       9        0.000000642289    -0.000002669054     0.000001721536
      10       -0.000010295540    -0.000005376565    -0.000002937401
      11       -0.001771951766    -0.002311630592    -0.002212296506
      12       -0.001390659714    -0.001919416099     0.001506041330
      13       -0.000001725064    -0.000003853369     0.000004945687
      14       -0.000002410127    -0.000011188524    -0.000012266970
      15        0.001169608933     0.001490961052     0.002082076267
      16        0.000000891011     0.000001682053     0.000007164685
      17       -0.000000268583     0.000001054504     0.000003174781
      18        0.000008481646     0.000003586760     0.000001600765
      19        0.000008205754     0.000006520691    -0.000000911526
      20       -0.000011139795     0.000029708778    -0.000000911487
      21       -0.000001069570    -0.000005018020     0.000003572587
      22       -0.000017375704    -0.000001794700    -0.000000047564
      23       -0.000000841089    -0.000004967245    -0.000003245502

  **** Optimization is complete! (in 6 steps) ****
    Final optimized geometry and variables:
    Molecular point group: c1

    Geometry (in Angstrom), charge = 0, multiplicity = 1:

    O            1.846727151555     1.289230266991     0.035486905511
    C            1.702718563593     0.114398538837     0.044818014591
    C            0.378646090686    -0.605449180252     0.036316695660
    O            2.713493124128    -0.739095615672     0.064658074439
    C           -0.825123795090     0.325380646884     0.013608862137
    H            0.379081091648    -1.267907400531    -0.823130142351
    H            0.359532206138    -1.252093875137     0.907400502035
    C           -2.146805672523    -0.434626650204    -0.001884669821
    H           -0.761914300556     0.970649856611    -0.855018930050
    H           -0.787542751885     0.979966226002     0.877268936975
    C           -3.371397981352     0.478548213768     0.032027476168
    H           -2.199265104745    -1.080106154929    -0.875865568352
    H           -2.187820797548    -1.105959217315     0.853513215630
    C           -4.673348546403    -0.242414969931    -0.295281282244
    H           -3.222614327921     1.311273540241    -0.649539291949
    H           -3.447318481938     0.925294610951     1.019812879297
    H           -4.653843296748    -0.648529308500    -1.301040301229
    H           -5.521994104487     0.428090131040    -0.225319794847
    H           -4.846348439151    -1.066554183418     0.389200184137
    C            4.019089653072    -0.198350623777     0.074737835252
    H            4.191399636639     0.398809935200    -0.808398086119
    H            4.690298969747    -1.041611238157     0.090495249969
    H            4.170954065683     0.415399062625     0.950219965760

  Mulliken Charges: (a.u.)
   Center  Symbol    Alpha    Beta     Spin     Total
       1     O     4.19702  4.19702  0.00000 -0.39404
       2     C     2.80678  2.80678  0.00000  0.38644
       3     C     3.10153  3.10153  0.00000 -0.20306
       4     O     4.14646  4.14646  0.00000 -0.29292
       5     C     3.08298  3.08298  0.00000 -0.16596
       6     H     0.43995  0.43995  0.00000  0.12009
       7     H     0.43998  0.43998  0.00000  0.12003
       8     C     3.09020  3.09020  0.00000 -0.18040
       9     H     0.44623  0.44623  0.00000  0.10755
      10     H     0.44621  0.44621  0.00000  0.10759
      11     C     3.08437  3.08437  0.00000 -0.16874
      12     H     0.45620  0.45620  0.00000  0.08759
      13     H     0.45551  0.45551  0.00000  0.08899
      14     C     3.14976  3.14976  0.00000 -0.29952
      15     H     0.45352  0.45352  0.00000  0.09296
      16     H     0.45326  0.45326  0.00000  0.09349
      17     H     0.45517  0.45517  0.00000  0.08967
      18     H     0.44787  0.44787  0.00000  0.10426
      19     H     0.45519  0.45519  0.00000  0.08962
      20     C     3.03778  3.03778  0.00000 -0.07557
      21     H     0.45434  0.45434  0.00000  0.09131
      22     H     0.44533  0.44533  0.00000  0.10933
      23     H     0.45436  0.45436  0.00000  0.09128

   Total alpha = 36.00000, Total beta = 36.00000, Total charge = -0.00000
