                              Psi4 1.0.54 Driver

  ==> Input File <==

--------------------------------------------------------------------------
set {
	reference rhf
	basis cc-pvtz
}

set_num_threads( 4 )
memory 2 gb

molecule MOL {
0 1

H	 -0.000342	 -0.223902	 -3.352295
C	 -0.027146	 0.371068	 -2.446756
C	 0.024493	 -0.518541	 -1.216015
H	 -0.932586	 0.964979	 -2.449855
H	 0.819708	 1.049865	 -2.473332
N	 -0.042516	 0.263377	 0.000000
H	 -0.822211	 -1.197105	 -1.225584
H	 0.921114	 -1.142847	 -1.255206
C	 0.024493	 -0.518541	 1.216015
H	 0.682568	 0.950412	 0.000000
C	 0.881216	 0.168276	 2.266302
H	 -0.985394	 -0.636534	 1.595032
H	 0.406851	 -1.526919	 1.036579
H	 0.490852	 1.152741	 2.492150
H	 0.906528	 -0.412307	 3.181174
H	 1.903977	 0.283764	 1.920967

	symmetry c1
}
set optking {
	frozen_dihedral = ("
		12 9 6 3
	")
}

ee,wfn = optimize('scf', return_wfn=True)
oeprop( wfn, 'DIPOLE', 'QUADRUPOLE', 'MULLIKEN_CHARGES')
f=open( 'psi4out.xyz', 'w' )
f.write( "16  " )
f.write( str(ee) + "\n" )
f.write( MOL.save_string_xyz() )
f.close()
--------------------------------------------------------------------------

    Molecular point group: c1
  Charge       = 0
  Multiplicity = 1
  Basis Set: CC-PVTZ
  Basis Set:
  @DF-RHF Final Energy:  -212.39062138314000
    Total Energy =                       -212.3906213831398873
    Molecular point group: c1
  Basis Set: CC-PVTZ
  Basis Set:
  Basis Set: CC-PVTZ
  Basis Set:
  @DF-RHF Final Energy:  -212.39091811370690
    Total Energy =                       -212.3909181137069027
  Basis Set: CC-PVTZ
  Basis Set:
  Basis Set: CC-PVTZ
  Basis Set:
  @DF-RHF Final Energy:  -212.39097085275247
    Total Energy =                       -212.3909708527525027
  Basis Set: CC-PVTZ
  Basis Set:
  Basis Set: CC-PVTZ
  Basis Set:
  @DF-RHF Final Energy:  -212.39097259029464
    Total Energy =                       -212.3909725902946661
  Basis Set: CC-PVTZ
  Basis Set:
  Charge       = 0
  Multiplicity = 1
  Basis Set: CC-PVTZ
  Basis Set:

    Orbital Energies (a.u.)
    -----------------------

    Doubly Occupied:

       1A    -15.527258     2A    -11.239010     3A    -11.238788
       4A    -11.210980     5A    -11.206072     6A     -1.205101
       7A     -1.029870     8A     -0.964219     9A     -0.835005
      10A     -0.822845    11A     -0.651033    12A     -0.629368
      13A     -0.616092    14A     -0.586015    15A     -0.553025
      16A     -0.522093    17A     -0.507563    18A     -0.492613
      19A     -0.486025    20A     -0.472515    21A     -0.360218

  @DF-RHF Final Energy:  -212.39097274155046

   => Energetics <=

    Nuclear Repulsion Energy =            189.6314972375996604
    One-Electron Energy =                -661.7335269726754632
    Two-Electron Energy =                 259.7110569935254034
    DFT Exchange-Correlation Energy =       0.0000000000000000
    Empirical Dispersion Energy =           0.0000000000000000
    PCM Polarization Energy =               0.0000000000000000
    EFP Energy =                            0.0000000000000000
    Total Energy =                       -212.3909727415503994
    Molecular point group: c1
  Basis Set: CC-PVTZ
  Basis Set:

  -Total Gradient:
     Atom            X                  Y                   Z
    ------   -----------------  -----------------  -----------------
       1       -0.000000005747     0.000002258575    -0.000002685120
       2        0.000006308949    -0.000002765465    -0.000005291878
       3        0.003025414364     0.000277911259     0.000044742113
       4        0.000001078004    -0.000003000568     0.000002457229
       5        0.000001266056     0.000001479625    -0.000001523674
       6       -0.004205837625     0.000418945174     0.000502203463
       7       -0.000002629121    -0.000008811600    -0.000007189369
       8        0.000002881929    -0.000003004686    -0.000003565967
       9        0.000770598917    -0.003977163969    -0.002632945356
      10       -0.000010347819     0.000009605433     0.000001406383
      11        0.000014003745    -0.000009900701    -0.000003878209
      12        0.000424141027     0.003295468607     0.002086382878
      13       -0.000004953635    -0.000007283462     0.000008357880
      14       -0.000001937241     0.000006781242     0.000002146724
      15       -0.000002349458    -0.000001807080     0.000009189570
      16       -0.000017632344     0.000001287614     0.000000193332

  **** Optimization is complete! (in 5 steps) ****
    Final optimized geometry and variables:
    Molecular point group: c1

    Geometry (in Angstrom), charge = 0, multiplicity = 1:

    H           -0.178849718104    -0.157412638431    -3.325105498800
    C           -0.212239224957     0.428226720956    -2.413648255997
    C           -0.158909778714    -0.473103362435    -1.191908314019
    H           -1.120878040088     1.017140957683    -2.413682352156
    H            0.630733603883     1.112326606752    -2.430136544980
    N           -0.223069201262     0.298711367933     0.031984579877
    H           -1.005003446190    -1.152693078618    -1.210230285141
    H            0.737876049013    -1.096156745589    -1.236045026518
    C           -0.159832117569    -0.486552079931     1.255398430496
    H            0.512305133960     0.972787939036     0.028310222855
    C            0.679409984541     0.204257893687     2.320568828054
    H           -1.162994323370    -0.612364983280     1.651124801317
    H            0.246286992910    -1.478781651737     1.067719975845
    H            0.296957289344     1.198819314291     2.522436547318
    H            0.661644319125    -0.355753532966     3.247916936681
    H            1.714006708900     0.297254433659     2.005601130074

  Mulliken Charges: (a.u.)
   Center  Symbol    Alpha    Beta     Spin     Total
       1     H     0.45369  0.45369  0.00000  0.09262
       2     C     3.14334  3.14334  0.00000 -0.28668
       3     C     3.02217  3.02217  0.00000 -0.04435
       4     H     0.44930  0.44930  0.00000  0.10139
       5     H     0.45976  0.45976  0.00000  0.08048
       6     N     3.63657  3.63657  0.00000 -0.27315
       7     H     0.45800  0.45800  0.00000  0.08400
       8     H     0.47387  0.47387  0.00000  0.05225
       9     C     3.01755  3.01755  0.00000 -0.03510
      10     H     0.44713  0.44713  0.00000  0.10575
      11     C     3.15021  3.15021  0.00000 -0.30041
      12     H     0.45875  0.45875  0.00000  0.08249
      13     H     0.47102  0.47102  0.00000  0.05796
      14     H     0.45010  0.45010  0.00000  0.09980
      15     H     0.45039  0.45039  0.00000  0.09922
      16     H     0.45814  0.45814  0.00000  0.08372

   Total alpha = 21.00000, Total beta = 21.00000, Total charge = -0.00000

*** Psi4 exiting successfully. Buy a developer a beer!
