  ==> Input File <==

--------------------------------------------------------------------------
set {
	reference rhf
	basis 6-31G*
}

set_num_threads( 4 )
memory 2 gb

molecule MOL {
0 1

H	 1.012811	 -1.260354	 -0.747327
O	 1.654024	 -0.625927	 -0.460906
C	 1.135793	 0.118896	 0.612333
C	 0.031547	 1.023609	 0.088541
H	 1.915668	 0.729681	 1.063582
H	 0.754543	 -0.542641	 1.387006
C	 -1.134819	 0.293262	 -0.585751
H	 0.474374	 1.714721	 -0.623187
H	 -0.338529	 1.620940	 0.920081
C	 -1.917817	 -0.639439	 0.339494
H	 -0.758119	 -0.268455	 -1.433105
H	 -1.813832	 1.041889	 -0.986690
H	 -2.777680	 -1.057197	 -0.174994
H	 -1.310268	 -1.471279	 0.680599
H	 -2.283753	 -0.111424	 1.216626

	symmetry c1
}
set optking {
	frozen_dihedral = ("
		1 2 3 4
	")
}

ee = optimize('scf')
oeprop('DIPOLE', 'QUADRUPOLE', 'MULLIKEN_CHARGES')
f=open( 'psi4out.xyz', 'w' )
f.write( "15  " )
f.write( str(ee) + "\n" )
f.write( MOL.save_string_xyz() )
f.close()
--------------------------------------------------------------------------

    Molecular point group: c1
  Charge       = 0
  Multiplicity = 1
  Basis Set: 6-31G*
  Basis Set:
  @DF-RHF Final Energy:  -232.14089976042104
    Total Energy =                       -232.1408997604210072
    Molecular point group: c1
  Basis Set: 6-31G*
  Basis Set:
  Basis Set: 6-31G*
  Basis Set:
  @DF-RHF Final Energy:  -232.14248065732716
    Total Energy =                       -232.1424806573272122
  Basis Set: 6-31G*
  Basis Set:
  Basis Set: 6-31G*
  Basis Set:
  @DF-RHF Final Energy:  -232.14303025989454
    Total Energy =                       -232.1430302598946582
  Basis Set: 6-31G*
  Basis Set:
  Basis Set: 6-31G*
  Basis Set:
  @DF-RHF Final Energy:  -232.14301111106187
    Total Energy =                       -232.1430111110618100
  Basis Set: 6-31G*
  Basis Set:
  Basis Set: 6-31G*
  Basis Set:
  @DF-RHF Final Energy:  -232.14303888125812
    Total Energy =                       -232.1430388812581782
  Basis Set: 6-31G*
  Basis Set:
  Basis Set: 6-31G*
  Basis Set:
  @DF-RHF Final Energy:  -232.14304322504910
    Total Energy =                       -232.1430432250491549
  Basis Set: 6-31G*
  Basis Set:
  Charge       = 0
  Multiplicity = 1
  Basis Set: 6-31G*
  Basis Set:

    Orbital Energies (a.u.)
    -----------------------

    Doubly Occupied:

       1A    -20.552784     2A    -11.266886     3A    -11.223711
       4A    -11.217191     5A    -11.216797     6A     -1.359428
       7A     -1.071612     8A     -0.976316     9A     -0.880203
      10A     -0.787000    11A     -0.694861    12A     -0.645044
      13A     -0.616528    14A     -0.585100    15A     -0.572623
      16A     -0.547501    17A     -0.502792    18A     -0.493026
      19A     -0.478131    20A     -0.459403    21A     -0.426715

  @DF-RHF Final Energy:  -232.14304325361636

   => Energetics <=

    Nuclear Repulsion Energy =            191.4994031943797097
    One-Electron Energy =                -694.1375863278547058
    Two-Electron Energy =                 270.4951398798586979
    DFT Exchange-Correlation Energy =       0.0000000000000000
    Empirical Dispersion Energy =           0.0000000000000000
    PCM Polarization Energy =               0.0000000000000000
    EFP Energy =                            0.0000000000000000
    Total Energy =                       -232.1430432536162698
    Molecular point group: c1
  Basis Set: 6-31G*
  Basis Set:

  -Total Gradient:
     Atom            X                  Y                   Z
    ------   -----------------  -----------------  -----------------
       1       -0.000081080636     0.000161360189    -0.000180870908
       2        0.000090548438    -0.000283278552     0.000192960201
       3        0.000117163448     0.000198717475    -0.000070715759
       4       -0.000106238689    -0.000094603786     0.000032950091
       5       -0.000015806742     0.000003117707     0.000000459622
       6       -0.000004012089     0.000008178905     0.000016990806
       7        0.000000287475    -0.000000470055    -0.000017202704
       8       -0.000000101670     0.000008828328    -0.000002711987
       9       -0.000006044196     0.000001104596     0.000000596807
      10       -0.000004908252    -0.000002801373     0.000005543432
      11       -0.000013969354    -0.000000506169     0.000003719470
      12        0.000019442044     0.000015065607     0.000006432215
      13        0.000010675942    -0.000008262637     0.000000301702
      14        0.000005587330    -0.000004926975     0.000013579419
      15       -0.000011543052    -0.000001523259    -0.000002032407

  **** Optimization is complete! (in 7 steps) ****
    Final optimized geometry and variables:
    Molecular point group: c1

    Geometry (in Angstrom), charge = 0, multiplicity = 1:

    H            1.158923054594    -1.286829033036    -0.749415052143
    O            1.758565410747    -0.630216732377    -0.425835911516
    C            1.144335605815     0.110588367028     0.597801513037
    C            0.027871483555     1.020069991010     0.091946884746
    H            1.928935591931     0.715676490345     1.033243387782
    H            0.781077702091    -0.550742779749     1.381360193814
    C           -1.150504189259     0.302758958367    -0.578164690045
    H            0.460990380812     1.720281347759    -0.616736174323
    H           -0.339929933191     1.606998516722     0.932127942197
    C           -1.939573725432    -0.627728399273     0.345804262299
    H           -0.794630123135    -0.253539441307    -1.442524583263
    H           -1.825380295116     1.056143872277    -0.974678365667
    H           -2.796317534296    -1.048302316474    -0.171083719386
    H           -1.338724004309    -1.458424869279     0.703959710401
    H           -2.308894712861    -0.092464816064     1.216031396640

  Mulliken Charges: (a.u.)
   Center  Symbol    Alpha    Beta     Spin     Total
       1     H     0.28004  0.28004  0.00000  0.43991
       2     O     4.37104  4.37104  0.00000 -0.74207
       3     C     2.99908  2.99908  0.00000  0.00183
       4     C     3.16266  3.16266  0.00000 -0.32531
       5     H     0.41406  0.41406  0.00000  0.17187
       6     H     0.42956  0.42956  0.00000  0.14088
       7     C     3.16357  3.16357  0.00000 -0.32714
       8     H     0.41356  0.41356  0.00000  0.17287
       9     H     0.42443  0.42443  0.00000  0.15113
      10     C     3.24238  3.24238  0.00000 -0.48477
      11     H     0.42411  0.42411  0.00000  0.15177
      12     H     0.41575  0.41575  0.00000  0.16849
      13     H     0.41657  0.41657  0.00000  0.16686
      14     H     0.42384  0.42384  0.00000  0.15231
      15     H     0.41932  0.41932  0.00000  0.16135

   Total alpha = 21.00000, Total beta = 21.00000, Total charge =  0.00000
