                              Psi4 1.0.54 Driver

  ==> Input File <==

--------------------------------------------------------------------------
set {
	reference rhf
	basis cc-pvtz
}

set_num_threads( 4 )
memory 2 gb

molecule MOL {
0 1

H	 2.370588	 -0.769384	 0.517105
C	 1.637603	 0.012495	 0.623077
O	 0.462329	 -0.453336	 -0.000137
H	 2.003922	 0.910875	 0.142513
H	 1.471228	 0.203699	 1.675692
C	 -0.590565	 0.341382	 0.000062
O	 -1.693898	 -0.053880	 0.000252
H	 -0.340426	 1.403822	 0.000200

	symmetry c1
}
set optking {
	frozen_dihedral = ("
		2 3 6 7
	")
}

ee,wfn = optimize('scf', return_wfn=True)
oeprop( wfn, 'DIPOLE', 'QUADRUPOLE', 'MULLIKEN_CHARGES')
f=open( 'psi4out.xyz', 'w' )
f.write( "8  " )
f.write( str(ee) + "\n" )
f.write( MOL.save_string_xyz() )
f.close()
--------------------------------------------------------------------------

    Molecular point group: c1
  Charge       = 0
  Multiplicity = 1
  Basis Set: CC-PVTZ
  Basis Set:
  @DF-RHF Final Energy:  -227.86756962542586
    Total Energy =                       -227.8675696254259719
    Molecular point group: c1
  Basis Set: CC-PVTZ
  Basis Set:
  Basis Set: CC-PVTZ
  Basis Set:
  @DF-RHF Final Energy:  -227.86759191411528
    Total Energy =                       -227.8675919141153372
  Basis Set: CC-PVTZ
  Basis Set:
  Basis Set: CC-PVTZ
  Basis Set:
  @DF-RHF Final Energy:  -227.86733294613742
    Total Energy =                       -227.8673329461375090
  Basis Set: CC-PVTZ
  Basis Set:
  Basis Set: CC-PVTZ
  Basis Set:
  @DF-RHF Final Energy:  -227.86782916687065
    Total Energy =                       -227.8678291668707629
  Basis Set: CC-PVTZ
  Basis Set:
  Basis Set: CC-PVTZ
  Basis Set:
  @DF-RHF Final Energy:  -227.86785173031041
    Total Energy =                       -227.8678517303104911
  Basis Set: CC-PVTZ
  Basis Set:
  Basis Set: CC-PVTZ
  Basis Set:
  @DF-RHF Final Energy:  -227.86785607935656
    Total Energy =                       -227.8678560793565850
  Basis Set: CC-PVTZ
  Basis Set:
  Charge       = 0
  Multiplicity = 1
  Basis Set: CC-PVTZ
  Basis Set:

    Orbital Energies (a.u.)
    -----------------------

    Doubly Occupied:

       1A    -20.606768     2A    -20.550416     3A    -11.374932
       4A    -11.301862     5A     -1.478804     6A     -1.387194
       7A     -0.992893     8A     -0.848443     9A     -0.740733
      10A     -0.688426    11A     -0.684336    12A     -0.612601
      13A     -0.572539    14A     -0.536349    15A     -0.468830
      16A     -0.458105

  @DF-RHF Final Energy:  -227.86785642511731

   => Energetics <=

    Nuclear Repulsion Energy =            121.5548518828391309
    One-Electron Energy =                -552.2389569358492736
    Two-Electron Energy =                 202.8162486278928895
    DFT Exchange-Correlation Energy =       0.0000000000000000
    Empirical Dispersion Energy =           0.0000000000000000
    PCM Polarization Energy =               0.0000000000000000
    EFP Energy =                            0.0000000000000000
    Total Energy =                       -227.8678564251172816
    Molecular point group: c1
  Basis Set: CC-PVTZ
  Basis Set:

  -Total Gradient:
     Atom            X                  Y                   Z
    ------   -----------------  -----------------  -----------------
       1        0.000018089350     0.000011244005     0.000010061126
       2       -0.001095819527    -0.001038626703     0.003395297688
       3        0.001785384370     0.001824229299    -0.002765579993
       4       -0.000005843941     0.000000682497     0.000002005415
       5       -0.000018925825    -0.000000636056    -0.000015319595
       6       -0.000785423815    -0.001445833383    -0.005345225311
       7        0.000096962462     0.000668798865     0.004713096121
       8        0.000005576926    -0.000019858524     0.000005664549

  **** Optimization is complete! (in 7 steps) ****
    Final optimized geometry and variables:
    Molecular point group: c1

    Geometry (in Angstrom), charge = 0, multiplicity = 1:

    H            2.449706959497    -0.658288952121     0.171440162880
    C            1.670492431662     0.036464297686     0.437478964877
    O            0.471752533933    -0.458849241931    -0.110715792371
    H            1.913916821650     1.013549969379     0.035724699413
    H            1.594220056738     0.097505628293     1.515011816288
    C           -0.551542022652     0.373983372491    -0.207662243740
    O           -1.670645369164     0.033209663294    -0.148686048577
    H           -0.253695353303     1.415312254027    -0.341669546690

  Mulliken Charges: (a.u.)
   Center  Symbol    Alpha    Beta     Spin     Total
       1     H     0.44186  0.44186  0.00000  0.11629
       2     C     3.02882  3.02882  0.00000 -0.05764
       3     O     4.12627  4.12627  0.00000 -0.25254
       4     H     0.46475  0.46475  0.00000  0.07051
       5     H     0.45574  0.45574  0.00000  0.08851
       6     C     2.83494  2.83494  0.00000  0.33012
       7     O     4.17067  4.17067  0.00000 -0.34135
       8     H     0.47695  0.47695  0.00000  0.04610

   Total alpha = 16.00000, Total beta = 16.00000, Total charge =  0.00000

*** Psi4 exiting successfully. Buy a developer a beer!
