  ==> Input File <==

--------------------------------------------------------------------------
set {
	reference rhf
	basis 6-31G*
}

set_num_threads( 1 )
memory 2 gb

molecule MOL {
0 1

H	 -1.565112	 1.299368	 2.618473
O	 -1.195594	 2.034911	 2.150691
C	 -0.634915	 1.592997	 0.943487
C	 0.677300	 0.866063	 1.178704
H	 -1.317122	 0.948112	 0.396610
H	 -0.457414	 2.471660	 0.339422
O	 1.171513	 0.459272	 -0.058250
H	 0.516762	 0.004446	 1.829722
H	 1.377208	 1.529615	 1.683095
C	 2.397842	 -0.198080	 -0.002151
H	 2.508049	 -0.905315	 -0.822092
H	 3.173794	 0.550865	 -0.078850
H	 2.517602	 -0.735921	 0.936026

	symmetry c1
}
set optking {
	frozen_dihedral = ("
		8 4 3 5,
		1 2 3 5,
		10 7 4 8
	")
}

ee = energy('scf')
oeprop('DIPOLE', 'QUADRUPOLE', 'MULLIKEN_CHARGES')
f=open( 'psi4out.xyz', 'w' )
f.write( "13  " )
f.write( str(ee) + "\n" )
f.write( MOL.save_string_xyz() )
f.close()
--------------------------------------------------------------------------

    Molecular point group: c1

    Geometry (in Angstrom), charge = 0, multiplicity = 1:

       Center              X                  Y                   Z               Mass
    ------------   -----------------  -----------------  -----------------  -----------------
           H         -2.034579788750     0.349638531529     1.752421604580     1.007825032070
           O         -1.665061788750     1.085181531529     1.284639604580    15.994914619560
           C         -1.104382788750     0.643267531529     0.077435604580    12.000000000000
           C          0.207832211250    -0.083666468471     0.312652604580    12.000000000000
           H         -1.786589788750    -0.001617468471    -0.469441395420     1.007825032070
           H         -0.926881788750     1.521930531529    -0.526629395420     1.007825032070
           O          0.702045211250    -0.490457468471    -0.924301395420    15.994914619560
           H          0.047294211250    -0.945283468471     0.963670604580     1.007825032070
           H          0.907740211250     0.579885531529     0.817043604580     1.007825032070
           C          1.928374211250    -1.147809468471    -0.868202395420    12.000000000000
           H          2.038581211250    -1.855044468471    -1.688143395420     1.007825032070
           H          2.704326211250    -0.398864468471    -0.944901395420     1.007825032070
           H          2.048134211250    -1.685650468471     0.069974604580     1.007825032070

  Charge       = 0
  Multiplicity = 1
  Basis Set: 6-31G*
  Basis Set:

    Orbital Energies (a.u.)
    -----------------------

    Doubly Occupied:

       1A    -20.560164     2A    -20.560105     3A    -11.271499
       4A    -11.269941     5A    -11.268890     6A     -1.388097
       7A     -1.365148     8A     -1.018076     9A     -0.913156
      10A     -0.842557    11A     -0.709320    12A     -0.673131
      13A     -0.659678    14A     -0.638413    15A     -0.595963
      16A     -0.567141    17A     -0.549521    18A     -0.488713
      19A     -0.482062    20A     -0.438681    21A     -0.418510

  @DF-RHF Final Energy:  -267.94779605843684

   => Energetics <=

    Nuclear Repulsion Energy =            190.2877477043913927
    One-Electron Energy =                -743.1135643853557440
    Two-Electron Energy =                 284.8780206225272309
    DFT Exchange-Correlation Energy =       0.0000000000000000
    Empirical Dispersion Energy =           0.0000000000000000
    PCM Polarization Energy =               0.0000000000000000
    EFP Energy =                            0.0000000000000000
    Total Energy =                       -267.9477960584371772

  Mulliken Charges: (a.u.)
   Center  Symbol    Alpha    Beta     Spin     Total
       1     H     0.28130  0.28130  0.00000  0.43740
       2     O     4.37080  4.37080  0.00000 -0.74160
       3     C     3.00484  3.00484  0.00000 -0.00968
       4     C     2.99731  2.99731  0.00000  0.00537
       5     H     0.42220  0.42220  0.00000  0.15559
       6     H     0.40841  0.40841  0.00000  0.18319
       7     O     4.30892  4.30892  0.00000 -0.61785
       8     H     0.43678  0.43678  0.00000  0.12644
       9     H     0.42367  0.42367  0.00000  0.15267
      10     C     3.07900  3.07900  0.00000 -0.15799
      11     H     0.41386  0.41386  0.00000  0.17229
      12     H     0.42317  0.42317  0.00000  0.15366
      13     H     0.42975  0.42975  0.00000  0.14050

   Total alpha = 21.00000, Total beta = 21.00000, Total charge = -0.00000
