  ==> Input File <==

--------------------------------------------------------------------------
set {
	reference rhf
	basis 6-31G*
}

set_num_threads( 4 )
memory 2 gb

molecule MOL {
0 1

H	 1.173145	 0.227650	 1.791227
O	 1.365131	 -0.126983	 0.933772
C	 0.709265	 0.639550	 -0.033818
C	 -0.793441	 0.596080	 0.058728
H	 1.026355	 0.249760	 -0.994401
H	 1.039590	 1.677044	 0.005115
C	 -1.530462	 -0.493172	 -0.025500
H	 -1.268471	 1.554324	 0.202247
H	 -1.092586	 -1.461565	 -0.186463
H	 -2.602122	 -0.450675	 0.050101

	symmetry c1
}
set optking {
	frozen_dihedral = ("
		5 3 4 7
	")
}

ee = optimize('scf')
oeprop('DIPOLE', 'QUADRUPOLE', 'MULLIKEN_CHARGES')
f=open( 'psi4out.xyz', 'w' )
f.write( "10  " )
f.write( str(ee) + "\n" )
f.write( MOL.save_string_xyz() )
f.close()
--------------------------------------------------------------------------

    Molecular point group: c1
  Charge       = 0
  Multiplicity = 1
  Basis Set: 6-31G*
  Basis Set:
  @DF-RHF Final Energy:  -191.91210671716840
    Total Energy =                       -191.9121067171684274
    Molecular point group: c1
  Basis Set: 6-31G*
  Basis Set:
  Basis Set: 6-31G*
  Basis Set:
  @DF-RHF Final Energy:  -191.91273772355328
    Total Energy =                       -191.9127377235533345
  Basis Set: 6-31G*
  Basis Set:
  Basis Set: 6-31G*
  Basis Set:
  @DF-RHF Final Energy:  -191.91282031550946
    Total Energy =                       -191.9128203155093502
  Basis Set: 6-31G*
  Basis Set:
  Basis Set: 6-31G*
  Basis Set:
  @DF-RHF Final Energy:  -191.91283043207406
    Total Energy =                       -191.9128304320740881
  Basis Set: 6-31G*
  Basis Set:
  Basis Set: 6-31G*
  Basis Set:
  @DF-RHF Final Energy:  -191.91283247952481
    Total Energy =                       -191.9128324795248091
  Basis Set: 6-31G*
  Basis Set:
  Charge       = 0
  Multiplicity = 1
  Basis Set: 6-31G*
  Basis Set:

    Orbital Energies (a.u.)
    -----------------------

    Doubly Occupied:

       1A    -20.554314     2A    -11.274750     3A    -11.230248
       4A    -11.225751     5A     -1.360965     6A     -1.059036
       7A     -0.921922     8A     -0.775858     9A     -0.677096
      10A     -0.659948    11A     -0.603293    12A     -0.575929
      13A     -0.550943    14A     -0.475453    15A     -0.444738
      16A     -0.369532

  @DF-RHF Final Energy:  -191.91283256178576

   => Energetics <=

    Nuclear Repulsion Energy =            118.5078130402349501
    One-Electron Energy =                -495.3217378050831030
    Two-Electron Energy =                 184.9010922030624045
    DFT Exchange-Correlation Energy =       0.0000000000000000
    Empirical Dispersion Energy =           0.0000000000000000
    PCM Polarization Energy =               0.0000000000000000
    EFP Energy =                            0.0000000000000000
    Total Energy =                       -191.9128325617857342
    Molecular point group: c1
  Basis Set: 6-31G*
  Basis Set:

  -Total Gradient:
     Atom            X                  Y                   Z
    ------   -----------------  -----------------  -----------------
       1        0.000000972966    -0.000002427322     0.000005411342
       2        0.000005332017    -0.000032260331     0.000017477766
       3       -0.000220579140     0.002545906387    -0.002042649304
       4        0.000242592755    -0.000769597383     0.003100390254
       5        0.000113677929    -0.001943572146     0.000877383496
       6       -0.000004756174     0.000005398564    -0.000012598896
       7       -0.000150787089     0.000198528846    -0.001945121520
       8        0.000005897839     0.000002963033     0.000003577507
       9        0.000006550447    -0.000003204008    -0.000001540513
      10        0.000001098449    -0.000001735640    -0.000002330132

  **** Optimization is complete! (in 6 steps) ****
    Final optimized geometry and variables:
    Molecular point group: c1

    Geometry (in Angstrom), charge = 0, multiplicity = 1:

    H            1.011966133559    -0.064633546008     1.501418922040
    O            1.345716860309    -0.287146107108     0.643275861299
    C            0.698317928443     0.502216651980    -0.323028591219
    C           -0.812758093442     0.465587033863    -0.210776050384
    H            1.012135725152     0.090723785079    -1.273332993263
    H            1.048833788947     1.529791779327    -0.274748166782
    C           -1.520576255381    -0.645653898425    -0.264472579996
    H           -1.318609811617     1.410874041493    -0.095827448976
    H           -1.051229878699    -1.607385367397    -0.381584252270
    H           -2.592738680610    -0.637935925164    -0.180230673682

  Mulliken Charges: (a.u.)
   Center  Symbol    Alpha    Beta     Spin     Total
       1     H     0.28320  0.28320  0.00000  0.43361
       2     O     4.36728  4.36728  0.00000 -0.73456
       3     C     2.99890  2.99890  0.00000  0.00220
       4     C     3.11136  3.11136  0.00000 -0.22272
       5     H     0.40887  0.40887  0.00000  0.18225
       6     H     0.42626  0.42626  0.00000  0.14748
       7     C     3.18225  3.18225  0.00000 -0.36449
       8     H     0.40793  0.40793  0.00000  0.18414
       9     H     0.40423  0.40423  0.00000  0.19153
      10     H     0.40972  0.40972  0.00000  0.18055

   Total alpha = 16.00000, Total beta = 16.00000, Total charge = -0.00000
