                              Psi4 1.0.54 Driver

  ==> Input File <==

--------------------------------------------------------------------------
set {
	reference rhf
	basis cc-pvtz
}

set_num_threads( 4 )
memory 2 gb

molecule MOL {
0 1

H	 -2.416235	 -0.644417	 2.201354
C	 -2.336850	 -1.545698	 1.597803
O	 -1.129279	 -1.595206	 0.914529
H	 -2.383425	 -2.405772	 2.249717
H	 -3.184260	 -1.578220	 0.915364
C	 -0.931346	 -0.547671	 0.022828
C	 0.447117	 -0.645061	 -0.581077
H	 -1.670695	 -0.588155	 -0.776980
H	 -1.034173	 0.411125	 0.526382
O	 1.401606	 -0.295166	 0.366636
H	 0.611101	 -1.660252	 -0.935941
H	 0.504488	 0.024290	 -1.439359
C	 2.714315	 -0.441627	 -0.061017
H	 2.765292	 -0.641548	 -1.128869
H	 3.305661	 0.447341	 0.150952
H	 3.143725	 -1.278506	 0.470147

	symmetry c1
}
set optking {
	frozen_dihedral = ("
		7 10 13 14
	")
}

ee,wfn = optimize('scf', return_wfn=True)
oeprop( wfn, 'DIPOLE', 'QUADRUPOLE', 'MULLIKEN_CHARGES')
f=open( 'psi4out.xyz', 'w' )
f.write( "16  " )
f.write( str(ee) + "\n" )
f.write( MOL.save_string_xyz() )
f.close()
--------------------------------------------------------------------------

    Molecular point group: c1
  Charge       = 0
  Multiplicity = 1
  Basis Set: CC-PVTZ
  Basis Set:
  @DF-RHF Final Energy:  -307.09392132680426
    Total Energy =                       -307.0939213268040930
    Molecular point group: c1
  Basis Set: CC-PVTZ
  Basis Set:
  Basis Set: CC-PVTZ
  Basis Set:
  @DF-RHF Final Energy:  -307.09440870622677
    Total Energy =                       -307.0944087062270000
  Basis Set: CC-PVTZ
  Basis Set:
  Basis Set: CC-PVTZ
  Basis Set:
  @DF-RHF Final Energy:  -307.09452846720251
    Total Energy =                       -307.0945284672023945
  Basis Set: CC-PVTZ
  Basis Set:
  Charge       = 0
  Multiplicity = 1
  Basis Set: CC-PVTZ
  Basis Set:

    Orbital Energies (a.u.)
    -----------------------

    Doubly Occupied:

       1A    -20.547448     2A    -20.544293     3A    -11.267793
       4A    -11.266577     5A    -11.261329     6A    -11.261108
       7A     -1.389587     8A     -1.371613     9A     -1.031711
      10A     -0.937201    11A     -0.892201    12A     -0.823996
      13A     -0.684930    14A     -0.681138    15A     -0.658742
      16A     -0.635976    17A     -0.630721    18A     -0.597288
      19A     -0.554198    20A     -0.538547    21A     -0.508640
      22A     -0.479256    23A     -0.463968    24A     -0.420889
      25A     -0.410309

  @DF-RHF Final Energy:  -307.09452923744476

   => Energetics <=

    Nuclear Repulsion Energy =            258.6304201863754884
    One-Electron Energy =                -931.7309825368506608
    Two-Electron Energy =                 366.0060331130304121
    DFT Exchange-Correlation Energy =       0.0000000000000000
    Empirical Dispersion Energy =           0.0000000000000000
    PCM Polarization Energy =               0.0000000000000000
    EFP Energy =                            0.0000000000000000
    Total Energy =                       -307.0945292374448172
    Molecular point group: c1
  Basis Set: CC-PVTZ
  Basis Set:

  -Total Gradient:
     Atom            X                  Y                   Z
    ------   -----------------  -----------------  -----------------
       1       -0.000003214216    -0.000000123740     0.000005032986
       2       -0.000008952803     0.000025253787    -0.000009719906
       3        0.000020932375    -0.000008923021     0.000013418989
       4        0.000012852221     0.000000961925    -0.000008086646
       5        0.000002431108    -0.000002302031    -0.000000260080
       6       -0.000033630202    -0.000022093849    -0.000024761871
       7       -0.000067313122     0.001162697126    -0.000423762847
       8       -0.000030939304     0.000002012499    -0.000004686787
       9        0.000017181623    -0.000022587762    -0.000004945390
      10        0.000163207308    -0.002015505418     0.000587927666
      11        0.000019345973     0.000019904087     0.000037388102
      12       -0.000003780737    -0.000015151173    -0.000000268792
      13        0.000025130033     0.002262222157    -0.000385746934
      14       -0.000110521516    -0.001407060520     0.000224466907
      15       -0.000023523251     0.000021564266    -0.000006742098
      16        0.000020794506    -0.000000868333     0.000000746703

  **** Optimization is complete! (in 4 steps) ****
    Final optimized geometry and variables:
    Molecular point group: c1

    Geometry (in Angstrom), charge = 0, multiplicity = 1:

    H           -2.403100067477     0.191358329239     1.870057225208
    C           -2.345225111709    -0.701401186895     1.251592089914
    O           -1.154843756667    -0.749805801543     0.538827320958
    H           -2.382890656062    -1.570721638679     1.891713826723
    H           -3.209002889879    -0.717477758132     0.589346317894
    C           -0.970170072133     0.309362524938    -0.341906325115
    C            0.393335930480     0.212220064891    -0.978758478599
    H           -1.727697027707     0.285133466657    -1.125381579145
    H           -1.055044659122     1.261226392652     0.177712412293
    O            1.369111573832     0.540785779911    -0.043515624550
    H            0.538030710966    -0.798257339788    -1.353308648703
    H            0.434389497815     0.895767054833    -1.825907160610
    C            2.690699973029     0.403855190092    -0.465492351007
    H            2.759469494417     0.221199574154    -1.533272560004
    H            3.236991625626     1.309558376688    -0.233413586303
    H            3.163023537995    -0.428052364276     0.046472338746

  Mulliken Charges: (a.u.)
   Center  Symbol    Alpha    Beta     Spin     Total
       1     H     0.47016  0.47016  0.00000  0.05968
       2     C     3.03201  3.03201  0.00000 -0.06403
       3     O     4.17038  4.17038  0.00000 -0.34076
       4     H     0.44644  0.44644  0.00000  0.10711
       5     H     0.47374  0.47374  0.00000  0.05252
       6     C     2.96334  2.96334  0.00000  0.07332
       7     C     2.95859  2.95859  0.00000  0.08282
       8     H     0.47616  0.47616  0.00000  0.04768
       9     H     0.47118  0.47118  0.00000  0.05764
      10     O     4.17501  4.17501  0.00000 -0.35003
      11     H     0.47091  0.47091  0.00000  0.05818
      12     H     0.47592  0.47592  0.00000  0.04816
      13     C     3.02748  3.02748  0.00000 -0.05497
      14     H     0.47394  0.47394  0.00000  0.05211
      15     H     0.45629  0.45629  0.00000  0.08742
      16     H     0.45844  0.45844  0.00000  0.08313

   Total alpha = 25.00000, Total beta = 25.00000, Total charge = -0.00000

*** Psi4 exiting successfully. Buy a developer a beer!
