  ==> Input File <==

--------------------------------------------------------------------------
set {
	reference rhf
	basis 6-31G*
}

set_num_threads( 1 )
memory 2 gb

molecule MOL {
0 1

O	 3.225979	 0.970355	 -0.599647
C	 2.701189	 0.057885	 -0.047330
C	 1.245376	 -0.013843	 0.345420
O	 3.347903	 -1.046386	 0.304773
C	 0.455112	 1.231400	 -0.050772
H	 0.838542	 -0.913825	 -0.103701
H	 1.208210	 -0.175333	 1.419774
C	 -0.998893	 1.219485	 0.433193
H	 0.482531	 1.345121	 -1.130325
H	 0.957290	 2.103070	 0.354729
C	 -1.883438	 0.145884	 -0.207175
H	 -1.431207	 2.195402	 0.224832
H	 -1.019646	 1.105716	 1.516076
C	 -2.975763	 -0.364606	 0.734752
H	 -2.344834	 0.551997	 -1.106066
H	 -1.275974	 -0.696735	 -0.529594
C	 -3.862576	 -1.441590	 0.107218
H	 -3.596946	 0.471360	 1.051812
H	 -2.515568	 -0.761069	 1.638487
C	 -4.953196	 -1.943261	 1.053038
H	 -4.322438	 -1.047409	 -0.796547
H	 -3.243984	 -2.279904	 -0.206396
H	 -5.564736	 -2.705357	 0.579925
H	 -5.610626	 -1.133844	 1.357709
H	 -4.523783	 -2.375248	 1.952630
C	 4.728119	 -1.109107	 -0.004993
H	 4.882018	 -1.033965	 -1.071845
H	 5.068212	 -2.067527	 0.355250
H	 5.265056	 -0.311663	 0.488280

	symmetry c1
}
set optking {
	frozen_dihedral = ("
		21 17 14 11,
		17 14 11 15,
		6 3 5 9,
		11 8 5 9,
		2 4 26 27,
		1 2 4 26,
		6 3 2 1
	")
}

ee = energy('scf')
oeprop('DIPOLE', 'QUADRUPOLE', 'MULLIKEN_CHARGES')
f=open( 'psi4out.xyz', 'w' )
f.write( "29  " )
f.write( str(ee) + "\n" )
f.write( MOL.save_string_xyz() )
f.close()
--------------------------------------------------------------------------

    Molecular point group: c1

    Geometry (in Angstrom), charge = 0, multiplicity = 1:

       Center              X                  Y                   Z               Mass
    ------------   -----------------  -----------------  -----------------  -----------------
           O          3.088492045459     1.195604393314    -0.787375711993    15.994914619560
           C          2.563702045459     0.283134393314    -0.235058711993    12.000000000000
           C          1.107889045459     0.211406393314     0.157691288007    12.000000000000
           O          3.210416045459    -0.821136606686     0.117044288007    15.994914619560
           C          0.317625045459     1.456649393314    -0.238500711993    12.000000000000
           H          0.701055045459    -0.688575606686    -0.291429711993     1.007825032070
           H          1.070723045459     0.049916393314     1.232045288007     1.007825032070
           C         -1.136379954541     1.444734393314     0.245464288007    12.000000000000
           H          0.345044045459     1.570370393314    -1.318053711993     1.007825032070
           H          0.819803045459     2.328319393314     0.167000288007     1.007825032070
           C         -2.020924954541     0.371133393314    -0.394903711993    12.000000000000
           H         -1.568693954541     2.420651393314     0.037103288007     1.007825032070
           H         -1.157132954541     1.330965393314     1.328347288007     1.007825032070
           C         -3.113249954541    -0.139356606686     0.547023288007    12.000000000000
           H         -2.482320954541     0.777246393314    -1.293794711993     1.007825032070
           H         -1.413460954541    -0.471485606686    -0.717322711993     1.007825032070
           C         -4.000062954541    -1.216340606686    -0.080510711993    12.000000000000
           H         -3.734432954541     0.696609393314     0.864083288007     1.007825032070
           H         -2.653054954541    -0.535819606686     1.450758288007     1.007825032070
           C         -5.090682954541    -1.718011606686     0.865309288007    12.000000000000
           H         -4.459924954541    -0.822159606686    -0.984275711993     1.007825032070
           H         -3.381470954541    -2.054654606686    -0.394124711993     1.007825032070
           H         -5.702222954541    -2.480107606686     0.392196288007     1.007825032070
           H         -5.748112954541    -0.908594606686     1.169980288007     1.007825032070
           H         -4.661269954541    -2.149998606686     1.764901288007     1.007825032070
           C          4.590632045459    -0.883857606686    -0.192721711993    12.000000000000
           H          4.744531045459    -0.808715606686    -1.259573711993     1.007825032070
           H          4.930725045459    -1.842277606686     0.167521288007     1.007825032070
           H          5.127569045459    -0.086413606686     0.300551288007     1.007825032070

  Charge       = 0
  Multiplicity = 1
  Basis Set: 6-31G*
  Basis Set:

    Orbital Energies (a.u.)
    -----------------------

    Doubly Occupied:

       1A    -20.603534     2A    -20.545321     3A    -11.372301
       4A    -11.280771     5A    -11.234951     6A    -11.219229
       7A    -11.216754     8A    -11.215831     9A    -11.215216
      10A    -11.214647    11A    -11.209208    12A     -1.469237
      13A     -1.362664    14A     -1.098455    15A     -1.066720
      16A     -1.019498    17A     -0.977183    18A     -0.929009
      19A     -0.861643    20A     -0.799574    21A     -0.790482
      22A     -0.763922    23A     -0.702030    24A     -0.682417
      25A     -0.672111    26A     -0.648335    27A     -0.630214
      28A     -0.604772    29A     -0.597293    30A     -0.578246
      31A     -0.566507    32A     -0.553202    33A     -0.533261
      34A     -0.529018    35A     -0.514202    36A     -0.509731
      37A     -0.501252    38A     -0.476366    39A     -0.471391
      40A     -0.462164    41A     -0.457032    42A     -0.455533
      43A     -0.439195    44A     -0.436295

  @DF-RHF Final Energy:  -501.04052801019088

   => Energetics <=

    Nuclear Repulsion Energy =            614.2621524251221672
    One-Electron Energy =               -1899.6326189569253984
    Two-Electron Energy =                 784.3299385216130304
    DFT Exchange-Correlation Energy =       0.0000000000000000
    Empirical Dispersion Energy =           0.0000000000000000
    PCM Polarization Energy =               0.0000000000000000
    EFP Energy =                            0.0000000000000000
    Total Energy =                       -501.0405280101902008

  Mulliken Charges: (a.u.)
   Center  Symbol    Alpha    Beta     Spin     Total
       1     O     4.28576  4.28576  0.00000 -0.57153
       2     C     2.60486  2.60486  0.00000  0.79027
       3     C     3.20921  3.20921  0.00000 -0.41843
       4     O     4.30744  4.30744  0.00000 -0.61488
       5     C     3.15445  3.15445  0.00000 -0.30890
       6     H     0.39949  0.39949  0.00000  0.20102
       7     H     0.40116  0.40116  0.00000  0.19768
       8     C     3.15849  3.15849  0.00000 -0.31699
       9     H     0.41318  0.41318  0.00000  0.17365
      10     H     0.40901  0.40901  0.00000  0.18199
      11     C     3.15530  3.15530  0.00000 -0.31059
      12     H     0.41672  0.41672  0.00000  0.16655
      13     H     0.42270  0.42270  0.00000  0.15460
      14     C     3.15193  3.15193  0.00000 -0.30385
      15     H     0.41993  0.41993  0.00000  0.16014
      16     H     0.42390  0.42390  0.00000  0.15220
      17     C     3.15170  3.15170  0.00000 -0.30341
      18     H     0.42306  0.42306  0.00000  0.15388
      19     H     0.42439  0.42439  0.00000  0.15123
      20     C     3.23930  3.23930  0.00000 -0.47859
      21     H     0.42274  0.42274  0.00000  0.15453
      22     H     0.42346  0.42346  0.00000  0.15307
      23     H     0.41921  0.41921  0.00000  0.16158
      24     H     0.42162  0.42162  0.00000  0.15676
      25     H     0.42198  0.42198  0.00000  0.15604
      26     C     3.09238  3.09238  0.00000 -0.18476
      27     H     0.40906  0.40906  0.00000  0.18188
      28     H     0.40850  0.40850  0.00000  0.18300
      29     H     0.40909  0.40909  0.00000  0.18183

   Total alpha = 44.00000, Total beta = 44.00000, Total charge = -0.00000
