  ==> Input File <==

--------------------------------------------------------------------------
set {
	reference rhf
	basis cc-pvtz
}

set_num_threads( 4 )
memory 2 gb

molecule MOL {
0 1

H	 -3.456139	 -0.529964	 -0.727103
O	 -3.107740	 -0.196887	 0.080383
C	 -1.773395	 -0.074491	 0.022605
C	 -1.049772	 -0.412799	 -1.114213
C	 -1.125498	 0.407167	 1.147957
H	 -1.559532	 -0.785811	 -1.983370
C	 0.317208	 -0.267792	 -1.119816
H	 -1.702282	 0.662206	 2.014153
C	 0.243860	 0.546474	 1.126084
H	 0.886896	 -0.525275	 -1.990602
C	 0.981121	 0.213562	 0.000000
H	 0.747541	 0.920057	 1.998586
C	 2.447402	 0.371303	 0.000000
O	 3.227427	 -0.521847	 0.000000
H	 2.796538	 1.409525	 0.000000

	symmetry c1
}
set optking {
	frozen_dihedral = ("
		7 11 13 14
	")
}

ee = optimize('scf')
oeprop('DIPOLE', 'QUADRUPOLE', 'MULLIKEN_CHARGES')
f=open( 'psi4out.xyz', 'w' )
f.write( "15  " )
f.write( str(ee) + "\n" )
f.write( MOL.save_string_xyz() )
f.close()
--------------------------------------------------------------------------

    Molecular point group: c1
  Charge       = 0
  Multiplicity = 1
  Basis Set: CC-PVTZ
  Basis Set:
  @DF-RHF Final Energy:  -418.42848866715792
    Total Energy =                       -418.4284886671580352
    Molecular point group: c1
  Basis Set: CC-PVTZ
  Basis Set:
  Basis Set: CC-PVTZ
  Basis Set:
  @DF-RHF Final Energy:  -418.42854574811923
    Total Energy =                       -418.4285457481194044
  Basis Set: CC-PVTZ
  Basis Set:
  Basis Set: CC-PVTZ
  Basis Set:
  @DF-RHF Final Energy:  -418.42929103240539
    Total Energy =                       -418.4292910324049899
  Basis Set: CC-PVTZ
  Basis Set:
  Basis Set: CC-PVTZ
  Basis Set:
  @DF-RHF Final Energy:  -418.42942542513293
    Total Energy =                       -418.4294254251325356
  Basis Set: CC-PVTZ
  Basis Set:
  Basis Set: CC-PVTZ
  Basis Set:
  @DF-RHF Final Energy:  -418.42942838237974
    Total Energy =                       -418.4294283823799105
  Basis Set: CC-PVTZ
  Basis Set:
  Charge       = 0
  Multiplicity = 1
  Basis Set: CC-PVTZ
  Basis Set:

    Orbital Energies (a.u.)
    -----------------------

    Doubly Occupied:

       1A    -20.597792     2A    -20.559266     3A    -11.329476
       4A    -11.313175     5A    -11.253004     6A    -11.252632
       7A    -11.241804     8A    -11.240393     9A    -11.236042
      10A     -1.429708    11A     -1.413414    12A     -1.173275
      13A     -1.041816    14A     -1.039879    15A     -0.890010
      16A     -0.865959    17A     -0.801620    18A     -0.757527
      19A     -0.713971    20A     -0.676393    21A     -0.658613
      22A     -0.631371    23A     -0.608966    24A     -0.608111
      25A     -0.594191    26A     -0.565683    27A     -0.536478
      28A     -0.506191    29A     -0.497393    30A     -0.425106
      31A     -0.359194    32A     -0.328860

  @DF-RHF Final Energy:  -418.42942934004776

   => Energetics <=

    Nuclear Repulsion Energy =            401.1196019887962052
    One-Electron Energy =               -1364.8034334536021106
    Two-Electron Energy =                 545.2544021247579167
    DFT Exchange-Correlation Energy =       0.0000000000000000
    Empirical Dispersion Energy =           0.0000000000000000
    PCM Polarization Energy =               0.0000000000000000
    EFP Energy =                            0.0000000000000000
    Total Energy =                       -418.4294293400480456
    Molecular point group: c1
  Basis Set: CC-PVTZ
  Basis Set:

  -Total Gradient:
     Atom            X                  Y                   Z
    ------   -----------------  -----------------  -----------------
       1       -0.000001110898     0.000005683442    -0.000003708389
       2       -0.000014284845    -0.000052382084    -0.000015225716
       3        0.000022759408     0.000127080530     0.000062999751
       4        0.000052749237    -0.000032181468    -0.000032899981
       5       -0.000101177123    -0.000063798913    -0.000037203548
       6       -0.000015786786     0.000000421820    -0.000000429947
       7       -0.000809172569     0.004927255098    -0.001660856689
       8        0.000020612308     0.000003029638     0.000001328454
       9        0.000117099803    -0.000030921052    -0.000092158491
      10       -0.000004125628     0.000003911672     0.000015615184
      11        0.001128116297    -0.007256426083     0.005417986646
      12        0.000000579193    -0.000007089979     0.000006740188
      13       -0.000567411089     0.002562915412    -0.010101261554
      14        0.000171484589    -0.000155698640     0.006445373907
      15       -0.000000331895    -0.000031799392    -0.000006299815

  **** Optimization is complete! (in 6 steps) ****
    Final optimized geometry and variables:
    Molecular point group: c1

    Geometry (in Angstrom), charge = 0, multiplicity = 1:

    H           -3.474006665792    -0.516046778437    -0.728625855035
    O           -3.123826907614    -0.176214237790     0.075101564633
    C           -1.783989523295    -0.067531495240     0.014078064272
    C           -1.061530104569    -0.406052373401    -1.114685833494
    C           -1.129146742582     0.412456369184     1.137365805353
    H           -1.567461107576    -0.766602141493    -1.991472105374
    C            0.314685032678    -0.280662005498    -1.112894957277
    H           -1.703033836024     0.677081899226     2.003052273883
    C            0.239555577611     0.551886318178     1.119034298866
    H            0.870572071161    -0.554796887222    -1.989095703506
    C            0.979684377948     0.178147726998     0.006880152671
    H            0.736639598190     0.943327981183     1.987493693311
    C            2.459275584426     0.387632315830    -0.013584884401
    O            3.257982605933    -0.482264819885    -0.061396150081
    H            2.787458082713     1.429343613866     0.070193186599

  Mulliken Charges: (a.u.)
   Center  Symbol    Alpha    Beta     Spin     Total
       1     H     0.38635  0.38635  0.00000  0.22729
       2     O     4.16997  4.16997  0.00000 -0.33995
       3     C     2.85582  2.85582  0.00000  0.28837
       4     C     3.12387  3.12387  0.00000 -0.24774
       5     C     3.09907  3.09907  0.00000 -0.19814
       6     H     0.43213  0.43213  0.00000  0.13575
       7     C     3.08917  3.08917  0.00000 -0.17833
       8     H     0.41684  0.41684  0.00000  0.16633
       9     C     3.07804  3.07804  0.00000 -0.15608
      10     H     0.41692  0.41692  0.00000  0.16615
      11     C     2.95830  2.95830  0.00000  0.08341
      12     H     0.42257  0.42257  0.00000  0.15487
      13     C     2.93071  2.93071  0.00000  0.13857
      14     O     4.15993  4.15993  0.00000 -0.31986
      15     H     0.46032  0.46032  0.00000  0.07937

   Total alpha = 32.00000, Total beta = 32.00000, Total charge = -0.00000
