  ==> Input File <==

--------------------------------------------------------------------------
set {
	reference rhf
	basis cc-pvtz
}

set_num_threads( 4 )
memory 2 gb

molecule MOL {
0 1

O	 -0.694481	 1.313155	 -0.204815
C	 -0.862519	 0.151932	 -0.046791
C	 -2.171428	 -0.477048	 0.339095
O	 0.085519	 -0.757083	 -0.192238
H	 -2.467997	 -1.191667	 -0.417688
H	 -2.923379	 0.287970	 0.444097
H	 -2.053854	 -1.015120	 1.270901
C	 1.392036	 -0.330828	 -0.560749
C	 2.392726	 -0.567551	 0.551223
H	 1.360471	 0.710653	 -0.840277
H	 1.637164	 -0.921233	 -1.430855
H	 3.385099	 -0.293772	 0.211087
H	 2.154188	 0.030899	 1.419751
H	 2.407015	 -1.612377	 0.837103

	symmetry c1
}
set optking {
	frozen_dihedral = ("
		10 8 4 2
	")
}

ee = optimize('scf')
oeprop('DIPOLE', 'QUADRUPOLE', 'MULLIKEN_CHARGES')
f=open( 'psi4out.xyz', 'w' )
f.write( "14  " )
f.write( str(ee) + "\n" )
f.write( MOL.save_string_xyz() )
f.close()
--------------------------------------------------------------------------

    Molecular point group: c1
  Charge       = 0
  Multiplicity = 1
  Basis Set: CC-PVTZ
  Basis Set:
  @DF-RHF Final Energy:  -305.98989611000371
    Total Energy =                       -305.9898961100039969
    Molecular point group: c1
  Basis Set: CC-PVTZ
  Basis Set:
  Basis Set: CC-PVTZ
  Basis Set:
  @DF-RHF Final Energy:  -305.99009637029735
    Total Energy =                       -305.9900963702971808
  Basis Set: CC-PVTZ
  Basis Set:
  Basis Set: CC-PVTZ
  Basis Set:
  @DF-RHF Final Energy:  -305.98996547410371
    Total Energy =                       -305.9899654741038262
  Basis Set: CC-PVTZ
  Basis Set:
  Basis Set: CC-PVTZ
  Basis Set:
  @DF-RHF Final Energy:  -305.99026133739790
    Total Energy =                       -305.9902613373977829
  Basis Set: CC-PVTZ
  Basis Set:
  Basis Set: CC-PVTZ
  Basis Set:
  @DF-RHF Final Energy:  -305.99026575369919
    Total Energy =                       -305.9902657536989636
  Basis Set: CC-PVTZ
  Basis Set:
  Charge       = 0
  Multiplicity = 1
  Basis Set: CC-PVTZ
  Basis Set:

    Orbital Energies (a.u.)
    -----------------------

    Doubly Occupied:

       1A    -20.593794     2A    -20.532622     3A    -11.368547
       4A    -11.281890     5A    -11.231278     6A    -11.219877
       7A     -1.469150     8A     -1.366162     9A     -1.057540
      10A     -1.000061    11A     -0.879711    12A     -0.773793
      13A     -0.700330    14A     -0.685818    15A     -0.660938
      16A     -0.613648    17A     -0.583753    18A     -0.568705
      19A     -0.562495    20A     -0.530612    21A     -0.520365
      22A     -0.496305    23A     -0.451905    24A     -0.443302

  @DF-RHF Final Energy:  -305.99026616381104

   => Energetics <=

    Nuclear Repulsion Energy =            247.1632672402787421
    One-Electron Energy =                -907.1218609048642065
    Two-Electron Energy =                 353.9683275007742509
    DFT Exchange-Correlation Energy =       0.0000000000000000
    Empirical Dispersion Energy =           0.0000000000000000
    PCM Polarization Energy =               0.0000000000000000
    EFP Energy =                            0.0000000000000000
    Total Energy =                       -305.9902661638112136
    Molecular point group: c1
  Basis Set: CC-PVTZ
  Basis Set:

  -Total Gradient:
     Atom            X                  Y                   Z
    ------   -----------------  -----------------  -----------------
       1       -0.000035073766     0.000014349995     0.000005918085
       2       -0.000142356437    -0.000085998489    -0.000681453046
       3       -0.000001680196     0.000002520523    -0.000044236620
       4        0.000267155140     0.000119014354     0.001150547996
       5        0.000007441873    -0.000002463162     0.000011954625
       6       -0.000003074764     0.000003283004     0.000006693427
       7        0.000007939792     0.000012092719     0.000009177896
       8       -0.000340497013    -0.000263610268    -0.001219535813
       9        0.000062996005    -0.000004777143    -0.000037539610
      10        0.000183322727     0.000202877611     0.000765554965
      11       -0.000033109974    -0.000008379451     0.000018843443
      12        0.000046587585    -0.000002799048     0.000028553138
      13       -0.000012125262     0.000002533539    -0.000007807035
      14       -0.000007525709     0.000011355819    -0.000006671452

  **** Optimization is complete! (in 6 steps) ****
    Final optimized geometry and variables:
    Molecular point group: c1

    Geometry (in Angstrom), charge = 0, multiplicity = 1:

    O           -0.737997407324     1.434316337968    -0.167120570845
    C           -0.891002730135     0.269483094328    -0.025015488406
    C           -2.191292579666    -0.377108374001     0.361467935326
    O            0.061899921890    -0.633772222958    -0.183034481770
    H           -2.487586513576    -1.081933343934    -0.404538958270
    H           -2.948990944445     0.379418014805     0.484746206903
    H           -2.061297291363    -0.929265577788     1.283251391998
    C            1.369314242028    -0.227153704403    -0.570901370542
    C            2.341483478741    -0.462914147858     0.565420132240
    H            1.351396370322     0.810527419256    -0.857294390312
    H            1.625948516471    -0.829218485707    -1.430978904590
    H            3.346355002255    -0.207969363470     0.248370884823
    H            2.088604261482     0.152409096549     1.420104389795
    H            2.332257789857    -1.501188341382     0.872736685651

  Mulliken Charges: (a.u.)
   Center  Symbol    Alpha    Beta     Spin     Total
       1     O     4.19852  4.19852  0.00000 -0.39704
       2     C     2.80012  2.80012  0.00000  0.39977
       3     C     3.14011  3.14011  0.00000 -0.28022
       4     O     4.15834  4.15834  0.00000 -0.31668
       5     H     0.44585  0.44585  0.00000  0.10831
       6     H     0.43830  0.43830  0.00000  0.12340
       7     H     0.44609  0.44609  0.00000  0.10782
       8     C     2.98730  2.98730  0.00000  0.02540
       9     C     3.13873  3.13873  0.00000 -0.27747
      10     H     0.44262  0.44262  0.00000  0.11476
      11     H     0.44943  0.44943  0.00000  0.10114
      12     H     0.45323  0.45323  0.00000  0.09354
      13     H     0.44962  0.44962  0.00000  0.10076
      14     H     0.45175  0.45175  0.00000  0.09650

   Total alpha = 24.00000, Total beta = 24.00000, Total charge = -0.00000
