  ==> Input File <==

--------------------------------------------------------------------------
set {
	reference rhf
	basis 6-31G*
}

set_num_threads( 4 )
memory 2 gb

molecule MOL {
0 1

H	 2.652209	 0.763231	 0.000000
O	 2.263154	 -0.100023	 0.000000
C	 0.912879	 -0.015685	 0.000000
C	 0.198902	 -1.187434	 -0.214057
C	 0.242865	 1.179704	 0.203005
H	 0.737744	 -2.103588	 -0.369363
C	 -1.181921	 -1.151990	 -0.222997
H	 0.797416	 2.088243	 0.368988
C	 -1.144196	 1.200775	 0.191466
H	 -1.730283	 -2.062135	 -0.389196
C	 -1.865082	 0.040186	 -0.020703
H	 -1.656662	 2.132962	 0.349883
H	 -2.939468	 0.059946	 -0.029035

	symmetry c1
}
set optking {
	frozen_dihedral = ("
		4 3 2 1
	")
}

ee = optimize('scf')
oeprop('DIPOLE', 'QUADRUPOLE', 'MULLIKEN_CHARGES')
f=open( 'psi4out.xyz', 'w' )
f.write( "13  " )
f.write( str(ee) + "\n" )
f.write( MOL.save_string_xyz() )
f.close()
--------------------------------------------------------------------------

    Molecular point group: c1
  Charge       = 0
  Multiplicity = 1
  Basis Set: 6-31G*
  Basis Set:
  @DF-RHF Final Energy:  -305.55747230419871
    Total Energy =                       -305.5574723041985976
    Molecular point group: c1
  Basis Set: 6-31G*
  Basis Set:
  Basis Set: 6-31G*
  Basis Set:
  @DF-RHF Final Energy:  -305.55747532597002
    Total Energy =                       -305.5574753259700174
  Basis Set: 6-31G*
  Basis Set:
  Charge       = 0
  Multiplicity = 1
  Basis Set: 6-31G*
  Basis Set:

    Orbital Energies (a.u.)
    -----------------------

    Doubly Occupied:

       1A    -20.590357     2A    -11.297964     3A    -11.236856
       4A    -11.234783     5A    -11.228037     6A    -11.221927
       7A    -11.221767     8A     -1.408869     9A     -1.147268
      10A     -1.018632    11A     -1.004011    12A     -0.846410
      13A     -0.822078    14A     -0.735888    15A     -0.683780
      16A     -0.649894    17A     -0.609141    18A     -0.589868
      19A     -0.588201    20A     -0.560588    21A     -0.514026
      22A     -0.489656    23A     -0.478883    24A     -0.338126
      25A     -0.309568

  @DF-RHF Final Energy:  -305.55747615878477

   => Energetics <=

    Nuclear Repulsion Energy =            273.1419328024874176
    One-Electron Energy =                -955.7456589546125088
    Two-Electron Energy =                 377.0462499933404388
    DFT Exchange-Correlation Energy =       0.0000000000000000
    Empirical Dispersion Energy =           0.0000000000000000
    PCM Polarization Energy =               0.0000000000000000
    EFP Energy =                            0.0000000000000000
    Total Energy =                       -305.5574761587846524
    Molecular point group: c1
  Basis Set: 6-31G*
  Basis Set:

  -Total Gradient:
     Atom            X                  Y                   Z
    ------   -----------------  -----------------  -----------------
       1        0.000001731472    -0.000002786301    -0.001012466765
       2       -0.000027318529     0.000062269830     0.000925067716
       3        0.000047286416    -0.000109719751     0.000844407695
       4       -0.000078951316     0.000085587597    -0.000711506101
       5        0.000057394235    -0.000028379495    -0.000060199385
       6        0.000005770465     0.000007644992    -0.000010011850
       7        0.000067031138    -0.000040816218    -0.000026275295
       8       -0.000004045763    -0.000002681308     0.000012013456
       9       -0.000063304602    -0.000045090368     0.000019294678
      10       -0.000006557798    -0.000003922505     0.000003227265
      11       -0.000001620014     0.000074481649     0.000026784775
      12        0.000004341695     0.000006829233    -0.000006126448
      13       -0.000001757403    -0.000003417353    -0.000004209742

  **** Optimization is complete! (in 3 steps) ****
    Final optimized geometry and variables:
    Molecular point group: c1

    Geometry (in Angstrom), charge = 0, multiplicity = 1:

    H            2.651534039542     0.763096561456     0.011567955430
    O            2.263526966319    -0.100593205667     0.010901942292
    C            0.912690871738    -0.016715171634     0.008164048175
    C            0.198737056268    -1.187964347585    -0.207045796184
    C            0.242858639658     1.179033879565     0.210128429984
    H            0.737458978141    -2.103573236912    -0.365690030208
    C           -1.182370136127    -1.153252699983    -0.212066283028
    H            0.797728859823     2.086720168486     0.379306804175
    C           -1.144091541822     1.200381744956     0.198310348281
    H           -1.730833173714    -2.063443106420    -0.378025614587
    C           -1.865155259643     0.039143969236    -0.010728999829
    H           -1.656482991706     2.132811828737     0.355647218701
    H           -2.939614634826     0.058995194910    -0.018202463243

  Mulliken Charges: (a.u.)
   Center  Symbol    Alpha    Beta     Spin     Total
       1     H     0.27186  0.27186  0.00000  0.45628
       2     O     4.37874  4.37874  0.00000 -0.75747
       3     C     2.79453  2.79453  0.00000  0.41093
       4     C     3.12336  3.12336  0.00000 -0.24673
       5     C     3.14389  3.14389  0.00000 -0.28778
       6     H     0.39170  0.39170  0.00000  0.21660
       7     C     3.09108  3.09108  0.00000 -0.18217
       8     H     0.40443  0.40443  0.00000  0.19115
       9     C     3.09040  3.09040  0.00000 -0.18080
      10     H     0.39802  0.39802  0.00000  0.20395
      11     C     3.11306  3.11306  0.00000 -0.22612
      12     H     0.39837  0.39837  0.00000  0.20326
      13     H     0.40055  0.40055  0.00000  0.19890

   Total alpha = 25.00000, Total beta = 25.00000, Total charge = -0.00000
