  ==> Input File <==

--------------------------------------------------------------------------
set {
	reference rhf
	basis 6-31G*
}

set_num_threads( 4 )
memory 2 gb

molecule MOL {
0 1

H	 -4.135311	 -0.597295	 1.048720
O	 -3.456397	 -0.705634	 0.398148
C	 -2.241405	 -0.207013	 0.895906
C	 -1.177863	 -0.397191	 -0.171080
H	 -2.334323	 0.849032	 1.145792
H	 -1.955177	 -0.733318	 1.805530
C	 0.198102	 0.111031	 0.262842
H	 -1.500721	 0.118575	 -1.071345
H	 -1.126617	 -1.453973	 -0.418187
C	 1.331804	 -0.827780	 -0.158768
H	 0.361943	 1.100838	 -0.156218
H	 0.217265	 0.229072	 1.345532
C	 2.723619	 -0.410569	 0.329459
H	 1.342964	 -0.912588	 -1.244120
H	 1.116806	 -1.824343	 0.220779
C	 3.243875	 0.895854	 -0.272975
H	 3.424222	 -1.207124	 0.091250
H	 2.714788	 -0.329854	 1.414619
H	 3.251977	 0.848779	 -1.358681
H	 2.637085	 1.747371	 0.016682
H	 4.259473	 1.094070	 0.055697

	symmetry c1
}
set optking {
	frozen_dihedral = ("
		8 4 7 10
	")
}

ee = optimize('scf')
oeprop('DIPOLE', 'QUADRUPOLE', 'MULLIKEN_CHARGES')
f=open( 'psi4out.xyz', 'w' )
f.write( "21  " )
f.write( str(ee) + "\n" )
f.write( MOL.save_string_xyz() )
f.close()
--------------------------------------------------------------------------

    Molecular point group: c1
  Charge       = 0
  Multiplicity = 1
  Basis Set: 6-31G*
  Basis Set:
  @DF-RHF Final Energy:  -310.20882992057216
    Total Energy =                       -310.2088299205721569
    Molecular point group: c1
  Basis Set: 6-31G*
  Basis Set:
  Basis Set: 6-31G*
  Basis Set:
  @DF-RHF Final Energy:  -310.20907311459956
    Total Energy =                       -310.2090731145991640
  Basis Set: 6-31G*
  Basis Set:
  Basis Set: 6-31G*
  Basis Set:
  @DF-RHF Final Energy:  -310.20907009174255
    Total Energy =                       -310.2090700917427739
  Basis Set: 6-31G*
  Basis Set:
  Basis Set: 6-31G*
  Basis Set:
  @DF-RHF Final Energy:  -310.20916071723417
    Total Energy =                       -310.2091607172341128
  Basis Set: 6-31G*
  Basis Set:
  Basis Set: 6-31G*
  Basis Set:
  @DF-RHF Final Energy:  -310.20915901930880
    Total Energy =                       -310.2091590193086859
  Basis Set: 6-31G*
  Basis Set:
  Basis Set: 6-31G*
  Basis Set:
  @DF-RHF Final Energy:  -310.20916463369400
    Total Energy =                       -310.2091646336943995
  Basis Set: 6-31G*
  Basis Set:
  Charge       = 0
  Multiplicity = 1
  Basis Set: 6-31G*
  Basis Set:

    Orbital Energies (a.u.)
    -----------------------

    Doubly Occupied:

       1A    -20.551844     2A    -11.267222     3A    -11.215724
       4A    -11.215153     5A    -11.213910     6A    -11.210432
       7A    -11.208115     8A     -1.358923     9A     -1.085150
      10A     -1.032378    11A     -0.954233    12A     -0.875472
      13A     -0.807690    14A     -0.779585    15A     -0.693383
      16A     -0.657417    17A     -0.621580    18A     -0.609508
      19A     -0.589830    20A     -0.557278    21A     -0.548842
      22A     -0.517394    23A     -0.504384    24A     -0.495593
      25A     -0.475438    26A     -0.458278    27A     -0.455019
      28A     -0.444290    29A     -0.432883

  @DF-RHF Final Energy:  -310.20916486500238

   => Energetics <=

    Nuclear Repulsion Energy =            312.3865533289194332
    One-Electron Energy =               -1039.5175417020423083
    Two-Electron Energy =                 416.9218235081206103
    DFT Exchange-Correlation Energy =       0.0000000000000000
    Empirical Dispersion Energy =           0.0000000000000000
    PCM Polarization Energy =               0.0000000000000000
    EFP Energy =                            0.0000000000000000
    Total Energy =                       -310.2091648650022080
    Molecular point group: c1
  Basis Set: 6-31G*
  Basis Set:

  -Total Gradient:
     Atom            X                  Y                   Z
    ------   -----------------  -----------------  -----------------
       1        0.000012553403     0.000005651338     0.000003840052
       2        0.000012968927     0.000002531253    -0.000012732653
       3       -0.000002642165    -0.000010341894     0.000019583079
       4        0.001751841943    -0.003387756560    -0.001641354749
       5       -0.000003546283     0.000000037298    -0.000004733604
       6       -0.000002733674    -0.000002150073    -0.000002691559
       7       -0.000046038458     0.002350920120    -0.002367777541
       8       -0.001485629099     0.002310468882     0.001950840673
       9       -0.000009205248     0.000000365993    -0.000002173043
      10       -0.000237163815    -0.001271708266     0.002062279794
      11        0.000010278234     0.000001702900    -0.000001289026
      12        0.000001109774     0.000000759037     0.000000336965
      13       -0.000006454191     0.000000602755     0.000000398832
      14       -0.000002128461     0.000002432316     0.000001517553
      15        0.000012368931    -0.000002302809     0.000002532404
      16        0.000001679067     0.000004373767    -0.000002882535
      17       -0.000007705238    -0.000006814658    -0.000000258135
      18       -0.000001445457     0.000000082038    -0.000000703588
      19        0.000004258008     0.000002534508    -0.000004549324
      20       -0.000000322095    -0.000002323307    -0.000000537155
      21       -0.000002044100     0.000000935364     0.000000353561

  **** Optimization is complete! (in 7 steps) ****
    Final optimized geometry and variables:
    Molecular point group: c1

    Geometry (in Angstrom), charge = 0, multiplicity = 1:

    H           -4.181992980872    -0.309713250669     0.809932637334
    O           -3.498778048052    -0.422216036227     0.164558315613
    C           -2.270018296694    -0.003585491982     0.698736541745
    C           -1.197430326043    -0.201930303433    -0.359615723122
    H           -2.314660048470     1.045300285361     0.990123548921
    H           -2.022337795942    -0.578846852339     1.589976641298
    C            0.184314383853     0.293817032014     0.106571705518
    H           -1.518379119707     0.338878068108    -1.244148247066
    H           -1.167301163586    -1.255321598019    -0.619586397868
    C            1.330809602286    -0.623329463985    -0.329820394532
    H            0.346831849669     1.304686246445    -0.252879694511
    H            0.202213501176     0.357052491461     1.194391206043
    C            2.720686347468    -0.179230088493     0.138804668759
    H            1.330041531760    -0.714227174217    -1.415161728987
    H            1.135406852993    -1.620971580648     0.057059144954
    C            3.221289961555     1.119576779536    -0.496129541735
    H            3.429259103571    -0.972274110835    -0.087345430780
    H            2.718965481215    -0.075097633559     1.222179847994
    H            3.226202058767     1.046631766755    -1.580353463542
    H            2.604463880271     1.969824542780    -0.224737766206
    H            4.235334501213     1.338896179828    -0.176173732900

  Mulliken Charges: (a.u.)
   Center  Symbol    Alpha    Beta     Spin     Total
       1     H     0.28115  0.28115  0.00000  0.43769
       2     O     4.37169  4.37169  0.00000 -0.74339
       3     C     2.99306  2.99306  0.00000  0.01388
       4     C     3.15991  3.15991  0.00000 -0.31982
       5     H     0.43272  0.43272  0.00000  0.13456
       6     H     0.43280  0.43280  0.00000  0.13440
       7     C     3.16403  3.16403  0.00000 -0.32807
       8     H     0.41239  0.41239  0.00000  0.17521
       9     H     0.41300  0.41300  0.00000  0.17399
      10     C     3.15323  3.15323  0.00000 -0.30646
      11     H     0.41706  0.41706  0.00000  0.16588
      12     H     0.42479  0.42479  0.00000  0.15042
      13     C     3.15322  3.15322  0.00000 -0.30644
      14     H     0.42250  0.42250  0.00000  0.15500
      15     H     0.42136  0.42136  0.00000  0.15729
      16     C     3.24094  3.24094  0.00000 -0.48188
      17     H     0.42062  0.42062  0.00000  0.15876
      18     H     0.42391  0.42391  0.00000  0.15218
      19     H     0.42170  0.42170  0.00000  0.15661
      20     H     0.42062  0.42062  0.00000  0.15876
      21     H     0.41929  0.41929  0.00000  0.16142

   Total alpha = 29.00000, Total beta = 29.00000, Total charge = -0.00000
