                              Psi4 1.0.54 Driver

  ==> Input File <==

--------------------------------------------------------------------------
set {
	reference rhf
	basis cc-pvtz
}

set_num_threads( 4 )
memory 2 gb

molecule MOL {
0 1

H	 -1.317415	 1.740374	 2.689192
O	 -1.001688	 2.378821	 2.076328
C	 -0.546707	 1.748502	 0.911927
C	 0.778218	 1.048391	 1.140425
H	 -1.273587	 1.036852	 0.533339
H	 -0.422331	 2.518731	 0.164291
O	 1.172093	 0.457955	 -0.054438
H	 0.670934	 0.294789	 1.922391
H	 1.516666	 1.770455	 1.482320
C	 2.395478	 -0.199028	 -0.000366
H	 2.505946	 -0.901710	 -0.823354
H	 3.174616	 0.545641	 -0.071768
H	 2.513730	 -0.742241	 0.934223

	symmetry c1
}
set optking {
	frozen_dihedral = ("
		4 7 10 13
	")
}

ee,wfn = optimize('scf', return_wfn=True)
oeprop( wfn, 'DIPOLE', 'QUADRUPOLE', 'MULLIKEN_CHARGES')
f=open( 'psi4out.xyz', 'w' )
f.write( "13  " )
f.write( str(ee) + "\n" )
f.write( MOL.save_string_xyz() )
f.close()
--------------------------------------------------------------------------

    Molecular point group: c1
  Charge       = 0
  Multiplicity = 1
  Basis Set: CC-PVTZ
  Basis Set:
  @DF-RHF Final Energy:  -268.06054164668512
    Total Energy =                       -268.0605416466852375
    Molecular point group: c1
  Basis Set: CC-PVTZ
  Basis Set:
  Basis Set: CC-PVTZ
  Basis Set:
  @DF-RHF Final Energy:  -268.06120076442141
    Total Energy =                       -268.0612007644215851
  Basis Set: CC-PVTZ
  Basis Set:
  Basis Set: CC-PVTZ
  Basis Set:
  @DF-RHF Final Energy:  -268.06137262690328
    Total Energy =                       -268.0613726269032782
  Basis Set: CC-PVTZ
  Basis Set:
  Charge       = 0
  Multiplicity = 1
  Basis Set: CC-PVTZ
  Basis Set:

    Orbital Energies (a.u.)
    -----------------------

    Doubly Occupied:

       1A    -20.555138     2A    -20.552819     3A    -11.269467
       4A    -11.267718     5A    -11.267378     6A     -1.391017
       7A     -1.369106     8A     -1.019660     9A     -0.914065
      10A     -0.842933    11A     -0.711628    12A     -0.675951
      13A     -0.663177    14A     -0.638335    15A     -0.598494
      16A     -0.569910    17A     -0.548576    18A     -0.491021
      19A     -0.484160    20A     -0.441628    21A     -0.422950

  @DF-RHF Final Energy:  -268.06137386539137

   => Energetics <=

    Nuclear Repulsion Energy =            190.4403185341017206
    One-Electron Energy =                -743.6131179303886256
    Two-Electron Energy =                 285.1114255308955308
    DFT Exchange-Correlation Energy =       0.0000000000000000
    Empirical Dispersion Energy =           0.0000000000000000
    PCM Polarization Energy =               0.0000000000000000
    EFP Energy =                            0.0000000000000000
    Total Energy =                       -268.0613738653913742
    Molecular point group: c1
  Basis Set: CC-PVTZ
  Basis Set:

  -Total Gradient:
     Atom            X                  Y                   Z
    ------   -----------------  -----------------  -----------------
       1        0.000004527648    -0.000008902268    -0.000005180508
       2        0.000073057384    -0.000024057119    -0.000030018724
       3       -0.000023752157    -0.000015572198    -0.000084181309
       4       -0.000861359837    -0.001746705400     0.000707545163
       5       -0.000000549299    -0.000001005005    -0.000002472092
       6       -0.000017522211     0.000019208813    -0.000002550673
       7        0.001638213766     0.002937554352    -0.000549028066
       8        0.000005452928     0.000004812088     0.000013015881
       9        0.000013180985    -0.000016170211    -0.000044204106
      10       -0.001672591321    -0.003226454313    -0.001023201929
      11       -0.000072680590     0.000035306453     0.000007680598
      12       -0.000032198374     0.000016812281    -0.000007640092
      13        0.000946221080     0.002025172528     0.001020235854

  **** Optimization is complete! (in 4 steps) ****
    Final optimized geometry and variables:
    Molecular point group: c1

    Geometry (in Angstrom), charge = 0, multiplicity = 1:

    H           -1.884316683467     0.649937111496     1.831883205423
    O           -1.569377451751     1.286726502836     1.216882752218
    C           -1.099572329803     0.651780945776     0.060914612471
    C            0.229491333057    -0.034676160255     0.305697540980
    H           -1.816606059931    -0.069753509401    -0.317828874451
    H           -0.976608116006     1.417360766420    -0.691699558114
    O            0.632754893901    -0.637134271566    -0.880170590949
    H            0.124093462716    -0.780412230000     1.094727973177
    H            0.958816258652     0.698565556968     0.644078350832
    C            1.866191985029    -1.278075882603    -0.824800094300
    H            1.918913357153    -1.981071592080    -1.643201194434
    H            2.681823111666    -0.565220980920    -0.920733932457
    H            1.998241465104    -1.808835612377     0.114473001313

  Mulliken Charges: (a.u.)
   Center  Symbol    Alpha    Beta     Spin     Total
       1     H     0.39407  0.39407  0.00000  0.21185
       2     O     4.20213  4.20213  0.00000 -0.40426
       3     C     2.97394  2.97394  0.00000  0.05211
       4     C     2.96511  2.96511  0.00000  0.06978
       5     H     0.46710  0.46710  0.00000  0.06581
       6     H     0.45254  0.45254  0.00000  0.09492
       7     O     4.17666  4.17666  0.00000 -0.35333
       8     H     0.48082  0.48082  0.00000  0.03837
       9     H     0.47063  0.47063  0.00000  0.05874
      10     C     3.03054  3.03054  0.00000 -0.06109
      11     H     0.44769  0.44769  0.00000  0.10462
      12     H     0.46561  0.46561  0.00000  0.06879
      13     H     0.47316  0.47316  0.00000  0.05369

   Total alpha = 21.00000, Total beta = 21.00000, Total charge =  0.00000

*** Psi4 exiting successfully. Buy a developer a beer!
