  ==> Input File <==

--------------------------------------------------------------------------
set {
	reference rhf
	basis 6-31G*
}

set_num_threads( 1 )
memory 2 gb

molecule MOL {
0 1

O	 -3.670176	 -0.414647	 -0.339501
C	 -2.668563	 0.129746	 -0.000350
C	 -2.609093	 1.558508	 0.475433
O	 -1.481751	 -0.454642	 0.000584
H	 -3.259061	 1.666128	 1.335561
H	 -1.603680	 1.855129	 0.735432
H	 -2.992250	 2.202115	 -0.307408
C	 -0.334255	 0.388708	 0.000906
C	 0.891947	 -0.504646	 0.000751
H	 -0.365390	 1.025305	 -0.873475
H	 -0.365484	 1.024911	 0.875569
C	 2.191998	 0.301789	 0.000897
H	 0.855148	 -1.151283	 -0.871571
H	 0.855132	 -1.151660	 0.872805
C	 3.441114	 -0.581407	 0.000108
H	 2.215074	 0.954890	 -0.869742
H	 2.215465	 0.953923	 0.872248
C	 4.739576	 0.224112	 -0.001102
H	 3.419457	 -1.233487	 -0.870178
H	 3.420834	 -1.233096	 0.870717
H	 4.804918	 0.861552	 -0.878265
H	 5.606527	 -0.429058	 -0.001824
H	 4.806469	 0.861674	 0.875853

	symmetry c1
}
set optking {
	frozen_dihedral = ("
		13 9 8 10,
		2 4 8 10,
		16 12 9 13,
		19 15 12 16
	")
}

ee = energy('scf')
oeprop('DIPOLE', 'QUADRUPOLE', 'MULLIKEN_CHARGES')
f=open( 'psi4out.xyz', 'w' )
f.write( "23  " )
f.write( str(ee) + "\n" )
f.write( MOL.save_string_xyz() )
f.close()
--------------------------------------------------------------------------

    Molecular point group: c1

    Geometry (in Angstrom), charge = 0, multiplicity = 1:

       Center              X                  Y                   Z               Mass
    ------------   -----------------  -----------------  -----------------  -----------------
           O         -3.710104615489    -0.495762913090    -0.355475759896    15.994914619560
           C         -2.708491615489     0.048630086910    -0.016324759896    12.000000000000
           C         -2.649021615489     1.477392086910     0.459458240104    12.000000000000
           O         -1.521679615489    -0.535757913090    -0.015390759896    15.994914619560
           H         -3.298989615489     1.585012086910     1.319586240104     1.007825032070
           H         -1.643608615489     1.774013086910     0.719457240104     1.007825032070
           H         -3.032178615489     2.120999086910    -0.323382759896     1.007825032070
           C         -0.374183615489     0.307592086910    -0.015068759896    12.000000000000
           C          0.852018384511    -0.585761913090    -0.015223759896    12.000000000000
           H         -0.405318615489     0.944189086910    -0.889449759896     1.007825032070
           H         -0.405412615489     0.943795086910     0.859594240104     1.007825032070
           C          2.152069384511     0.220673086910    -0.015077759896    12.000000000000
           H          0.815219384511    -1.232398913090    -0.887545759896     1.007825032070
           H          0.815203384511    -1.232775913090     0.856830240104     1.007825032070
           C          3.401185384511    -0.662522913090    -0.015866759896    12.000000000000
           H          2.175145384511     0.873774086910    -0.885716759896     1.007825032070
           H          2.175536384511     0.872807086910     0.856273240104     1.007825032070
           C          4.699647384511     0.142996086910    -0.017076759896    12.000000000000
           H          3.379528384511    -1.314602913090    -0.886152759896     1.007825032070
           H          3.380905384511    -1.314211913090     0.854742240104     1.007825032070
           H          4.764989384511     0.780436086910    -0.894239759896     1.007825032070
           H          5.566598384511    -0.510173913090    -0.017798759896     1.007825032070
           H          4.766540384511     0.780558086910     0.859878240104     1.007825032070

  Charge       = 0
  Multiplicity = 1
  Basis Set: 6-31G*
  Basis Set:

    Orbital Energies (a.u.)
    -----------------------

    Doubly Occupied:

       1A    -20.604310     2A    -20.539742     3A    -11.375554
       4A    -11.299205     5A    -11.232612     6A    -11.231971
       7A    -11.231334     8A    -11.226915     9A    -11.217533
      10A     -1.466706    11A     -1.366480    12A     -1.100367
      13A     -1.037813    14A     -1.020020    15A     -0.947571
      16A     -0.852290    17A     -0.811211    18A     -0.781328
      19A     -0.709049    20A     -0.697484    21A     -0.664039
      22A     -0.652367    23A     -0.616403    24A     -0.600409
      25A     -0.586105    26A     -0.572620    27A     -0.559200
      28A     -0.539754    29A     -0.529462    30A     -0.511541
      31A     -0.499076    32A     -0.483274    33A     -0.477451
      34A     -0.475894    35A     -0.447145    36A     -0.427632

  @DF-RHF Final Energy:  -422.94508205479360

   => Energetics <=

    Nuclear Repulsion Energy =            452.8830917644784222
    One-Electron Energy =               -1472.8725208264627327
    Two-Electron Energy =                 597.0443470071921865
    DFT Exchange-Correlation Energy =       0.0000000000000000
    Empirical Dispersion Energy =           0.0000000000000000
    PCM Polarization Energy =               0.0000000000000000
    EFP Energy =                            0.0000000000000000
    Total Energy =                       -422.9450820547921239

  Mulliken Charges: (a.u.)
   Center  Symbol    Alpha    Beta     Spin     Total
       1     O     4.27351  4.27351  0.00000 -0.54702
       2     C     2.60222  2.60222  0.00000  0.79555
       3     C     3.31177  3.31177  0.00000 -0.62353
       4     O     4.30488  4.30488  0.00000 -0.60975
       5     H     0.39279  0.39279  0.00000  0.21441
       6     H     0.40747  0.40747  0.00000  0.18506
       7     H     0.39405  0.39405  0.00000  0.21189
       8     C     3.01355  3.01355  0.00000 -0.02710
       9     C     3.16044  3.16044  0.00000 -0.32088
      10     H     0.41216  0.41216  0.00000  0.17568
      11     H     0.41322  0.41322  0.00000  0.17357
      12     C     3.16123  3.16123  0.00000 -0.32247
      13     H     0.40828  0.40828  0.00000  0.18343
      14     H     0.40985  0.40985  0.00000  0.18030
      15     C     3.15197  3.15197  0.00000 -0.30393
      16     H     0.42168  0.42168  0.00000  0.15665
      17     H     0.42257  0.42257  0.00000  0.15485
      18     C     3.24012  3.24012  0.00000 -0.48024
      19     H     0.41953  0.41953  0.00000  0.16093
      20     H     0.42006  0.42006  0.00000  0.15988
      21     H     0.42087  0.42087  0.00000  0.15826
      22     H     0.41661  0.41661  0.00000  0.16678
      23     H     0.42116  0.42116  0.00000  0.15767

   Total alpha = 36.00000, Total beta = 36.00000, Total charge = -0.00000
