                              Psi4 1.0.54 Driver

  ==> Input File <==

--------------------------------------------------------------------------
set {
	reference rhf
	basis cc-pvtz
}

set_num_threads( 4 )
memory 2 gb

molecule MOL {
0 1

H	 2.614283	 2.028610	 0.296620
O	 3.358864	 1.662087	 -0.142800
C	 3.565468	 0.338079	 0.273842
C	 2.533667	 -0.637565	 -0.272227
H	 4.548038	 0.064914	 -0.086598
H	 3.593945	 0.282242	 1.360360
C	 1.114816	 -0.402372	 0.240993
H	 2.544552	 -0.580764	 -1.356576
H	 2.850574	 -1.642962	 -0.005497
C	 0.113298	 -1.420414	 -0.302504
H	 0.796373	 0.598427	 -0.031033
H	 1.113377	 -0.446476	 1.328807
C	 -1.310443	 -1.278919	 0.238973
H	 0.092462	 -1.356251	 -1.387711
H	 0.472791	 -2.418081	 -0.066085
C	 -2.041926	 -0.008125	 -0.189697
H	 -1.887808	 -2.137887	 -0.091711
H	 -1.287759	 -1.331693	 1.325184
C	 -3.489453	 0.039474	 0.292806
H	 -2.024395	 0.066059	 -1.274896
H	 -1.519687	 0.867621	 0.183584
C	 -4.221596	 1.308675	 -0.130264
H	 -4.022987	 -0.827321	 -0.087439
H	 -3.509199	 -0.043055	 1.376255
H	 -4.247277	 1.403939	 -1.210775
H	 -5.245514	 1.309015	 0.225685
H	 -3.733797	 2.193051	 0.266324

	symmetry c1
}
set optking {
	frozen_dihedral = ("
		14 10 7 4
	")
}

ee,wfn = optimize('scf', return_wfn=True)
oeprop( wfn, 'DIPOLE', 'QUADRUPOLE', 'MULLIKEN_CHARGES')
f=open( 'psi4out.xyz', 'w' )
f.write( "27  " )
f.write( str(ee) + "\n" )
f.write( MOL.save_string_xyz() )
f.close()
--------------------------------------------------------------------------

    Molecular point group: c1
  Charge       = 0
  Multiplicity = 1
  Basis Set: CC-PVTZ
  Basis Set:
  @DF-RHF Final Energy:  -388.42778856215892
    Total Energy =                       -388.4277885621593214
    Molecular point group: c1
  Basis Set: CC-PVTZ
  Basis Set:
  Charge       = 0
  Multiplicity = 1
  Basis Set: CC-PVTZ
  Basis Set:

    Orbital Energies (a.u.)
    -----------------------

    Doubly Occupied:

       1A    -20.545348     2A    -11.264994     3A    -11.216749
       4A    -11.214708     5A    -11.213890     6A    -11.213257
       7A    -11.213239     8A    -11.211859     9A    -11.207262
      10A     -1.363238    11A     -1.096224    12A     -1.062574
      13A     -1.012527    14A     -0.949409    15A     -0.888678
      16A     -0.820532    17A     -0.801916    18A     -0.778284
      19A     -0.696272    20A     -0.652670    21A     -0.639501
      22A     -0.616029    23A     -0.601843    24A     -0.583519
      25A     -0.580995    26A     -0.553633    27A     -0.541254
      28A     -0.532657    29A     -0.505772    30A     -0.495371
      31A     -0.485350    32A     -0.474388    33A     -0.469391
      34A     -0.461395    35A     -0.452606    36A     -0.442646
      37A     -0.425676

  @DF-RHF Final Energy:  -388.42778840831829

   => Energetics <=

    Nuclear Repulsion Energy =            460.2436030659864628
    One-Electron Energy =               -1438.7714709805941311
    Two-Electron Energy =                 590.1000795062893758
    DFT Exchange-Correlation Energy =       0.0000000000000000
    Empirical Dispersion Energy =           0.0000000000000000
    PCM Polarization Energy =               0.0000000000000000
    EFP Energy =                            0.0000000000000000
    Total Energy =                       -388.4277884083182926
    Molecular point group: c1
  Basis Set: CC-PVTZ
  Basis Set:

  -Total Gradient:
     Atom            X                  Y                   Z
    ------   -----------------  -----------------  -----------------
       1        0.000009441246     0.000010523974    -0.000002898454
       2       -0.000021462880     0.000011022515     0.000014284019
       3        0.000033140064    -0.000024918741    -0.000021131648
       4       -0.000005268728    -0.000011515274     0.000010091565
       5        0.000004770366    -0.000000965135     0.000003843416
       6       -0.000001987118     0.000008355445     0.000002487316
       7        0.000015102659    -0.000044827884     0.000011278401
       8        0.000012981379     0.000026161419     0.000015606941
       9       -0.000013107216    -0.000013522383    -0.000012996364
      10       -0.000026683649     0.000034551150     0.000004917658
      11       -0.000077004523     0.000051447400    -0.000008104197
      12        0.000020334763     0.000013441841    -0.000029829320
      13       -0.000025865037    -0.000028999221     0.000005668740
      14        0.000036724083    -0.000043498052    -0.000011388616
      15        0.000032792810    -0.000006146662     0.000015187407
      16        0.000014060847    -0.000007815745    -0.000000733777
      17       -0.000014329650     0.000020681061    -0.000009460743
      18       -0.000020321186    -0.000018408078    -0.000002596584
      19       -0.000002362741     0.000007687329     0.000000645236
      20       -0.000009334552    -0.000012393954     0.000015269013
      21        0.000033691389     0.000021050498    -0.000004076036
      22       -0.000000307289     0.000007322659     0.000008180023
      23        0.000006936939     0.000002527892    -0.000004780742
      24       -0.000001431324    -0.000000239265    -0.000003225847
      25        0.000000190659    -0.000005490499     0.000002825100
      26       -0.000001524160     0.000002627402     0.000002383478
      27        0.000000822849     0.000001340304    -0.000001445985

  **** Optimization is complete! (in 2 steps) ****
    Final optimized geometry and variables:
    Molecular point group: c1

    Geometry (in Angstrom), charge = 0, multiplicity = 1:

    H            2.612725935124     2.029200923698     0.302742624746
    O            3.357098113398     1.664812904973    -0.138511731741
    C            3.564495800055     0.339081458362     0.272107206971
    C            2.532735823199    -0.634507832306    -0.277529520412
    H            4.546997561604     0.067889778863    -0.089973784868
    H            3.593510531222     0.278651105564     1.358330102597
    C            1.112987086314    -0.398457442340     0.232699313146
    H            2.546145976699    -0.575876468978    -1.361676859180
    H            2.847924258298    -1.640688046739    -0.011779588491
    C            0.114037502483    -1.422724157864    -0.303686287149
    H            0.792381965897     0.599651512245    -0.046752279079
    H            1.110987974924    -0.434577504546     1.320714026993
    C           -1.310320594317    -1.280596659674     0.236079401164
    H            0.093879515267    -1.366996067014    -1.389362373653
    H            0.475967383069    -2.417647984085    -0.059558117687
    C           -2.040521881161    -0.009268452734    -0.193038682286
    H           -1.887921431596    -2.138970390937    -0.095546727169
    H           -1.289102774525    -1.333728575055     1.322262438220
    C           -3.487666027230     0.040581584906     0.290180566896
    H           -2.023551992563     0.063987821288    -1.278243691768
    H           -1.517009292023     0.866123566931     0.179208230204
    C           -4.217943082910     1.311126157837    -0.131891232531
    H           -4.022819032013    -0.825157953452    -0.090110295470
    H           -3.506942509686    -0.042337136155     1.373559499116
    H           -4.244975523438     1.406346696975    -1.212334120944
    H           -5.241317396733     1.313519774150     0.225492106931
    H           -3.727853468079     2.194558954338     0.263900350289

  Mulliken Charges: (a.u.)
   Center  Symbol    Alpha    Beta     Spin     Total
       1     H     0.39229  0.39229  0.00000  0.21543
       2     O     4.20552  4.20552  0.00000 -0.41103
       3     C     2.97996  2.97996  0.00000  0.04007
       4     C     3.08918  3.08918  0.00000 -0.17835
       5     H     0.44858  0.44858  0.00000  0.10285
       6     H     0.46971  0.46971  0.00000  0.06059
       7     C     3.10272  3.10272  0.00000 -0.20545
       8     H     0.45076  0.45076  0.00000  0.09849
       9     H     0.45519  0.45519  0.00000  0.08961
      10     C     3.09855  3.09855  0.00000 -0.19711
      11     H     0.45570  0.45570  0.00000  0.08860
      12     H     0.45377  0.45377  0.00000  0.09246
      13     C     3.09804  3.09804  0.00000 -0.19607
      14     H     0.45166  0.45166  0.00000  0.09669
      15     H     0.44804  0.44804  0.00000  0.10391
      16     C     3.08796  3.08796  0.00000 -0.17592
      17     H     0.44797  0.44797  0.00000  0.10406
      18     H     0.45386  0.45386  0.00000  0.09228
      19     C     3.08407  3.08407  0.00000 -0.16813
      20     H     0.45406  0.45406  0.00000  0.09189
      21     H     0.45545  0.45545  0.00000  0.08910
      22     C     3.14960  3.14960  0.00000 -0.29919
      23     H     0.45374  0.45374  0.00000  0.09252
      24     H     0.45472  0.45472  0.00000  0.09056
      25     H     0.45484  0.45484  0.00000  0.09032
      26     H     0.44829  0.44829  0.00000  0.10342
      27     H     0.45579  0.45579  0.00000  0.08842

   Total alpha = 37.00000, Total beta = 37.00000, Total charge = -0.00000

*** Psi4 exiting successfully. Buy a developer a beer!
