  ==> Input File <==

--------------------------------------------------------------------------
set {
	reference rhf
	basis 6-31G*
}

set_num_threads( 4 )
memory 2 gb

molecule MOL {
0 1

H	 -1.963588	 -0.812855	 -0.469019
O	 -2.035884	 -0.060112	 0.102722
C	 -0.955155	 0.788182	 -0.092531
C	 0.353668	 0.040312	 -0.004810
H	 -0.985057	 1.290372	 -1.054184
H	 -0.974469	 1.533190	 0.688632
F	 0.394464	 -0.937475	 -0.903053
F	 1.368604	 0.853376	 -0.249821
F	 0.546173	 -0.502608	 1.179981

	symmetry c1
}
set optking {
	frozen_dihedral = ("
		1 2 3 5
	")
}

ee = optimize('scf')
oeprop('DIPOLE', 'QUADRUPOLE', 'MULLIKEN_CHARGES')
f=open( 'psi4out.xyz', 'w' )
f.write( "9  " )
f.write( str(ee) + "\n" )
f.write( MOL.save_string_xyz() )
f.close()
--------------------------------------------------------------------------

    Molecular point group: c1
  Charge       = 0
  Multiplicity = 1
  Basis Set: 6-31G*
  Basis Set:
  @DF-RHF Final Energy:  -450.66231062480938
    Total Energy =                       -450.6623106248092654
    Molecular point group: c1
  Basis Set: 6-31G*
  Basis Set:
  Basis Set: 6-31G*
  Basis Set:
  @DF-RHF Final Energy:  -450.66234909755440
    Total Energy =                       -450.6623490975544541
  Basis Set: 6-31G*
  Basis Set:
  Basis Set: 6-31G*
  Basis Set:
  @DF-RHF Final Energy:  -450.66235727948668
    Total Energy =                       -450.6623572794865140
  Basis Set: 6-31G*
  Basis Set:
  Charge       = 0
  Multiplicity = 1
  Basis Set: 6-31G*
  Basis Set:

    Orbital Energies (a.u.)
    -----------------------

    Doubly Occupied:

       1A    -26.347426     2A    -26.346307     3A    -26.342006
       4A    -20.589594     5A    -11.503494     6A    -11.309488
       7A     -1.743358     8A     -1.642468     9A     -1.639613
      10A     -1.401786    11A     -1.049365    12A     -0.925947
      13A     -0.833334    14A     -0.831649    15A     -0.810841
      16A     -0.724121    17A     -0.714752    18A     -0.694730
      19A     -0.667256    20A     -0.662368    21A     -0.645597
      22A     -0.629942    23A     -0.620582    24A     -0.528915
      25A     -0.479957

  @DF-RHF Final Energy:  -450.66235778819754

   => Energetics <=

    Nuclear Repulsion Energy =            277.2428173667071292
    One-Electron Energy =               -1176.4405623128729985
    Two-Electron Energy =                 448.5353871579685574
    DFT Exchange-Correlation Energy =       0.0000000000000000
    Empirical Dispersion Energy =           0.0000000000000000
    PCM Polarization Energy =               0.0000000000000000
    EFP Energy =                            0.0000000000000000
    Total Energy =                       -450.6623577881972551
    Molecular point group: c1
  Basis Set: 6-31G*
  Basis Set:

  -Total Gradient:
     Atom            X                  Y                   Z
    ------   -----------------  -----------------  -----------------
       1        0.001080945624    -0.001054453945     0.001458957117
       2       -0.001636003695     0.001696513407    -0.001551842342
       3        0.001520762728    -0.002069407274    -0.000723384492
       4       -0.000091700687    -0.000061248054     0.000023320240
       5       -0.000936414926     0.001402530152     0.000803045570
       6        0.000013224960     0.000005499842     0.000008536389
       7        0.000013494437     0.000050172284     0.000081079232
       8        0.000052690840     0.000049723911    -0.000044143465
       9       -0.000016999274    -0.000019330321    -0.000055568251

  **** Optimization is complete! (in 4 steps) ****
    Final optimized geometry and variables:
    Molecular point group: c1

    Geometry (in Angstrom), charge = 0, multiplicity = 1:

    H           -1.977230143980    -0.805339845288    -0.490648678380
    O           -2.041289084580    -0.060747628345     0.093439230254
    C           -0.957134578022     0.785847794165    -0.092835423962
    C            0.354078040225     0.043908936731    -0.004980330940
    H           -0.992106869573     1.302698446911    -1.046574011059
    H           -0.979410436514     1.524893823385     0.694406541870
    F            0.388404926104    -0.948249658887    -0.889309176638
    F            1.365582309730     0.853292762914    -0.268007980648
    F            0.554973632275    -0.485276301898     1.185143062101

  Mulliken Charges: (a.u.)
   Center  Symbol    Alpha    Beta     Spin     Total
       1     H     0.27243  0.27243  0.00000  0.45515
       2     O     4.36395  4.36395  0.00000 -0.72789
       3     C     3.04592  3.04592  0.00000 -0.09185
       4     C     2.47031  2.47031  0.00000  1.05938
       5     H     0.40957  0.40957  0.00000  0.18085
       6     H     0.39628  0.39628  0.00000  0.20744
       7     F     4.68649  4.68649  0.00000 -0.37298
       8     F     4.68026  4.68026  0.00000 -0.36053
       9     F     4.67479  4.67479  0.00000 -0.34957

   Total alpha = 25.00000, Total beta = 25.00000, Total charge = -0.00000
