  ==> Input File <==

--------------------------------------------------------------------------
set {
	reference rhf
	basis 6-31G*
}

set_num_threads( 4 )
memory 2 gb

molecule MOL {
0 1

H	 -0.944757	 -0.000069	 1.678017
O	 -0.042387	 -0.000390	 1.388199
C	 -0.001487	 0.000018	 -0.026623
C	 -0.913503	 -1.103803	 -0.565553
C	 -0.436080	 1.369950	 -0.551084
C	 1.454291	 -0.278860	 -0.383495
H	 -0.872585	 -1.157708	 -1.648751
H	 -1.947964	 -0.922570	 -0.282796
H	 -0.618285	 -2.065480	 -0.160532
H	 -0.377758	 1.416198	 -1.633927
H	 -1.463625	 1.584335	 -0.266267
H	 0.196260	 2.147852	 -0.137692
H	 1.593723	 -0.300027	 -1.459532
H	 1.763455	 -1.234643	 0.024404
H	 2.095885	 0.489140	 0.033550

	symmetry c1
}
set optking {
	frozen_dihedral = ("
		4 3 2 1
	")
}

ee = optimize('scf')
oeprop('DIPOLE', 'QUADRUPOLE', 'MULLIKEN_CHARGES')
f=open( 'psi4out.xyz', 'w' )
f.write( "15  " )
f.write( str(ee) + "\n" )
f.write( MOL.save_string_xyz() )
f.close()
--------------------------------------------------------------------------

    Molecular point group: c1
  Charge       = 0
  Multiplicity = 1
  Basis Set: 6-31G*
  Basis Set:
  @DF-RHF Final Energy:  -232.15315972620130
    Total Energy =                       -232.1531597262013520
    Molecular point group: c1
  Basis Set: 6-31G*
  Basis Set:
  Basis Set: 6-31G*
  Basis Set:
  @DF-RHF Final Energy:  -232.15316804983988
    Total Energy =                       -232.1531680498400192
  Basis Set: 6-31G*
  Basis Set:
  Basis Set: 6-31G*
  Basis Set:
  @DF-RHF Final Energy:  -232.15317212664985
    Total Energy =                       -232.1531721266498494
  Basis Set: 6-31G*
  Basis Set:
  Basis Set: 6-31G*
  Basis Set:
  @DF-RHF Final Energy:  -232.15317347278631
    Total Energy =                       -232.1531734727861362
  Basis Set: 6-31G*
  Basis Set:
  Charge       = 0
  Multiplicity = 1
  Basis Set: 6-31G*
  Basis Set:

    Orbital Energies (a.u.)
    -----------------------

    Doubly Occupied:

       1A    -20.548954     2A    -11.281837     3A    -11.213168
       4A    -11.209032     5A    -11.205232     6A     -1.360522
       7A     -1.063303     8A     -0.942170     9A     -0.938673
      10A     -0.775616    11A     -0.670148    12A     -0.622593
      13A     -0.621015    14A     -0.574808    15A     -0.556654
      16A     -0.531629    17A     -0.516826    18A     -0.509014
      19A     -0.502805    20A     -0.457516    21A     -0.424834

  @DF-RHF Final Energy:  -232.15317375525191

   => Energetics <=

    Nuclear Repulsion Energy =            200.3560460293927861
    One-Electron Energy =                -711.9657379256429977
    Two-Electron Energy =                 279.4565181409984689
    DFT Exchange-Correlation Energy =       0.0000000000000000
    Empirical Dispersion Energy =           0.0000000000000000
    PCM Polarization Energy =               0.0000000000000000
    EFP Energy =                            0.0000000000000000
    Total Energy =                       -232.1531737552517143
    Molecular point group: c1
  Basis Set: 6-31G*
  Basis Set:

  -Total Gradient:
     Atom            X                  Y                   Z
    ------   -----------------  -----------------  -----------------
       1       -0.000007261326    -0.001159279380    -0.000009444471
       2       -0.000140881948     0.001548902816    -0.000017557173
       3        0.000690611577    -0.000867338177     0.000029932599
       4       -0.000549304475     0.000448422835     0.000016039070
       5        0.000039551238     0.000012682295    -0.000040940607
       6       -0.000015590260    -0.000000700395     0.000021092117
       7        0.000011814425     0.000003839459    -0.000003538659
       8        0.000008980377    -0.000005456651     0.000005635139
       9       -0.000009714436     0.000003167641     0.000001367171
      10        0.000010786227     0.000019676872     0.000006490339
      11       -0.000007151967    -0.000023814621    -0.000011944776
      12       -0.000018718796     0.000025862523     0.000006847874
      13       -0.000007838072    -0.000000778333    -0.000000522121
      14       -0.000008079330     0.000000207655    -0.000008200176
      15        0.000002796765    -0.000005394541     0.000004743673

  **** Optimization is complete! (in 5 steps) ****
    Final optimized geometry and variables:
    Molecular point group: c1

    Geometry (in Angstrom), charge = 0, multiplicity = 1:

    H           -0.944180655717     0.012147671675     1.678834680417
    O           -0.042101388351     0.007647217812     1.388614794057
    C           -0.000038287205     0.000588411397    -0.026483170626
    C           -0.913740276997    -1.102114439367    -0.564325513914
    C           -0.437330585859     1.369449185810    -0.552515360818
    C            1.455733486918    -0.276693194643    -0.383828495516
    H           -0.871492204667    -1.156564143744    -1.647278338291
    H           -1.948664450752    -0.917429803395    -0.284546769468
    H           -0.621647796936    -2.065213518785    -0.159664943228
    H           -0.380459047631     1.415642875553    -1.635673218620
    H           -1.463772136554     1.582142646361    -0.264077889675
    H            0.194447503507     2.148022270385    -0.139740307047
    H            1.598045938556    -0.282504344459    -1.459719342088
    H            1.762952702462    -1.238163801137     0.011987388295
    H            2.097205677979     0.484976577195     0.045097943146

  Mulliken Charges: (a.u.)
   Center  Symbol    Alpha    Beta     Spin     Total
       1     H     0.28363  0.28363  0.00000  0.43275
       2     O     4.37634  4.37634  0.00000 -0.75268
       3     C     2.85290  2.85290  0.00000  0.29420
       4     C     3.24562  3.24562  0.00000 -0.49125
       5     C     3.23769  3.23769  0.00000 -0.47537
       6     C     3.23357  3.23357  0.00000 -0.46715
       7     H     0.41920  0.41920  0.00000  0.16159
       8     H     0.42635  0.42635  0.00000  0.14730
       9     H     0.41227  0.41227  0.00000  0.17547
      10     H     0.42261  0.42261  0.00000  0.15477
      11     H     0.42635  0.42635  0.00000  0.14730
      12     H     0.41244  0.41244  0.00000  0.17512
      13     H     0.42411  0.42411  0.00000  0.15178
      14     H     0.41404  0.41404  0.00000  0.17191
      15     H     0.41287  0.41287  0.00000  0.17425

   Total alpha = 21.00000, Total beta = 21.00000, Total charge = -0.00000
