  ==> Input File <==

--------------------------------------------------------------------------
set {
	reference rhf
	basis 6-31G*
}

set_num_threads( 1 )
memory 2 gb

molecule MOL {
0 1

H	 2.591676	 2.013956	 0.335017
O	 3.341076	 1.666752	 -0.126416
C	 3.569581	 0.339145	 0.272707
C	 2.539767	 -0.640285	 -0.279495
H	 4.553106	 0.084646	 -0.100901
H	 3.608576	 0.269204	 1.359154
C	 1.115811	 -0.397273	 0.226630
H	 2.556196	 -0.582511	 -1.364741
H	 2.852081	 -1.648031	 -0.010655
C	 0.748357	 1.088699	 0.267641
H	 1.012318	 -0.824177	 1.220314
H	 0.408686	 -0.922441	 -0.415642
C	 -0.696691	 1.383361	 0.686390
H	 1.430403	 1.607738	 0.938656
H	 0.913914	 1.513525	 -0.720192
C	 -1.034907	 1.019485	 2.134728
H	 -0.884184	 2.445483	 0.543000
H	 -1.378527	 0.863389	 0.015148
C	 -2.453720	 1.428303	 2.536318
H	 -0.321072	 1.500641	 2.801840
H	 -0.921401	 -0.050999	 2.287974
C	 -2.796119	 1.060464	 3.979620
H	 -2.571267	 2.501206	 2.400126
H	 -3.167868	 0.956186	 1.864765
H	 -2.119158	 1.543690	 4.678506
H	 -3.806642	 1.364731	 4.234376
H	 -2.723825	 -0.011779	 4.139096

	symmetry c1
}
set optking {
	frozen_dihedral = ("
		14 10 7 4,
		14 10 13 16,
		8 4 3 2,
		10 13 16 20,
		20 16 19 22,
		4 3 2 1
	")
}

ee = energy('scf')
oeprop('DIPOLE', 'QUADRUPOLE', 'MULLIKEN_CHARGES')
f=open( 'psi4out.xyz', 'w' )
f.write( "27  " )
f.write( str(ee) + "\n" )
f.write( MOL.save_string_xyz() )
f.close()
--------------------------------------------------------------------------

    Molecular point group: c1

    Geometry (in Angstrom), charge = 0, multiplicity = 1:

       Center              X                  Y                   Z               Mass
    ------------   -----------------  -----------------  -----------------  -----------------
           H          2.073800736120     1.224276179411    -0.742839707135     1.007825032070
           O          2.823200736120     0.877072179411    -1.204272707135    15.994914619560
           C          3.051705736120    -0.450534820589    -0.805149707135    12.000000000000
           C          2.021891736120    -1.429964820589    -1.357351707135    12.000000000000
           H          4.035230736120    -0.705033820589    -1.178757707135     1.007825032070
           H          3.090700736120    -0.520475820589     0.281297292865     1.007825032070
           C          0.597935736120    -1.186952820589    -0.851226707135    12.000000000000
           H          2.038320736120    -1.372190820589    -2.442597707135     1.007825032070
           H          2.334205736120    -2.437710820589    -1.088511707135     1.007825032070
           C          0.230481736120     0.299019179411    -0.810215707135    12.000000000000
           H          0.494442736120    -1.613856820589     0.142457292865     1.007825032070
           H         -0.109189263880    -1.712120820589    -1.493498707135     1.007825032070
           C         -1.214566263880     0.593681179411    -0.391466707135    12.000000000000
           H          0.912527736120     0.818058179411    -0.139200707135     1.007825032070
           H          0.396038736120     0.723845179411    -1.798048707135     1.007825032070
           C         -1.552782263880     0.229805179411     1.056871292865    12.000000000000
           H         -1.402059263880     1.655803179411    -0.534856707135     1.007825032070
           H         -1.896402263880     0.073709179411    -1.062708707135     1.007825032070
           C         -2.971595263880     0.638623179411     1.458461292865    12.000000000000
           H         -0.838947263880     0.710961179411     1.723983292865     1.007825032070
           H         -1.439276263880    -0.840678820589     1.210117292865     1.007825032070
           C         -3.313994263880     0.270784179411     2.901763292865    12.000000000000
           H         -3.089142263880     1.711526179411     1.322269292865     1.007825032070
           H         -3.685743263880     0.166506179411     0.786908292865     1.007825032070
           H         -2.637033263880     0.754010179411     3.600649292865     1.007825032070
           H         -4.324517263880     0.575051179411     3.156519292865     1.007825032070
           H         -3.241700263880    -0.801458820589     3.061239292865     1.007825032070

  Charge       = 0
  Multiplicity = 1
  Basis Set: 6-31G*
  Basis Set:

    Orbital Energies (a.u.)
    -----------------------

    Doubly Occupied:

       1A    -20.540698     2A    -11.265006     3A    -11.225656
       4A    -11.221256     5A    -11.219141     6A    -11.218057
       7A    -11.217062     8A    -11.215105     9A    -11.210912
      10A     -1.356660    11A     -1.099184    12A     -1.062941
      13A     -1.015632    14A     -0.952925    15A     -0.889124
      16A     -0.824059    17A     -0.804693    18A     -0.788019
      19A     -0.700459    20A     -0.648611    21A     -0.629987
      22A     -0.624449    23A     -0.594155    24A     -0.583167
      25A     -0.575406    26A     -0.556003    27A     -0.554861
      28A     -0.533877    29A     -0.520152    30A     -0.500435
      31A     -0.483857    32A     -0.476907    33A     -0.468976
      34A     -0.456699    35A     -0.451393    36A     -0.441285
      37A     -0.415899

  @DF-RHF Final Energy:  -388.26032961140385

   => Energetics <=

    Nuclear Repulsion Energy =            474.4025757062740354
    One-Electron Energy =               -1466.6403946025238838
    Two-Electron Energy =                 603.9774892848447507
    DFT Exchange-Correlation Energy =       0.0000000000000000
    Empirical Dispersion Energy =           0.0000000000000000
    PCM Polarization Energy =               0.0000000000000000
    EFP Energy =                            0.0000000000000000
    Total Energy =                       -388.2603296114050409

  Mulliken Charges: (a.u.)
   Center  Symbol    Alpha    Beta     Spin     Total
       1     H     0.26860  0.26860  0.00000  0.46280
       2     O     4.37750  4.37750  0.00000 -0.75501
       3     C     3.00347  3.00347  0.00000 -0.00694
       4     C     3.16281  3.16281  0.00000 -0.32563
       5     H     0.41372  0.41372  0.00000  0.17256
       6     H     0.43202  0.43202  0.00000  0.13596
       7     C     3.15517  3.15517  0.00000 -0.31034
       8     H     0.41525  0.41525  0.00000  0.16950
       9     H     0.42157  0.42157  0.00000  0.15686
      10     C     3.17442  3.17442  0.00000 -0.34883
      11     H     0.41979  0.41979  0.00000  0.16042
      12     H     0.41779  0.41779  0.00000  0.16443
      13     C     3.15135  3.15135  0.00000 -0.30271
      14     H     0.44178  0.44178  0.00000  0.11643
      15     H     0.40439  0.40439  0.00000  0.19123
      16     C     3.15369  3.15369  0.00000 -0.30739
      17     H     0.42073  0.42073  0.00000  0.15854
      18     H     0.42147  0.42147  0.00000  0.15706
      19     C     3.15137  3.15137  0.00000 -0.30274
      20     H     0.42486  0.42486  0.00000  0.15028
      21     H     0.42148  0.42148  0.00000  0.15705
      22     C     3.23936  3.23936  0.00000 -0.47872
      23     H     0.42264  0.42264  0.00000  0.15472
      24     H     0.42254  0.42254  0.00000  0.15493
      25     H     0.42168  0.42168  0.00000  0.15665
      26     H     0.41875  0.41875  0.00000  0.16250
      27     H     0.42180  0.42180  0.00000  0.15640

   Total alpha = 37.00000, Total beta = 37.00000, Total charge = -0.00000
