                              Psi4 1.0.54 Driver

  ==> Input File <==

--------------------------------------------------------------------------
set {
	reference rhf
	basis cc-pvtz
}

set_num_threads( 4 )
memory 2 gb

molecule MOL {
0 1

O	 0.886848	 0.314383	 -2.315850
C	 0.285178	 0.620627	 -1.326443
C	 -0.878035	 1.586910	 -1.416248
N	 0.622280	 0.144970	 -0.099307
H	 -0.707375	 2.467264	 -0.809454
H	 -0.975260	 1.879045	 -2.448574
H	 -1.800875	 1.125113	 -1.087487
C	 1.664396	 -0.854993	 0.000772
C	 -0.194467	 0.305222	 1.080098
H	 2.462727	 -0.615153	 -0.690869
H	 1.261798	 -1.821849	 -0.240651
H	 2.081615	 -0.891605	 1.003877
H	 0.446279	 0.376349	 1.949593
H	 -0.784914	 1.204327	 1.036758
H	 -0.863890	 -0.539166	 1.228171

	symmetry c1
}
set optking {
	frozen_dihedral = ("
		2 4 8 10
	")
}

ee,wfn = optimize('scf', return_wfn=True)
oeprop( wfn, 'DIPOLE', 'QUADRUPOLE', 'MULLIKEN_CHARGES')
f=open( 'psi4out.xyz', 'w' )
f.write( "15  " )
f.write( str(ee) + "\n" )
f.write( MOL.save_string_xyz() )
f.close()
--------------------------------------------------------------------------

    Molecular point group: c1
  Charge       = 0
  Multiplicity = 1
  Basis Set: CC-PVTZ
  Basis Set:
  @DF-RHF Final Energy:  -286.13473808038248
    Total Energy =                       -286.1347380803824763
    Molecular point group: c1
  Basis Set: CC-PVTZ
  Basis Set:
  Basis Set: CC-PVTZ
  Basis Set:
  @DF-RHF Final Energy:  -286.13534336548531
    Total Energy =                       -286.1353433654853688
  Basis Set: CC-PVTZ
  Basis Set:
  Basis Set: CC-PVTZ
  Basis Set:
  @DF-RHF Final Energy:  -286.13531964871345
    Total Energy =                       -286.1353196487133346
  Basis Set: CC-PVTZ
  Basis Set:
  Basis Set: CC-PVTZ
  Basis Set:
  @DF-RHF Final Energy:  -286.13547713866240
    Total Energy =                       -286.1354771386622247
  Basis Set: CC-PVTZ
  Basis Set:
  Basis Set: CC-PVTZ
  Basis Set:
  @DF-RHF Final Energy:  -286.13548981015913
    Total Energy =                       -286.1354898101591289
  Basis Set: CC-PVTZ
  Basis Set:
  Basis Set: CC-PVTZ
  Basis Set:
  @DF-RHF Final Energy:  -286.13549439423531
    Total Energy =                       -286.1354943942351383
  Basis Set: CC-PVTZ
  Basis Set:
  Charge       = 0
  Multiplicity = 1
  Basis Set: CC-PVTZ
  Basis Set:

    Orbital Energies (a.u.)
    -----------------------

    Doubly Occupied:

       1A    -20.504881     2A    -15.577827     3A    -11.334251
       4A    -11.263994     5A    -11.246684     6A    -11.226609
       7A     -1.388327     8A     -1.245376     9A     -1.014882
      10A     -0.973237    11A     -0.919803    12A     -0.738617
      13A     -0.682655    14A     -0.661179    15A     -0.653801
      16A     -0.589791    17A     -0.578218    18A     -0.568965
      19A     -0.563112    20A     -0.547467    21A     -0.530347
      22A     -0.504984    23A     -0.414798    24A     -0.371351

  @DF-RHF Final Energy:  -286.13549584741855

   => Energetics <=

    Nuclear Repulsion Energy =            253.0469240303642096
    One-Electron Energy =                -890.1625288104544325
    Two-Electron Energy =                 350.9801089326717829
    DFT Exchange-Correlation Energy =       0.0000000000000000
    Empirical Dispersion Energy =           0.0000000000000000
    PCM Polarization Energy =               0.0000000000000000
    EFP Energy =                            0.0000000000000000
    Total Energy =                       -286.1354958474184969
    Molecular point group: c1
  Basis Set: CC-PVTZ
  Basis Set:

  -Total Gradient:
     Atom            X                  Y                   Z
    ------   -----------------  -----------------  -----------------
       1        0.000003810716    -0.000003767575    -0.000024296266
       2       -0.000272565413    -0.000292147167     0.000034427041
       3        0.000007868797    -0.000012495575    -0.000026365008
       4        0.000443958022     0.000559957103     0.000153127374
       5        0.000004430795    -0.000002099639    -0.000003675282
       6       -0.000013736490     0.000012201614    -0.000022594402
       7        0.000008285061     0.000003215604    -0.000007083532
       8       -0.000474073485    -0.000557198225    -0.000477412014
       9        0.000035766067     0.000022794822    -0.000017726892
      10        0.000247734219     0.000284034336     0.000334868193
      11        0.000047844436    -0.000014802919     0.000004700840
      12       -0.000035960612     0.000042103088    -0.000011396858
      13       -0.000001987739     0.000005343607     0.000026253469
      14        0.000008619239    -0.000031948857     0.000025871994
      15       -0.000009993611    -0.000015190214     0.000011301343

  **** Optimization is complete! (in 7 steps) ****
    Final optimized geometry and variables:
    Molecular point group: c1

    Geometry (in Angstrom), charge = 0, multiplicity = 1:

    O            0.521647471446    -0.073942581585    -1.621222405286
    C           -0.101617401661     0.264329457209    -0.656207898691
    C           -1.271762993160     1.214605272224    -0.800625334451
    N            0.226909065842    -0.164572955905     0.590939314705
    H           -1.146120761527     2.096084241604    -0.184948041458
    H           -1.325545511891     1.505580387670    -1.836590445750
    H           -2.201357305584     0.735641681020    -0.517991134977
    C            1.278096664569    -1.155803362502     0.703119467875
    C           -0.644758312818    -0.040445554889     1.735728649722
    H            2.068649401791    -0.933189035748     0.007519107448
    H            0.912879442419    -2.158251444595     0.498251227428
    H            1.674507594321    -1.132770592392     1.709288345650
    H           -0.047535098364     0.079440572173     2.630090207319
    H           -1.284185625774     0.821598892516     1.653441298651
    H           -1.271416271789    -0.919869514941     1.867514679812

  Mulliken Charges: (a.u.)
   Center  Symbol    Alpha    Beta     Spin     Total
       1     O     4.21910  4.21910  0.00000 -0.43820
       2     C     2.84494  2.84494  0.00000  0.31012
       3     C     3.16063  3.16063  0.00000 -0.32126
       4     N     3.56436  3.56436  0.00000 -0.12873
       5     H     0.44882  0.44882  0.00000  0.10236
       6     H     0.42873  0.42873  0.00000  0.14255
       7     H     0.44895  0.44895  0.00000  0.10211
       8     C     3.09394  3.09394  0.00000 -0.18788
       9     C     3.09592  3.09592  0.00000 -0.19184
      10     H     0.43133  0.43133  0.00000  0.13735
      11     H     0.45567  0.45567  0.00000  0.08866
      12     H     0.45778  0.45778  0.00000  0.08443
      13     H     0.44866  0.44866  0.00000  0.10268
      14     H     0.44545  0.44545  0.00000  0.10910
      15     H     0.45572  0.45572  0.00000  0.08855

   Total alpha = 24.00000, Total beta = 24.00000, Total charge = -0.00000

*** Psi4 exiting successfully. Buy a developer a beer!
