  ==> Input File <==

--------------------------------------------------------------------------
set {
	reference rhf
	basis 6-31G*
}

set_num_threads( 1 )
memory 2 gb

molecule MOL {
0 1

O	 2.862325	 1.357334	 0.000267
C	 2.843464	 0.164689	 -0.000222
C	 1.546494	 -0.624492	 -0.000609
C	 4.124123	 -0.644674	 -0.000428
C	 0.291004	 0.242674	 0.000989
H	 1.557904	 -1.283758	 -0.867573
H	 1.558622	 -1.285963	 0.864672
C	 0.580746	 1.693075	 0.391053
H	 -0.435989	 -0.185196	 0.684025
H	 -0.165770	 0.209159	 -0.983075
C	 -0.671272	 2.571791	 0.397359
H	 1.041845	 1.719084	 1.377338
H	 1.311679	 2.115506	 -0.296956
C	 -0.389653	 4.024069	 0.786708
H	 -1.402375	 2.150838	 1.085331
H	 -1.132570	 2.547241	 -0.588338
C	 -1.645170	 4.895472	 0.790959
H	 0.070388	 4.049971	 1.772362
H	 0.339912	 4.446416	 0.098800
H	 -2.381666	 4.518308	 1.494856
H	 -1.413574	 5.918470	 1.071211
H	 -2.109602	 4.918517	 -0.190833
H	 4.165367	 -1.288615	 -0.874074
H	 4.976217	 0.020734	 -0.001915
H	 4.166763	 -1.286207	 0.874930

	symmetry c1
}
set optking {
	frozen_dihedral = ("
		9 5 8 12,
		15 11 8 12,
		15 11 14 18,
		1 2 3 6
	")
}

ee = energy('scf')
oeprop('DIPOLE', 'QUADRUPOLE', 'MULLIKEN_CHARGES')
f=open( 'psi4out.xyz', 'w' )
f.write( "25  " )
f.write( str(ee) + "\n" )
f.write( MOL.save_string_xyz() )
f.close()
--------------------------------------------------------------------------

    Molecular point group: c1

    Geometry (in Angstrom), charge = 0, multiplicity = 1:

       Center              X                  Y                   Z               Mass
    ------------   -----------------  -----------------  -----------------  -----------------
           O          1.799525230975    -0.180907644279    -0.264780683878    15.994914619560
           C          1.780664230975    -1.373552644279    -0.265269683878    12.000000000000
           C          0.483694230975    -2.162733644279    -0.265656683878    12.000000000000
           C          3.061323230975    -2.182915644279    -0.265475683878    12.000000000000
           C         -0.771795769025    -1.295567644279    -0.264058683878    12.000000000000
           H          0.495104230975    -2.821999644279    -1.132620683878     1.007825032070
           H          0.495822230975    -2.824204644279     0.599624316122     1.007825032070
           C         -0.482053769025     0.154833355721     0.126005316122    12.000000000000
           H         -1.498788769025    -1.723437644279     0.418977316122     1.007825032070
           H         -1.228569769025    -1.329082644279    -1.248122683878     1.007825032070
           C         -1.734071769025     1.033549355721     0.132311316122    12.000000000000
           H         -0.020954769025     0.180842355721     1.112290316122     1.007825032070
           H          0.248879230975     0.577264355721    -0.562003683878     1.007825032070
           C         -1.452452769025     2.485827355721     0.521660316122    12.000000000000
           H         -2.465174769025     0.612596355721     0.820283316122     1.007825032070
           H         -2.195369769025     1.008999355721    -0.853385683878     1.007825032070
           C         -2.707969769025     3.357230355721     0.525911316122    12.000000000000
           H         -0.992411769025     2.511729355721     1.507314316122     1.007825032070
           H         -0.722887769025     2.908174355721    -0.166247683878     1.007825032070
           H         -3.444465769025     2.980066355721     1.229808316122     1.007825032070
           H         -2.476373769025     4.380228355721     0.806163316122     1.007825032070
           H         -3.172401769025     3.380275355721    -0.455880683878     1.007825032070
           H          3.102567230975    -2.826856644279    -1.139121683878     1.007825032070
           H          3.913417230975    -1.517507644279    -0.266962683878     1.007825032070
           H          3.103963230975    -2.824448644279     0.609882316122     1.007825032070

  Charge       = 0
  Multiplicity = 1
  Basis Set: 6-31G*
  Basis Set:

    Orbital Energies (a.u.)
    -----------------------

    Doubly Occupied:

       1A    -20.547299     2A    -11.331984     3A    -11.233463
       4A    -11.230852     5A    -11.214730     6A    -11.201399
       7A    -11.198186     8A    -11.194467     9A    -11.184050
      10A     -1.405529    11A     -1.082845    12A     -1.050496
      13A     -1.014906    14A     -0.959587    15A     -0.883119
      16A     -0.810099    17A     -0.780181    18A     -0.737587
      19A     -0.664172    20A     -0.647738    21A     -0.623906
      22A     -0.619581    23A     -0.590795    24A     -0.579954
      25A     -0.561707    26A     -0.550890    27A     -0.529629
      28A     -0.520442    29A     -0.511499    30A     -0.501484
      31A     -0.493661    32A     -0.460115    33A     -0.454861
      34A     -0.439394    35A     -0.430352    36A     -0.372314

  @DF-RHF Final Energy:  -387.09571572752117

   => Energetics <=

    Nuclear Repulsion Energy =            459.4580080369150323
    One-Electron Energy =               -1435.8807355052288131
    Two-Electron Energy =                 589.3270117407922726
    DFT Exchange-Correlation Energy =       0.0000000000000000
    Empirical Dispersion Energy =           0.0000000000000000
    PCM Polarization Energy =               0.0000000000000000
    EFP Energy =                            0.0000000000000000
    Total Energy =                       -387.0957157275214513

  Mulliken Charges: (a.u.)
   Center  Symbol    Alpha    Beta     Spin     Total
       1     O     4.26107  4.26107  0.00000 -0.52215
       2     C     2.73563  2.73563  0.00000  0.52874
       3     C     3.21517  3.21517  0.00000 -0.43034
       4     C     3.28615  3.28615  0.00000 -0.57230
       5     C     3.15294  3.15294  0.00000 -0.30588
       6     H     0.40563  0.40563  0.00000  0.18874
       7     H     0.40623  0.40623  0.00000  0.18754
       8     C     3.15756  3.15756  0.00000 -0.31512
       9     H     0.41953  0.41953  0.00000  0.16094
      10     H     0.41934  0.41934  0.00000  0.16132
      11     C     3.14666  3.14666  0.00000 -0.29332
      12     H     0.42845  0.42845  0.00000  0.14310
      13     H     0.38598  0.38598  0.00000  0.22804
      14     C     3.14943  3.14943  0.00000 -0.29887
      15     H     0.43317  0.43317  0.00000  0.13365
      16     H     0.43011  0.43011  0.00000  0.13978
      17     C     3.23838  3.23838  0.00000 -0.47676
      18     H     0.42456  0.42456  0.00000  0.15087
      19     H     0.42261  0.42261  0.00000  0.15477
      20     H     0.42369  0.42369  0.00000  0.15262
      21     H     0.42156  0.42156  0.00000  0.15687
      22     H     0.42357  0.42357  0.00000  0.15285
      23     H     0.40819  0.40819  0.00000  0.18363
      24     H     0.39625  0.39625  0.00000  0.20750
      25     H     0.40813  0.40813  0.00000  0.18375

   Total alpha = 36.00000, Total beta = 36.00000, Total charge = -0.00000
