  ==> Input File <==

--------------------------------------------------------------------------
set {
	reference rhf
	basis cc-pvtz
}

set_num_threads( 4 )
memory 2 gb

molecule MOL {
0 1

O	 -0.694481	 1.313155	 -0.204815
C	 -0.862519	 0.151932	 -0.046791
C	 -2.171428	 -0.477048	 0.339095
O	 0.085519	 -0.757083	 -0.192238
H	 -2.467997	 -1.191667	 -0.417688
H	 -2.923379	 0.287970	 0.444097
H	 -2.053854	 -1.015120	 1.270901
C	 1.392036	 -0.330828	 -0.560749
C	 1.554054	 1.167949	 -0.414754
H	 1.597378	 -0.647541	 -1.571364
H	 2.051590	 -0.856428	 0.113407
H	 2.577620	 1.446147	 -0.639188
H	 0.901330	 1.695524	 -1.096663
H	 1.330742	 1.480072	 0.598313

	symmetry c1
}
set optking {
	frozen_dihedral = ("
		10 8 4 2
	")
}

ee = optimize('scf')
oeprop('DIPOLE', 'QUADRUPOLE', 'MULLIKEN_CHARGES')
f=open( 'psi4out.xyz', 'w' )
f.write( "14  " )
f.write( str(ee) + "\n" )
f.write( MOL.save_string_xyz() )
f.close()
--------------------------------------------------------------------------

    Molecular point group: c1
  Charge       = 0
  Multiplicity = 1
  Basis Set: CC-PVTZ
  Basis Set:
  @DF-RHF Final Energy:  -305.95232398437724
    Total Energy =                       -305.9523239843774718
    Molecular point group: c1
  Basis Set: CC-PVTZ
  Basis Set:
  Basis Set: CC-PVTZ
  Basis Set:
  @DF-RHF Final Energy:  -305.97413011899096
    Total Energy =                       -305.9741301189909564
  Basis Set: CC-PVTZ
  Basis Set:
  Basis Set: CC-PVTZ
  Basis Set:
  @DF-RHF Final Energy:  -305.97827287891846
    Total Energy =                       -305.9782728789183466
  Basis Set: CC-PVTZ
  Basis Set:
  Basis Set: CC-PVTZ
  Basis Set:
  @DF-RHF Final Energy:  -305.97661650502641
    Total Energy =                       -305.9766165050265272
  Basis Set: CC-PVTZ
  Basis Set:
  @DF-RHF Final Energy:  -305.98028341837642
    Total Energy =                       -305.9802834183764162
  Basis Set: CC-PVTZ
  Basis Set:
  @DF-RHF Final Energy:  -305.98040971756507
    Total Energy =                       -305.9804097175651805
  Basis Set: CC-PVTZ
  Basis Set:
  Basis Set: CC-PVTZ
  Basis Set:
  @DF-RHF Final Energy:  -305.98042304167222
    Total Energy =                       -305.9804230416719975
  Basis Set: CC-PVTZ
  Basis Set:
  Basis Set: CC-PVTZ
  Basis Set:
  @DF-RHF Final Energy:  -305.98042526214005
    Total Energy =                       -305.9804252621403293
  Basis Set: CC-PVTZ
  Basis Set:
  Charge       = 0
  Multiplicity = 1
  Basis Set: CC-PVTZ
  Basis Set:

    Orbital Energies (a.u.)
    -----------------------

    Doubly Occupied:

       1A    -20.591449     2A    -20.528897     3A    -11.368099
       4A    -11.289751     5A    -11.228831     6A    -11.214482
       7A     -1.463904     8A     -1.364920     9A     -1.056143
      10A     -0.996861    11A     -0.894614    12A     -0.749053
      13A     -0.690880    14A     -0.683708    15A     -0.672843
      16A     -0.611944    17A     -0.588717    18A     -0.569625
      19A     -0.548270    20A     -0.535940    21A     -0.515637
      22A     -0.497583    23A     -0.446489    24A     -0.433348

  @DF-RHF Final Energy:  -305.98042600540458

   => Energetics <=

    Nuclear Repulsion Energy =            249.2182919926149793
    One-Electron Energy =                -911.3134584849196926
    Two-Electron Energy =                 356.1147404869000184
    DFT Exchange-Correlation Energy =       0.0000000000000000
    Empirical Dispersion Energy =           0.0000000000000000
    PCM Polarization Energy =               0.0000000000000000
    EFP Energy =                            0.0000000000000000
    Total Energy =                       -305.9804260054047518
    Molecular point group: c1
  Basis Set: CC-PVTZ
  Basis Set:

  -Total Gradient:
     Atom            X                  Y                   Z
    ------   -----------------  -----------------  -----------------
       1       -0.000027639617     0.000083081381    -0.000040666077
       2        0.000677179011     0.000252218299     0.003358123445
       3        0.000018756350     0.000024094666     0.000105596127
       4       -0.000814318819    -0.001164744391    -0.004913348219
       5       -0.000020547718    -0.000004520824    -0.000035885989
       6        0.000007347854    -0.000006726618    -0.000016522849
       7       -0.000013358362    -0.000033566340    -0.000020735936
       8       -0.001026453521     0.003897198684     0.000318795363
       9       -0.000014385818     0.000034773327     0.000016029105
      10        0.001173592460    -0.003064100238     0.001260954676
      11       -0.000021992998    -0.000005645797     0.000001656959
      12        0.000044939363    -0.000003927224     0.000002621455
      13        0.000001712084     0.000012431079    -0.000032070356
      14        0.000015169729    -0.000020566008    -0.000004547703

  **** Optimization is complete! (in 9 steps) ****
    Final optimized geometry and variables:
    Molecular point group: c1

    Geometry (in Angstrom), charge = 0, multiplicity = 1:

    O           -0.844402662962     1.125301839102    -0.127884957306
    C           -0.838440034296    -0.033739960766     0.107741597486
    C           -2.035753622845    -0.796314514604     0.608115212169
    O            0.192620841603    -0.843246668761    -0.043339452137
    H           -2.266405033981    -1.601737559269    -0.076966381786
    H           -2.877647238329    -0.128870312598     0.694820968033
    H           -1.809359885904    -1.238363051340     1.569856431362
    C            1.531870129038    -0.461193035709    -0.362424999081
    C            1.948469083329     0.986013813503    -0.183601174430
    H            1.714708509535    -0.801533085331    -1.373141085568
    H            2.131895505470    -1.083044801234     0.287327163582
    H            3.022782252806     1.021258235394    -0.334233613274
    H            1.474075402208     1.648301483920    -0.887731512459
    H            1.736929696134     1.341934200263     0.815379372652

  Mulliken Charges: (a.u.)
   Center  Symbol    Alpha    Beta     Spin     Total
       1     O     4.19773  4.19773  0.00000 -0.39547
       2     C     2.80527  2.80527  0.00000  0.38946
       3     C     3.13594  3.13594  0.00000 -0.27187
       4     O     4.15554  4.15554  0.00000 -0.31108
       5     H     0.44554  0.44554  0.00000  0.10892
       6     H     0.43899  0.43899  0.00000  0.12202
       7     H     0.44725  0.44725  0.00000  0.10549
       8     C     2.98085  2.98085  0.00000  0.03830
       9     C     3.14997  3.14997  0.00000 -0.29994
      10     H     0.45458  0.45458  0.00000  0.09085
      11     H     0.45180  0.45180  0.00000  0.09640
      12     H     0.45220  0.45220  0.00000  0.09561
      13     H     0.43661  0.43661  0.00000  0.12677
      14     H     0.44773  0.44773  0.00000  0.10454

   Total alpha = 24.00000, Total beta = 24.00000, Total charge = -0.00000
