  ==> Input File <==

--------------------------------------------------------------------------
set {
	reference rhf
	basis 6-31G*
}

set_num_threads( 4 )
memory 2 gb

molecule MOL {
0 1

H	 3.629583	 -0.939285	 -0.584837
O	 2.721019	 -1.170325	 -0.417842
C	 2.077727	 -0.067559	 -0.035091
C	 0.624473	 -0.343591	 0.253101
O	 2.624156	 0.983399	 0.053898
C	 -0.265902	 0.883932	 0.072916
H	 0.324016	 -1.163849	 -0.390541
H	 0.565024	 -0.726111	 1.268924
C	 -1.728698	 0.646073	 0.462102
H	 -0.209144	 1.219470	 -0.958188
H	 0.135059	 1.692851	 0.673903
C	 -2.482460	 -0.343073	 -0.431425
H	 -2.245265	 1.602650	 0.432430
H	 -1.779332	 0.308348	 1.496285
C	 -3.960546	 -0.461025	 -0.060175
H	 -2.395034	 -0.026811	 -1.468912
H	 -2.024850	 -1.327147	 -0.371646
H	 -4.472726	 -1.168004	 -0.705284
H	 -4.465146	 0.496508	 -0.151489
H	 -4.081218	 -0.800940	 0.964585

	symmetry c1
}
set optking {
	frozen_dihedral = ("
		5 3 4 7
	")
}

ee = optimize('scf')
oeprop('DIPOLE', 'QUADRUPOLE', 'MULLIKEN_CHARGES')
f=open( 'psi4out.xyz', 'w' )
f.write( "20  " )
f.write( str(ee) + "\n" )
f.write( MOL.save_string_xyz() )
f.close()
--------------------------------------------------------------------------

    Molecular point group: c1
  Charge       = 0
  Multiplicity = 1
  Basis Set: 6-31G*
  Basis Set:
  @DF-RHF Final Energy:  -383.94807148173624
    Total Energy =                       -383.9480714817361786
    Molecular point group: c1
  Basis Set: 6-31G*
  Basis Set:
  Basis Set: 6-31G*
  Basis Set:
  @DF-RHF Final Energy:  -383.94719048388924
    Total Energy =                       -383.9471904838893010
  Basis Set: 6-31G*
  Basis Set:
  Basis Set: 6-31G*
  Basis Set:
  @DF-RHF Final Energy:  -383.94823622289812
    Total Energy =                       -383.9482362228981174
  Basis Set: 6-31G*
  Basis Set:
  Basis Set: 6-31G*
  Basis Set:
  @DF-RHF Final Energy:  -383.94829998821791
    Total Energy =                       -383.9482999882177410
  Basis Set: 6-31G*
  Basis Set:
  Basis Set: 6-31G*
  Basis Set:
  @DF-RHF Final Energy:  -383.94827220278921
    Total Energy =                       -383.9482722027896102
  Basis Set: 6-31G*
  Basis Set:
  Basis Set: 6-31G*
  Basis Set:
  @DF-RHF Final Energy:  -383.94830204342816
    Total Energy =                       -383.9483020434279865
  Basis Set: 6-31G*
  Basis Set:
  Charge       = 0
  Multiplicity = 1
  Basis Set: 6-31G*
  Basis Set:

    Orbital Energies (a.u.)
    -----------------------

    Doubly Occupied:

       1A    -20.613531     2A    -20.550714     3A    -11.381321
       4A    -11.239968     5A    -11.224088     6A    -11.220991
       7A    -11.220350     8A    -11.212543     9A     -1.474986
      10A     -1.365406    11A     -1.096436    12A     -1.040919
      13A     -0.961174    14A     -0.868809    15A     -0.816592
      16A     -0.779082    17A     -0.700809    18A     -0.689840
      19A     -0.657847    20A     -0.638379    21A     -0.604726
      22A     -0.593812    23A     -0.575535    24A     -0.554724
      25A     -0.542495    26A     -0.512966    27A     -0.496606
      28A     -0.477902    29A     -0.470954    30A     -0.467857
      31A     -0.457295    32A     -0.442955

  @DF-RHF Final Energy:  -383.94830200116866

   => Energetics <=

    Nuclear Repulsion Energy =            375.8181542680704865
    One-Electron Energy =               -1267.6296927150979172
    Two-Electron Energy =                 507.8632364458583197
    DFT Exchange-Correlation Energy =       0.0000000000000000
    Empirical Dispersion Energy =           0.0000000000000000
    PCM Polarization Energy =               0.0000000000000000
    EFP Energy =                            0.0000000000000000
    Total Energy =                       -383.9483020011691679
    Molecular point group: c1
  Basis Set: 6-31G*
  Basis Set:

  -Total Gradient:
     Atom            X                  Y                   Z
    ------   -----------------  -----------------  -----------------
       1        0.000001377066     0.000000109585    -0.000000725016
       2        0.000002867955    -0.000011380054    -0.000002217899
       3       -0.000266585067     0.000198166748    -0.001290243628
       4       -0.000202796480     0.000679941422    -0.000400508807
       5        0.000209399205    -0.000226288732     0.000994812439
       6        0.000007186782     0.000005971087    -0.000010973540
       7        0.000250373471    -0.000647288957     0.000694477158
       8        0.000001793420     0.000005510884    -0.000003601976
       9       -0.000008629502     0.000003003690    -0.000002481764
      10        0.000007551803     0.000003421154     0.000001022671
      11        0.000001275533     0.000000927827     0.000000468422
      12        0.000008849311    -0.000017882522     0.000019095501
      13       -0.000013248424    -0.000005314886     0.000004184662
      14        0.000002259088    -0.000002931648    -0.000001619955
      15       -0.000003294957     0.000015112858    -0.000008991933
      16        0.000009072550    -0.000004388216     0.000007361588
      17       -0.000005779270    -0.000001160573     0.000002507184
      18       -0.000000960934     0.000005996519    -0.000004373893
      19       -0.000003326556     0.000002581560     0.000005882458
      20        0.000002614991    -0.000004107741    -0.000004073670

  **** Optimization is complete! (in 7 steps) ****
    Final optimized geometry and variables:
    Molecular point group: c1

    Geometry (in Angstrom), charge = 0, multiplicity = 1:

    H            3.676826407063    -0.921682874285    -0.465475488734
    O            2.761285089247    -1.162149458424    -0.360532507327
    C            2.082873662211    -0.066431418419    -0.024180594503
    C            0.624501025955    -0.358219995353     0.225042566038
    O            2.610754662966     0.992012963443     0.090102699785
    C           -0.263912692882     0.876200193663     0.072893795452
    H            0.325468918715    -1.172395987769    -0.422775550409
    H            0.563892625708    -0.744075723872     1.241427392243
    C           -1.722287996702     0.640983222803     0.478841048385
    H           -0.223419551838     1.222360591064    -0.956836100024
    H            0.152336216790     1.673357474249     0.677369253974
    C           -2.490812561688    -0.340646257092    -0.410235706129
    H           -2.235827608351     1.599515099818     0.461982020537
    H           -1.759357140525     0.297314188758     1.511615479199
    C           -3.964777067245    -0.454445700595    -0.021821682210
    H           -2.414671467602    -0.019631670601    -1.447194999846
    H           -2.036061056111    -1.326563578432    -0.360958540744
    H           -4.487769758548    -1.155381983526    -0.664829063412
    H           -4.466339230746     0.505755146896    -0.101306046636
    H           -4.074543103684    -0.799948701533     1.002290891585

  Mulliken Charges: (a.u.)
   Center  Symbol    Alpha    Beta     Spin     Total
       1     H     0.26807  0.26807  0.00000  0.46386
       2     O     4.35093  4.35093  0.00000 -0.70185
       3     C     2.62086  2.62086  0.00000  0.75829
       4     C     3.21434  3.21434  0.00000 -0.42868
       5     O     4.27973  4.27973  0.00000 -0.55946
       6     C     3.15741  3.15741  0.00000 -0.31481
       7     H     0.39701  0.39701  0.00000  0.20599
       8     H     0.39858  0.39858  0.00000  0.20283
       9     C     3.15542  3.15542  0.00000 -0.31084
      10     H     0.41613  0.41613  0.00000  0.16775
      11     H     0.40210  0.40210  0.00000  0.19580
      12     C     3.15471  3.15471  0.00000 -0.30942
      13     H     0.41785  0.41785  0.00000  0.16430
      14     H     0.42322  0.42322  0.00000  0.15355
      15     C     3.23929  3.23929  0.00000 -0.47858
      16     H     0.42185  0.42185  0.00000  0.15629
      17     H     0.42228  0.42228  0.00000  0.15543
      18     H     0.41830  0.41830  0.00000  0.16341
      19     H     0.42068  0.42068  0.00000  0.15864
      20     H     0.42125  0.42125  0.00000  0.15750

   Total alpha = 32.00000, Total beta = 32.00000, Total charge = -0.00000
