  ==> Input File <==

--------------------------------------------------------------------------
set {
	reference rhf
	basis cc-pvtz
}

set_num_threads( 4 )
memory 2 gb

molecule MOL {
0 1

H	 -1.002720	 0.168103	 -2.326835
C	 -0.922339	 -0.653954	 -1.619272
O	 -1.401606	 -0.295183	 -0.366624
H	 -1.518856	 -1.480301	 -1.977330
H	 0.118842	 -0.968280	 -1.574272
C	 -0.718530	 0.758693	 0.228682
C	 0.718529	 0.758687	 -0.228709
H	 -1.176498	 1.708665	 -0.046615
H	 -0.748705	 0.673525	 1.312779
O	 1.401606	 -0.295166	 0.366636
H	 0.748705	 0.673477	 -1.312803
H	 1.176496	 1.708671	 0.046552
C	 2.714315	 -0.441627	 -0.061017
H	 2.765292	 -0.641548	 -1.128869
H	 3.305661	 0.447341	 0.150952
H	 3.143725	 -1.278506	 0.470147

	symmetry c1
}
set optking {
	frozen_dihedral = ("
		2 3 6 7
	")
}

ee = optimize('scf')
oeprop('DIPOLE', 'QUADRUPOLE', 'MULLIKEN_CHARGES')
f=open( 'psi4out.xyz', 'w' )
f.write( "16  " )
f.write( str(ee) + "\n" )
f.write( MOL.save_string_xyz() )
f.close()
--------------------------------------------------------------------------

    Molecular point group: c1
  Charge       = 0
  Multiplicity = 1
  Basis Set: CC-PVTZ
  Basis Set:
  @DF-RHF Final Energy:  -307.07895633321948
    Total Energy =                       -307.0789563332191960
    Molecular point group: c1
  Basis Set: CC-PVTZ
  Basis Set:
  Basis Set: CC-PVTZ
  Basis Set:
  @DF-RHF Final Energy:  -307.08816464222969
    Total Energy =                       -307.0881646422297990
  Basis Set: CC-PVTZ
  Basis Set:
  Basis Set: CC-PVTZ
  Basis Set:
  @DF-RHF Final Energy:  -307.09118821582325
    Total Energy =                       -307.0911882158230810
  Basis Set: CC-PVTZ
  Basis Set:
  Basis Set: CC-PVTZ
  Basis Set:
  @DF-RHF Final Energy:  -307.09150357138674
    Total Energy =                       -307.0915035713867951
  Basis Set: CC-PVTZ
  Basis Set:
  Basis Set: CC-PVTZ
  Basis Set:
  @DF-RHF Final Energy:  -307.09154776976544
    Total Energy =                       -307.0915477697656115
  Basis Set: CC-PVTZ
  Basis Set:
  Basis Set: CC-PVTZ
  Basis Set:
  @DF-RHF Final Energy:  -307.09155620893682
    Total Energy =                       -307.0915562089369928
  Basis Set: CC-PVTZ
  Basis Set:
  Charge       = 0
  Multiplicity = 1
  Basis Set: CC-PVTZ
  Basis Set:

    Orbital Energies (a.u.)
    -----------------------

    Doubly Occupied:

       1A    -20.555948     2A    -20.542585     3A    -11.273756
       4A    -11.268412     5A    -11.267426     6A    -11.257427
       7A     -1.394309     8A     -1.370002     9A     -1.030440
      10A     -0.951260    11A     -0.900790    12A     -0.810787
      13A     -0.695279    14A     -0.683907    15A     -0.660188
      16A     -0.638787    17A     -0.629451    18A     -0.595156
      19A     -0.560110    20A     -0.537489    21A     -0.519157
      22A     -0.494532    23A     -0.449344    24A     -0.426865
      25A     -0.410319

  @DF-RHF Final Energy:  -307.09155720546715

   => Energetics <=

    Nuclear Repulsion Energy =            264.5069684572385427
    One-Electron Energy =                -943.3496007783378445
    Two-Electron Energy =                 371.7510751156320339
    DFT Exchange-Correlation Energy =       0.0000000000000000
    Empirical Dispersion Energy =           0.0000000000000000
    PCM Polarization Energy =               0.0000000000000000
    EFP Energy =                            0.0000000000000000
    Total Energy =                       -307.0915572054672111
    Molecular point group: c1
  Basis Set: CC-PVTZ
  Basis Set:

  -Total Gradient:
     Atom            X                  Y                   Z
    ------   -----------------  -----------------  -----------------
       1       -0.000008932836     0.000014474559     0.000008019541
       2        0.002095584422    -0.002392087713     0.001397771295
       3       -0.003345775125     0.004502046824    -0.003382849445
       4       -0.000001778898    -0.000000893945     0.000032755064
       5       -0.000033038429     0.000000470429     0.000016235764
       6        0.001970700119    -0.003971139547     0.004381917916
       7       -0.000607574871     0.001787697138    -0.002450321781
       8       -0.000022068437     0.000006414870    -0.000008364542
       9       -0.000022421352     0.000007841102     0.000010487117
      10       -0.000009161467     0.000056050504    -0.000005821554
      11       -0.000011555531     0.000010093843    -0.000004717811
      12        0.000000239789    -0.000005860884     0.000005418739
      13        0.000020452415    -0.000011606715     0.000003047757
      14       -0.000004989162     0.000002998529    -0.000002645642
      15       -0.000022561355    -0.000001565194     0.000000017875
      16        0.000002880720    -0.000004933802    -0.000000950293

  **** Optimization is complete! (in 7 steps) ****
    Final optimized geometry and variables:
    Molecular point group: c1

    Geometry (in Angstrom), charge = 0, multiplicity = 1:

    H           -1.430128013072     0.050342198253    -2.087862981960
    C           -1.433294778464    -0.722467180234    -1.321200958686
    O           -1.766317568241    -0.216446620124    -0.068986606261
    H           -2.194421873913    -1.445553078976    -1.576403911720
    H           -0.470784524917    -1.219217620954    -1.316095068113
    C           -0.985877491119     0.800071916167     0.484333439781
    C            0.480718283326     0.835857467239     0.108888071981
    H           -1.403969562640     1.767570082952     0.205422664981
    H           -1.070594135788     0.699895989129     1.557776847453
    O            1.128278031404    -0.305765943254     0.568983078851
    H            0.611112353838     0.940216161101    -0.965835202884
    H            0.907273845810     1.726549263429     0.569585213052
    C            2.492094616270    -0.338796594501     0.304828176198
    H            2.692548159112    -0.307546294241    -0.764126829308
    H            3.008498308927     0.495096219178     0.775333224851
    H            2.884511772221    -1.261905531604     0.705288872970

  Mulliken Charges: (a.u.)
   Center  Symbol    Alpha    Beta     Spin     Total
       1     H     0.47534  0.47534  0.00000  0.04932
       2     C     3.03572  3.03572  0.00000 -0.07144
       3     O     4.17770  4.17770  0.00000 -0.35540
       4     H     0.44281  0.44281  0.00000  0.11437
       5     H     0.46394  0.46394  0.00000  0.07212
       6     C     2.96077  2.96077  0.00000  0.07846
       7     C     3.00042  3.00042  0.00000 -0.00084
       8     H     0.47263  0.47263  0.00000  0.05474
       9     H     0.45567  0.45567  0.00000  0.08867
      10     O     4.17351  4.17351  0.00000 -0.34703
      11     H     0.46435  0.46435  0.00000  0.07131
      12     H     0.45680  0.45680  0.00000  0.08641
      13     C     3.03737  3.03737  0.00000 -0.07473
      14     H     0.47097  0.47097  0.00000  0.05807
      15     H     0.46752  0.46752  0.00000  0.06497
      16     H     0.44450  0.44450  0.00000  0.11100

   Total alpha = 25.00000, Total beta = 25.00000, Total charge = -0.00000
