  ==> Input File <==

--------------------------------------------------------------------------
set {
	reference rhf
	basis 6-31G*
}

set_num_threads( 4 )
memory 2 gb

molecule MOL {
0 1

H	 -0.036186	 2.588896	 -0.166736
C	 0.843917	 1.945308	 -0.205465
N	 0.538815	 0.649616	 0.000000
O	 1.937964	 2.381722	 -0.409949
C	 1.521968	 -0.411503	 0.000000
H	 -0.414814	 0.418373	 0.159379
H	 2.150599	 -0.357004	 -0.881901
H	 0.999455	 -1.354525	 0.000000
H	 2.150599	 -0.357004	 0.881901

	symmetry c1
}
set optking {
	frozen_dihedral = ("
		6 3 5 7
	")
}

ee = optimize('scf')
oeprop('DIPOLE', 'QUADRUPOLE', 'MULLIKEN_CHARGES')
f=open( 'psi4out.xyz', 'w' )
f.write( "9  " )
f.write( str(ee) + "\n" )
f.write( MOL.save_string_xyz() )
f.close()
--------------------------------------------------------------------------

    Molecular point group: c1
  Charge       = 0
  Multiplicity = 1
  Basis Set: 6-31G*
  Basis Set:
  @DF-RHF Final Energy:  -207.96081446677505
    Total Energy =                       -207.9608144667750764
    Molecular point group: c1
  Basis Set: 6-31G*
  Basis Set:
  Basis Set: 6-31G*
  Basis Set:
  @DF-RHF Final Energy:  -207.96100863107145
    Total Energy =                       -207.9610086310716497
  Basis Set: 6-31G*
  Basis Set:
  Basis Set: 6-31G*
  Basis Set:
  @DF-RHF Final Energy:  -207.96100799312060
    Total Energy =                       -207.9610079931206315
  Basis Set: 6-31G*
  Basis Set:
  Basis Set: 6-31G*
  Basis Set:
  @DF-RHF Final Energy:  -207.96101422310846
    Total Energy =                       -207.9610142231084353
  Basis Set: 6-31G*
  Basis Set:
  Basis Set: 6-31G*
  Basis Set:
  @DF-RHF Final Energy:  -207.96104113566361
    Total Energy =                       -207.9610411356636064
  Basis Set: 6-31G*
  Basis Set:
  Basis Set: 6-31G*
  Basis Set:
  @DF-RHF Final Energy:  -207.96104396847511
    Total Energy =                       -207.9610439684751384
  Basis Set: 6-31G*
  Basis Set:
  Charge       = 0
  Multiplicity = 1
  Basis Set: 6-31G*
  Basis Set:

    Orbital Energies (a.u.)
    -----------------------

    Doubly Occupied:

       1A    -20.525835     2A    -15.590319     3A    -11.342547
       4A    -11.261353     5A     -1.389173     6A     -1.235836
       7A     -0.967793     8A     -0.808142     9A     -0.746685
      10A     -0.640851    11A     -0.626735    12A     -0.592432
      13A     -0.558317    14A     -0.532132    15A     -0.423544
      16A     -0.391127

  @DF-RHF Final Energy:  -207.96104547251133

   => Energetics <=

    Nuclear Repulsion Energy =            122.7175679212886621
    One-Electron Energy =                -526.0915838180058017
    Two-Electron Energy =                 195.4129704242059233
    DFT Exchange-Correlation Energy =       0.0000000000000000
    Empirical Dispersion Energy =           0.0000000000000000
    PCM Polarization Energy =               0.0000000000000000
    EFP Energy =                            0.0000000000000000
    Total Energy =                       -207.9610454725112163
    Molecular point group: c1
  Basis Set: 6-31G*
  Basis Set:

  -Total Gradient:
     Atom            X                  Y                   Z
    ------   -----------------  -----------------  -----------------
       1        0.000001162774     0.000000277106    -0.000021188183
       2       -0.000060604818    -0.000030183785     0.000074678364
       3        0.000013298204     0.000074897312     0.000056984297
       4        0.000026647960    -0.000003260686    -0.000029578867
       5        0.000059205875    -0.000024908960     0.000005010194
       6       -0.000006564732    -0.000005764195    -0.000067860373
       7       -0.000036988205    -0.000026128693    -0.000019582074
       8        0.000006455403     0.000011499159     0.000002056668
       9       -0.000002612462     0.000003572741    -0.000000520026

  **** Optimization is complete! (in 7 steps) ****
    Final optimized geometry and variables:
    Molecular point group: c1

    Geometry (in Angstrom), charge = 0, multiplicity = 1:

    H           -1.236307811333     1.485552784345    -0.020984892045
    C           -0.371826416610     0.820328037823    -0.049181282466
    N           -0.699057415147    -0.473061535412     0.120839246107
    O            0.739654853513     1.226112410709    -0.221242501316
    C            0.303627282329    -1.517130461728     0.143141144331
    H           -1.648816593130    -0.703905743800     0.297188301285
    H            0.913816221305    -1.471478091308    -0.748663293046
    H           -0.194344354284    -2.476478202881     0.179614371060
    H            0.951777249877    -1.423394712851     1.006377770416

  Mulliken Charges: (a.u.)
   Center  Symbol    Alpha    Beta     Spin     Total
       1     H     0.42693  0.42693  0.00000  0.14615
       2     C     2.74734  2.74734  0.00000  0.50532
       3     N     3.87518  3.87518  0.00000 -0.75035
       4     O     4.28313  4.28313  0.00000 -0.56627
       5     C     3.13615  3.13615  0.00000 -0.27229
       6     H     0.30752  0.30752  0.00000  0.38497
       7     H     0.40096  0.40096  0.00000  0.19807
       8     H     0.41595  0.41595  0.00000  0.16810
       9     H     0.40684  0.40684  0.00000  0.18631

   Total alpha = 16.00000, Total beta = 16.00000, Total charge = -0.00000
