                              Psi4 1.0.54 Driver

  ==> Input File <==

--------------------------------------------------------------------------
set {
	reference rhf
	basis cc-pvtz
}

set_num_threads( 4 )
memory 2 gb

molecule MOL {
0 1

O	 0.008362	 0.483942	 -1.885090
C	 0.159077	 -0.285791	 -0.998161
C	 1.328314	 -1.226968	 -0.853484
O	 -0.695554	 -0.422406	 0.000602
C	 2.342756	 -1.108491	 -1.979469
H	 0.925436	 -2.231699	 -0.789007
H	 1.783261	 -1.027814	 0.110516
H	 1.888488	 -1.324082	 -2.937268
H	 3.156386	 -1.805997	 -1.821862
H	 2.754121	 -0.109244	 -2.029587
C	 -1.852370	 0.402254	 0.000718
C	 -3.063338	 -0.501097	 -0.000437
H	 -1.831732	 1.039442	 -0.872158
H	 -1.832493	 1.038301	 0.874430
H	 -3.071944	 -1.133732	 -0.879113
H	 -3.966302	 0.097976	 -0.000483
H	 -3.072764	 -1.134834	 0.877435

	symmetry c1
}
set optking {
	frozen_dihedral = ("
		2 4 11 13
	")
}

ee,wfn = optimize('scf', return_wfn=True)
oeprop( wfn, 'DIPOLE', 'QUADRUPOLE', 'MULLIKEN_CHARGES')
f=open( 'psi4out.xyz', 'w' )
f.write( "17  " )
f.write( str(ee) + "\n" )
f.write( MOL.save_string_xyz() )
f.close()
--------------------------------------------------------------------------

    Molecular point group: c1
  Charge       = 0
  Multiplicity = 1
  Basis Set: CC-PVTZ
  Basis Set:
  @DF-RHF Final Energy:  -345.03763045325479
    Total Energy =                       -345.0376304532547351
    Molecular point group: c1
  Basis Set: CC-PVTZ
  Basis Set:
  Basis Set: CC-PVTZ
  Basis Set:
  @DF-RHF Final Energy:  -345.03731425170992
    Total Energy =                       -345.0373142517099723
  Basis Set: CC-PVTZ
  Basis Set:
  Basis Set: CC-PVTZ
  Basis Set:
  @DF-RHF Final Energy:  -345.03841475933518
    Total Energy =                       -345.0384147593348985
  Basis Set: CC-PVTZ
  Basis Set:
  Basis Set: CC-PVTZ
  Basis Set:
  @DF-RHF Final Energy:  -345.03684434156446
    Total Energy =                       -345.0368443415644606
  Basis Set: CC-PVTZ
  Basis Set:
  Basis Set: CC-PVTZ
  Basis Set:
  @DF-RHF Final Energy:  -345.03856104703294
    Total Energy =                       -345.0385610470328288
  Basis Set: CC-PVTZ
  Basis Set:
  Charge       = 0
  Multiplicity = 1
  Basis Set: CC-PVTZ
  Basis Set:

    Orbital Energies (a.u.)
    -----------------------

    Doubly Occupied:

       1A    -20.592220     2A    -20.532355     3A    -11.365042
       4A    -11.281060     5A    -11.235308     6A    -11.219866
       7A    -11.213373     8A     -1.467810     9A     -1.365454
      10A     -1.070253    11A     -1.031228    12A     -0.914321
      13A     -0.850634    14A     -0.769558    15A     -0.703504
      16A     -0.684907    17A     -0.663601    18A     -0.627487
      19A     -0.598303    20A     -0.569946    21A     -0.555512
      22A     -0.531821    23A     -0.521126    24A     -0.515834
      25A     -0.496651    26A     -0.495431    27A     -0.451041
      28A     -0.439702

  @DF-RHF Final Energy:  -345.03857023575642

   => Energetics <=

    Nuclear Repulsion Energy =            315.9588176343311261
    One-Electron Energy =               -1096.4680773653767574
    Two-Electron Energy =                 435.4706894952893208
    DFT Exchange-Correlation Energy =       0.0000000000000000
    Empirical Dispersion Energy =           0.0000000000000000
    PCM Polarization Energy =               0.0000000000000000
    EFP Energy =                            0.0000000000000000
    Total Energy =                       -345.0385702357563105
    Molecular point group: c1
  Basis Set: CC-PVTZ
  Basis Set:

  -Total Gradient:
     Atom            X                  Y                   Z
    ------   -----------------  -----------------  -----------------
       1        0.000062367775    -0.000007171172    -0.000033811062
       2        0.000033801441     0.000092254169    -0.000053079202
       3       -0.000102897454     0.000006342269     0.000067740055
       4       -0.000015966007    -0.000126614417     0.000012136678
       5       -0.000013242796     0.000052970835    -0.000044692352
       6       -0.000014649688    -0.000013168486     0.000007901244
       7       -0.000015761004    -0.000000004736    -0.000000204679
       8        0.000012535488     0.000000670388    -0.000005398521
       9       -0.000020501343     0.000004158823     0.000012516038
      10        0.000009294146    -0.000004366190    -0.000006098533
      11        0.000048155928    -0.000040394921     0.000168971743
      12       -0.000003884613     0.000030639575    -0.000079700243
      13        0.000016437309    -0.000041954296    -0.000040355173
      14        0.000007917335     0.000063961862    -0.000002134224
      15       -0.000018917320    -0.000031464959    -0.000025027727
      16       -0.000025087057    -0.000004037717     0.000003652370
      17        0.000040397863     0.000018178976     0.000017583588

  **** Optimization is complete! (in 6 steps) ****
    Final optimized geometry and variables:
    Molecular point group: c1

    Geometry (in Angstrom), charge = 0, multiplicity = 1:

    O            0.337895508736     0.968407258164    -0.994372883755
    C            0.440686087724     0.140094869356    -0.155151591173
    C            1.642486027823    -0.751511909552     0.033870629393
    O           -0.489953483434    -0.128015158770     0.746216821139
    C            2.751041490224    -0.495499301344    -0.974383811315
    H            1.292233984005    -1.776556127918    -0.015443088228
    H            1.991661071679    -0.606631389952     1.050191337546
    H            2.403161196983    -0.657470938893    -1.985797910715
    H            3.583887418778    -1.162630874075    -0.788127513409
    H            3.108509039996     0.523446241369    -0.910181911784
    C           -1.711478341130     0.600939798284     0.752231187155
    C           -2.871791412793    -0.360377369637     0.612390031182
    H           -1.700650843641     1.325515460375    -0.043925918914
    H           -1.754934148448     1.123489790867     1.698259884189
    H           -2.835945373473    -0.870312187319    -0.342580039494
    H           -3.808066311734     0.182563697383     0.673870690786
    H           -2.854531083149    -1.103518526482     1.399732949275

  Mulliken Charges: (a.u.)
   Center  Symbol    Alpha    Beta     Spin     Total
       1     O     4.19822  4.19822  0.00000 -0.39643
       2     C     2.80054  2.80054  0.00000  0.39892
       3     C     3.09545  3.09545  0.00000 -0.19089
       4     O     4.15711  4.15711  0.00000 -0.31422
       5     C     3.14034  3.14034  0.00000 -0.28069
       6     H     0.44206  0.44206  0.00000  0.11589
       7     H     0.44169  0.44169  0.00000  0.11661
       8     H     0.44861  0.44861  0.00000  0.10278
       9     H     0.45066  0.45066  0.00000  0.09868
      10     H     0.44842  0.44842  0.00000  0.10316
      11     C     2.99144  2.99144  0.00000  0.01711
      12     C     3.13635  3.13635  0.00000 -0.27271
      13     H     0.44115  0.44115  0.00000  0.11771
      14     H     0.45167  0.45167  0.00000  0.09667
      15     H     0.45112  0.45112  0.00000  0.09775
      16     H     0.45361  0.45361  0.00000  0.09278
      17     H     0.45156  0.45156  0.00000  0.09688

   Total alpha = 28.00000, Total beta = 28.00000, Total charge = -0.00000

*** Psi4 exiting successfully. Buy a developer a beer!
