  ==> Input File <==

--------------------------------------------------------------------------
set {
	reference rhf
	basis 6-31G*
}

set_num_threads( 1 )
memory 2 gb

molecule MOL {
0 1

H	 -3.261111	 -0.295142	 1.469456
C	 -3.306842	 -0.277400	 0.373456
C	 -2.660244	 0.921717	 -0.272021
O	 -3.838538	 -1.161155	 -0.216482
C	 -1.220012	 1.144545	 0.209990
H	 -2.705793	 0.797307	 -1.347733
H	 -3.263782	 1.790044	 -0.010477
C	 -0.252658	 0.041456	 -0.226725
H	 -0.873521	 2.100229	 -0.171974
H	 -1.211708	 1.231594	 1.295398
C	 1.180775	 0.282413	 0.250794
H	 -0.266029	 -0.034465	 -1.312038
H	 -0.597733	 -0.921000	 0.146291
C	 2.148627	 -0.814315	 -0.201312
H	 1.516199	 1.249228	 -0.115937
H	 1.192670	 0.346017	 1.338083
C	 3.580890	 -0.659131	 0.322722
H	 2.166869	 -0.852443	 -1.289387
H	 1.762857	 -1.776509	 0.128956
C	 3.821833	 0.605104	 1.149327
H	 4.258398	 -0.653193	 -0.527511
H	 3.844827	 -1.533556	 0.914025
H	 3.550787	 1.495648	 0.588315
H	 3.246232	 0.605382	 2.068923
H	 4.869234	 0.693125	 1.421721

	symmetry c1
}
set optking {
	frozen_dihedral = ("
		6 3 5 8,
		6 3 2 4,
		3 5 8 12,
		12 8 11 14,
		8 11 14 18
	")
}

ee = energy('scf')
oeprop('DIPOLE', 'QUADRUPOLE', 'MULLIKEN_CHARGES')
f=open( 'psi4out.xyz', 'w' )
f.write( "25  " )
f.write( str(ee) + "\n" )
f.write( MOL.save_string_xyz() )
f.close()
--------------------------------------------------------------------------

    Molecular point group: c1

    Geometry (in Angstrom), charge = 0, multiplicity = 1:

       Center              X                  Y                   Z               Mass
    ------------   -----------------  -----------------  -----------------  -----------------
           H         -3.202190307405    -0.300102616698     1.309885142698     1.007825032070
           C         -3.247921307405    -0.282360616698     0.213885142698    12.000000000000
           C         -2.601323307405     0.916756383302    -0.431591857302    12.000000000000
           O         -3.779617307405    -1.166115616698    -0.376052857302    15.994914619560
           C         -1.161091307405     1.139584383302     0.050419142698    12.000000000000
           H         -2.646872307405     0.792346383302    -1.507303857302     1.007825032070
           H         -3.204861307405     1.785083383302    -0.170047857302     1.007825032070
           C         -0.193737307405     0.036495383302    -0.386295857302    12.000000000000
           H         -0.814600307405     2.095268383302    -0.331544857302     1.007825032070
           H         -1.152787307405     1.226633383302     1.135827142698     1.007825032070
           C          1.239695692595     0.277452383302     0.091223142698    12.000000000000
           H         -0.207108307405    -0.039425616698    -1.471608857302     1.007825032070
           H         -0.538812307405    -0.925960616698    -0.013279857302     1.007825032070
           C          2.207547692595    -0.819275616698    -0.360882857302    12.000000000000
           H          1.575119692595     1.244267383302    -0.275507857302     1.007825032070
           H          1.251590692595     0.341056383302     1.178512142698     1.007825032070
           C          3.639810692595    -0.664091616698     0.163151142698    12.000000000000
           H          2.225789692595    -0.857403616698    -1.448957857302     1.007825032070
           H          1.821777692595    -1.781469616698    -0.030614857302     1.007825032070
           C          3.880753692595     0.600143383302     0.989756142698    12.000000000000
           H          4.317318692595    -0.658153616698    -0.687081857302     1.007825032070
           H          3.903747692595    -1.538516616698     0.754454142698     1.007825032070
           H          3.609707692595     1.490687383302     0.428744142698     1.007825032070
           H          3.305152692595     0.600421383302     1.909352142698     1.007825032070
           H          4.928154692595     0.688164383302     1.262150142698     1.007825032070

  Charge       = 0
  Multiplicity = 1
  Basis Set: 6-31G*
  Basis Set:

    Orbital Energies (a.u.)
    -----------------------

    Doubly Occupied:

       1A    -20.561794     2A    -11.325946     3A    -11.234968
       4A    -11.234328     5A    -11.223002     6A    -11.219066
       7A    -11.216408     8A    -11.215422     9A    -11.210174
      10A     -1.401777    11A     -1.104248    12A     -1.070601
      13A     -1.010858    14A     -0.940438    15A     -0.880891
      16A     -0.824042    17A     -0.787638    18A     -0.770604
      19A     -0.665620    20A     -0.663823    21A     -0.639442
      22A     -0.623475    23A     -0.604600    24A     -0.587955
      25A     -0.572367    26A     -0.554499    27A     -0.533774
      28A     -0.521122    29A     -0.518303    30A     -0.495685
      31A     -0.488987    32A     -0.482236    33A     -0.461409
      34A     -0.446627    35A     -0.442151    36A     -0.409318

  @DF-RHF Final Energy:  -387.11155669020610

   => Energetics <=

    Nuclear Repulsion Energy =            442.4059671552368513
    One-Electron Energy =               -1401.1478865193964793
    Two-Electron Energy =                 571.6303626739529591
    DFT Exchange-Correlation Energy =       0.0000000000000000
    Empirical Dispersion Energy =           0.0000000000000000
    PCM Polarization Energy =               0.0000000000000000
    EFP Energy =                            0.0000000000000000
    Total Energy =                       -387.1115566902067258

  Mulliken Charges: (a.u.)
   Center  Symbol    Alpha    Beta     Spin     Total
       1     H     0.43268  0.43268  0.00000  0.13464
       2     C     2.83078  2.83078  0.00000  0.33843
       3     C     3.20808  3.20808  0.00000 -0.41615
       4     O     4.23781  4.23781  0.00000 -0.47562
       5     C     3.16647  3.16647  0.00000 -0.33293
       6     H     0.39973  0.39973  0.00000  0.20054
       7     H     0.40679  0.40679  0.00000  0.18643
       8     C     3.15337  3.15337  0.00000 -0.30674
       9     H     0.41307  0.41307  0.00000  0.17387
      10     H     0.41983  0.41983  0.00000  0.16033
      11     C     3.15716  3.15716  0.00000 -0.31431
      12     H     0.41845  0.41845  0.00000  0.16310
      13     H     0.41873  0.41873  0.00000  0.16253
      14     C     3.15594  3.15594  0.00000 -0.31189
      15     H     0.42120  0.42120  0.00000  0.15761
      16     H     0.42169  0.42169  0.00000  0.15663
      17     C     3.15516  3.15516  0.00000 -0.31031
      18     H     0.41999  0.41999  0.00000  0.16003
      19     H     0.41978  0.41978  0.00000  0.16043
      20     C     3.24457  3.24457  0.00000 -0.48914
      21     H     0.41991  0.41991  0.00000  0.16019
      22     H     0.41953  0.41953  0.00000  0.16094
      23     H     0.42095  0.42095  0.00000  0.15809
      24     H     0.42060  0.42060  0.00000  0.15880
      25     H     0.41775  0.41775  0.00000  0.16451

   Total alpha = 36.00000, Total beta = 36.00000, Total charge = -0.00000
