  ==> Input File <==

--------------------------------------------------------------------------
set {
	reference rhf
	basis cc-pvtz
}

set_num_threads( 4 )
memory 2 gb

molecule MOL {
0 1

H	 2.471598	 0.402207	 -1.147865
O	 1.618483	 -0.001662	 -1.200980
C	 1.050374	 0.054877	 0.000135
C	 -0.318151	 -0.570512	 0.000144
O	 1.591021	 0.546692	 0.929536
C	 -1.454884	 0.441630	 -0.000560
H	 -0.371613	 -1.223646	 -0.864985
H	 -0.371920	 -1.222758	 0.865929
C	 -2.822577	 -0.232186	 0.000063
H	 -1.359760	 1.084704	 -0.867077
H	 -1.359641	 1.085996	 0.864983
H	 -2.954352	 -0.858985	 -0.875745
H	 -3.615886	 0.505352	 0.000019
H	 -2.953878	 -0.858359	 0.876394

	symmetry c1
}
set optking {
	frozen_dihedral = ("
		2 3 4 7
	")
}

ee = optimize('scf')
oeprop('DIPOLE', 'QUADRUPOLE', 'MULLIKEN_CHARGES')
f=open( 'psi4out.xyz', 'w' )
f.write( "14  " )
f.write( str(ee) + "\n" )
f.write( MOL.save_string_xyz() )
f.close()
--------------------------------------------------------------------------

    Molecular point group: c1
  Charge       = 0
  Multiplicity = 1
  Basis Set: CC-PVTZ
  Basis Set:
  @DF-RHF Final Energy:  -305.99862622226078
    Total Energy =                       -305.9986262222606115
    Molecular point group: c1
  Basis Set: CC-PVTZ
  Basis Set:
  Basis Set: CC-PVTZ
  Basis Set:
  @DF-RHF Final Energy:  -305.99919653633009
    Total Energy =                       -305.9991965363300324
  Basis Set: CC-PVTZ
  Basis Set:
  Basis Set: CC-PVTZ
  Basis Set:
  @DF-RHF Final Energy:  -305.99941916246780
    Total Energy =                       -305.9994191624675182
  Basis Set: CC-PVTZ
  Basis Set:
  Basis Set: CC-PVTZ
  Basis Set:
  @DF-RHF Final Energy:  -305.99946204211983
    Total Energy =                       -305.9994620421199443
  Basis Set: CC-PVTZ
  Basis Set:
  Charge       = 0
  Multiplicity = 1
  Basis Set: CC-PVTZ
  Basis Set:

    Orbital Energies (a.u.)
    -----------------------

    Doubly Occupied:

       1A    -20.606106     2A    -20.538122     3A    -11.372977
       4A    -11.238017     5A    -11.233340     6A    -11.218891
       7A     -1.477902     8A     -1.368185     9A     -1.087080
      10A     -0.980654    11A     -0.855169    12A     -0.807592
      13A     -0.706343    14A     -0.689474    15A     -0.647458
      16A     -0.635898    17A     -0.596676    18A     -0.570749
      19A     -0.553385    20A     -0.517061    21A     -0.499118
      22A     -0.489369    23A     -0.474583    24A     -0.442641

  @DF-RHF Final Energy:  -305.99946338164858

   => Energetics <=

    Nuclear Repulsion Energy =            240.7370274315715619
    One-Electron Energy =                -894.2593962111728843
    Two-Electron Energy =                 347.5229053979527407
    DFT Exchange-Correlation Energy =       0.0000000000000000
    Empirical Dispersion Energy =           0.0000000000000000
    PCM Polarization Energy =               0.0000000000000000
    EFP Energy =                            0.0000000000000000
    Total Energy =                       -305.9994633816485248
    Molecular point group: c1
  Basis Set: CC-PVTZ
  Basis Set:

  -Total Gradient:
     Atom            X                  Y                   Z
    ------   -----------------  -----------------  -----------------
       1        0.000022326404     0.000015373934    -0.000011575480
       2        0.000132218471    -0.000303018716     0.000149435541
       3       -0.000275705853     0.000484128050    -0.000124533443
       4        0.000148698136    -0.000394341098     0.000260757655
       5        0.000042866663    -0.000026893211    -0.000057189928
       6        0.000039720887    -0.000033846417     0.000035798260
       7       -0.000129542495     0.000253208593    -0.000254463680
       8        0.000024683881     0.000017380199    -0.000005348770
       9       -0.000015822881    -0.000003298616    -0.000005112665
      10        0.000005993459    -0.000033323149     0.000020833284
      11       -0.000012490645     0.000024838423    -0.000004637544
      12        0.000002308125    -0.000001901203    -0.000006934761
      13        0.000015955210     0.000004985536    -0.000001097346
      14       -0.000001209367    -0.000003292328     0.000004068876

  **** Optimization is complete! (in 5 steps) ****
    Final optimized geometry and variables:
    Molecular point group: c1

    Geometry (in Angstrom), charge = 0, multiplicity = 1:

    H            2.475493103803     0.450832467534    -1.062129958952
    O            1.648392387565    -0.001958007655    -1.135454281721
    C            1.063894631589    -0.002673893428     0.057801508719
    C           -0.287970308933    -0.663928511130     0.050598883277
    O            1.568425977484     0.492968119134     1.006340166946
    C           -1.408470690516     0.382646956641     0.046069433147
    H           -0.372677921769    -1.307776965696    -0.814043809091
    H           -0.354713822630    -1.268141233767     0.945834048209
    C           -2.791312848728    -0.257386288782     0.070539295372
    H           -1.311873894050     1.006359433340    -0.836773077862
    H           -1.285797522330     1.031261897021     0.905086676003
    H           -2.945581914205    -0.893426132617    -0.794329350808
    H           -3.566289464305     0.499523774699     0.067833741281
    H           -2.924495276407    -0.865656708747     0.958511378276

  Mulliken Charges: (a.u.)
   Center  Symbol    Alpha    Beta     Spin     Total
       1     H     0.38014  0.38014  0.00000  0.23972
       2     O     4.16138  4.16138  0.00000 -0.32276
       3     C     2.80519  2.80519  0.00000  0.38962
       4     C     3.08765  3.08765  0.00000 -0.17530
       5     O     4.19950  4.19950  0.00000 -0.39901
       6     C     3.09260  3.09260  0.00000 -0.18521
       7     H     0.44119  0.44119  0.00000  0.11763
       8     H     0.44004  0.44004  0.00000  0.11992
       9     C     3.14997  3.14997  0.00000 -0.29994
      10     H     0.44860  0.44860  0.00000  0.10280
      11     H     0.44121  0.44121  0.00000  0.11758
      12     H     0.45402  0.45402  0.00000  0.09196
      13     H     0.44562  0.44562  0.00000  0.10875
      14     H     0.45288  0.45288  0.00000  0.09425

   Total alpha = 24.00000, Total beta = 24.00000, Total charge = -0.00000
