  ==> Input File <==

--------------------------------------------------------------------------
set {
	reference rhf
	basis cc-pvtz
}

set_num_threads( 4 )
memory 2 gb

molecule MOL {
0 1

H	 -3.144994	 -1.202467	 -0.018751
O	 -2.321472	 -0.864941	 -0.318626
C	 -2.021813	 0.336996	 0.342658
C	 -0.669613	 0.837286	 -0.127252
H	 -2.780861	 1.084746	 0.127159
H	 -2.006390	 0.184138	 1.420053
C	 0.490865	 -0.082543	 0.241244
H	 -0.708709	 0.967192	 -1.204587
H	 -0.507562	 1.822272	 0.303070
C	 1.839800	 0.429565	 -0.255472
H	 0.305636	 -1.070211	 -0.165276
H	 0.527397	 -0.195943	 1.322876
C	 1.809289	 1.900095	 -0.658456
H	 2.585373	 0.285535	 0.521754
H	 2.164580	 -0.168826	 -1.102900
H	 1.521930	 2.528094	 0.178179
H	 2.781096	 2.233727	 -1.004266
H	 1.096843	 2.072026	 -1.458647

	symmetry c1
}
set optking {
	frozen_dihedral = ("
		14 10 7 11
	")
}

ee = optimize('scf')
oeprop('DIPOLE', 'QUADRUPOLE', 'MULLIKEN_CHARGES')
f=open( 'psi4out.xyz', 'w' )
f.write( "18  " )
f.write( str(ee) + "\n" )
f.write( MOL.save_string_xyz() )
f.close()
--------------------------------------------------------------------------

    Molecular point group: c1
  Charge       = 0
  Multiplicity = 1
  Basis Set: CC-PVTZ
  Basis Set:
  @DF-RHF Final Energy:  -271.27446859442267
    Total Energy =                       -271.2744685944225580
    Molecular point group: c1
  Basis Set: CC-PVTZ
  Basis Set:
  Basis Set: CC-PVTZ
  Basis Set:
  @DF-RHF Final Energy:  -271.27507464257195
    Total Energy =                       -271.2750746425720649
  Basis Set: CC-PVTZ
  Basis Set:
  Basis Set: CC-PVTZ
  Basis Set:
  @DF-RHF Final Energy:  -271.27785223273679
    Total Energy =                       -271.2778522327370183
  Basis Set: CC-PVTZ
  Basis Set:
  Basis Set: CC-PVTZ
  Basis Set:
  @DF-RHF Final Energy:  -271.27816714064517
    Total Energy =                       -271.2781671406451665
  Basis Set: CC-PVTZ
  Basis Set:
  Basis Set: CC-PVTZ
  Basis Set:
  @DF-RHF Final Energy:  -271.27819872822829
    Total Energy =                       -271.2781987282282330
  Basis Set: CC-PVTZ
  Basis Set:
  Basis Set: CC-PVTZ
  Basis Set:
  @DF-RHF Final Energy:  -271.27820337174501
    Total Energy =                       -271.2782033717448940
  Basis Set: CC-PVTZ
  Basis Set:
  Charge       = 0
  Multiplicity = 1
  Basis Set: CC-PVTZ
  Basis Set:

    Orbital Energies (a.u.)
    -----------------------

    Doubly Occupied:

       1A    -20.546142     2A    -11.265573     3A    -11.209747
       4A    -11.209572     5A    -11.205214     6A    -11.203048
       7A     -1.364013     8A     -1.073132     9A     -1.006135
      10A     -0.915838    11A     -0.834026    12A     -0.765524
      13A     -0.708657    14A     -0.638040    15A     -0.626510
      16A     -0.601270    17A     -0.564155    18A     -0.551142
      19A     -0.527966    20A     -0.509214    21A     -0.492799
      22A     -0.463084    23A     -0.451177    24A     -0.447185
      25A     -0.429126

  @DF-RHF Final Energy:  -271.27820349026024

   => Energetics <=

    Nuclear Repulsion Energy =            252.2573108555859562
    One-Electron Energy =                -867.8544519507286168
    Two-Electron Energy =                 344.3189376048821941
    DFT Exchange-Correlation Energy =       0.0000000000000000
    Empirical Dispersion Energy =           0.0000000000000000
    PCM Polarization Energy =               0.0000000000000000
    EFP Energy =                            0.0000000000000000
    Total Energy =                       -271.2782034902604664
    Molecular point group: c1
  Basis Set: CC-PVTZ
  Basis Set:

  -Total Gradient:
     Atom            X                  Y                   Z
    ------   -----------------  -----------------  -----------------
       1        0.000000938793     0.000001965765     0.000000890782
       2        0.000021607618    -0.000012372304     0.000009449808
       3       -0.000020654448     0.000014500084    -0.000031908975
       4       -0.000000513858     0.000004565420     0.000004246647
       5        0.000003826479     0.000012576753     0.000007960411
       6        0.000008706139    -0.000005366899    -0.000004567849
       7        0.002763943156    -0.001728871978     0.005720879731
       8       -0.000009523863    -0.000004936655     0.000007950628
       9       -0.000004760347     0.000001486840    -0.000002670482
      10        0.000628647147    -0.005558254665    -0.003383721308
      11       -0.002433975428     0.002292686224    -0.004331093895
      12        0.000007413622     0.000003420666    -0.000001562330
      13       -0.000002032745     0.000005547358     0.000025507662
      14       -0.000957994566     0.004975863285     0.001991925279
      15        0.000000867166    -0.000004995649     0.000001961986
      16        0.000021298830     0.000004244054    -0.000006689053
      17       -0.000004929443    -0.000003931591    -0.000009974346
      18       -0.000022864260     0.000001873294     0.000001415307

  **** Optimization is complete! (in 7 steps) ****
    Final optimized geometry and variables:
    Molecular point group: c1

    Geometry (in Angstrom), charge = 0, multiplicity = 1:

    H           -2.913186260323    -1.711211709262     0.149845211318
    O           -2.113003914711    -1.333913387814    -0.165115008410
    C           -1.859146255548    -0.119333058640     0.492544701166
    C           -0.540566625395     0.448109249846     0.001181037347
    H           -2.656603394605     0.591184463471     0.290194175908
    H           -1.819037862211    -0.271763843761     1.569420519303
    C            0.658540637864    -0.427778046734     0.372402568267
    H           -0.605054619131     0.561139887052    -1.076119968696
    H           -0.434385896418     1.443869990739     0.418447894372
    C            2.035772221194     0.044662917856    -0.152186569491
    H            0.451895929767    -1.409182015293    -0.033440023671
    H            0.692283472605    -0.523440349962     1.453104984329
    C            2.152471403818     1.521570133994    -0.535338341282
    H            2.771778000633    -0.125827518135     0.626312484436
    H            2.326680618325    -0.557820337708    -1.004833350022
    H            1.925008925530     2.171678094833     0.302654817415
    H            3.166166748455     1.741991776643    -0.850621655510
    H            1.492500111540     1.789484529110    -1.351070123287

  Mulliken Charges: (a.u.)
   Center  Symbol    Alpha    Beta     Spin     Total
       1     H     0.39568  0.39568  0.00000  0.20865
       2     O     4.19900  4.19900  0.00000 -0.39801
       3     C     2.97425  2.97425  0.00000  0.05150
       4     C     3.09398  3.09398  0.00000 -0.18796
       5     H     0.46509  0.46509  0.00000  0.06981
       6     H     0.47365  0.47365  0.00000  0.05270
       7     C     3.09716  3.09716  0.00000 -0.19433
       8     H     0.45049  0.45049  0.00000  0.09902
       9     H     0.45173  0.45173  0.00000  0.09654
      10     C     3.08762  3.08762  0.00000 -0.17524
      11     H     0.44183  0.44183  0.00000  0.11635
      12     H     0.45601  0.45601  0.00000  0.08797
      13     C     3.15800  3.15800  0.00000 -0.31601
      14     H     0.45256  0.45256  0.00000  0.09488
      15     H     0.45050  0.45050  0.00000  0.09900
      16     H     0.45477  0.45477  0.00000  0.09045
      17     H     0.44535  0.44535  0.00000  0.10929
      18     H     0.45231  0.45231  0.00000  0.09538

   Total alpha = 25.00000, Total beta = 25.00000, Total charge = -0.00000
