                              Psi4 1.0.54 Driver

  ==> Input File <==

--------------------------------------------------------------------------
set {
	reference rhf
	basis cc-pvtz
}

set_num_threads( 4 )
memory 2 gb

molecule MOL {
0 1

H	 -1.994659	 0.067648	 0.726380
C	 -1.134928	 -0.484965	 0.413308
C	 -1.127789	 -1.865065	 0.410679
C	 0.000000	 0.179985	 0.000046
H	 -2.000437	 -2.400815	 0.728438
C	 -0.000001	 -2.552036	 -0.000013
N	 0.000000	 1.644631	 0.000076
C	 1.134928	 -0.484948	 -0.413243
H	 -0.000000	 -3.625035	 -0.000032
C	 1.127788	 -1.865048	 -0.410673
O	 1.050559	 2.194174	 -0.000073
O	 -1.050559	 2.194174	 -0.000074
H	 1.994657	 0.067677	 -0.726299
H	 2.000438	 -2.400786	 -0.728450

	symmetry c1
}
set optking {
	frozen_dihedral = ("
		2 4 7 11
	")
}

ee,wfn = optimize('scf', return_wfn=True)
oeprop( wfn, 'DIPOLE', 'QUADRUPOLE', 'MULLIKEN_CHARGES')
f=open( 'psi4out.xyz', 'w' )
f.write( "14  " )
f.write( str(ee) + "\n" )
f.write( MOL.save_string_xyz() )
f.close()
--------------------------------------------------------------------------

    Molecular point group: c1
  Charge       = 0
  Multiplicity = 1
  Basis Set: CC-PVTZ
  Basis Set:
  @DF-RHF Final Energy:  -434.32935940541699
    Total Energy =                       -434.3293594054171081
    Molecular point group: c1
  Basis Set: CC-PVTZ
  Basis Set:
  Basis Set: CC-PVTZ
  Basis Set:
  @DF-RHF Final Energy:  -434.32314416917393
    Total Energy =                       -434.3231441691740429
  Basis Set: CC-PVTZ
  Basis Set:
  Basis Set: CC-PVTZ
  Basis Set:
  @DF-RHF Final Energy:  -434.32868107224181
    Total Energy =                       -434.3286810722413520
  Basis Set: CC-PVTZ
  Basis Set:
  Basis Set: CC-PVTZ
  Basis Set:
  @DF-RHF Final Energy:  -434.32942323099741
    Total Energy =                       -434.3294232309972358
  Basis Set: CC-PVTZ
  Basis Set:
  Basis Set: CC-PVTZ
  Basis Set:
  @DF-RHF Final Energy:  -434.32942952004930
    Total Energy =                       -434.3294295200494162
  Basis Set: CC-PVTZ
  Basis Set:
  Basis Set: CC-PVTZ
  Basis Set:
  @DF-RHF Final Energy:  -434.32943629051857
    Total Energy =                       -434.3294362905187427
  Basis Set: CC-PVTZ
  Basis Set:
  Charge       = 0
  Multiplicity = 1
  Basis Set: CC-PVTZ
  Basis Set:

    Orbital Energies (a.u.)
    -----------------------

    Doubly Occupied:

       1A    -20.592354     2A    -20.592261     3A    -15.847630
       4A    -11.302801     5A    -11.267445     6A    -11.267367
       7A    -11.264368     8A    -11.258517     9A    -11.258367
      10A     -1.641354    11A     -1.423937    12A     -1.204893
      13A     -1.095994    14A     -1.055361    15A     -0.959503
      16A     -0.868101    17A     -0.829138    18A     -0.788893
      19A     -0.740629    20A     -0.735394    21A     -0.712438
      22A     -0.658970    23A     -0.651876    24A     -0.626431
      25A     -0.556152    26A     -0.542158    27A     -0.531657
      28A     -0.493310    29A     -0.491323    30A     -0.457290
      31A     -0.377009    32A     -0.369547

  @DF-RHF Final Energy:  -434.32943652292704

   => Energetics <=

    Nuclear Repulsion Energy =            418.2215767920919234
    One-Electron Energy =               -1420.1770867071611519
    Two-Electron Energy =                 567.6260733921421888
    DFT Exchange-Correlation Energy =       0.0000000000000000
    Empirical Dispersion Energy =           0.0000000000000000
    PCM Polarization Energy =               0.0000000000000000
    EFP Energy =                            0.0000000000000000
    Total Energy =                       -434.3294365229270397
    Molecular point group: c1
  Basis Set: CC-PVTZ
  Basis Set:

  -Total Gradient:
     Atom            X                  Y                   Z
    ------   -----------------  -----------------  -----------------
       1        0.000005489997    -0.000004257797    -0.000001277930
       2        0.000618441413    -0.000062365729     0.001666039131
       3       -0.000010180928     0.000009799203    -0.000010278344
       4       -0.000840312893     0.000072950238    -0.001608584902
       5       -0.000000412537     0.000001996039    -0.000002592203
       6        0.000005366962     0.000001758695    -0.000008927283
       7        0.000193757944     0.000191858535    -0.002076594635
       8       -0.000014989375     0.000017823966    -0.000005566929
       9        0.000001038082     0.000000363150     0.000002044051
      10        0.000005499648    -0.000001757996     0.000011026098
      11        0.000109957325    -0.000199274625     0.002027547932
      12       -0.000079353262    -0.000038915366     0.000010732877
      13        0.000004939338     0.000006840421    -0.000003536525
      14        0.000000758284     0.000003181273    -0.000000031337

  **** Optimization is complete! (in 7 steps) ****
    Final optimized geometry and variables:
    Molecular point group: c1

    Geometry (in Angstrom), charge = 0, multiplicity = 1:

    H           -1.991979982413     0.070363645475     0.731232099707
    C           -1.137398750756    -0.482967234015     0.404313060584
    C           -1.136204609817    -1.863094472886     0.384521140019
    C           -0.003279124421     0.180382332926    -0.010988568899
    H           -2.005843109258    -2.399418769446     0.709460789644
    C           -0.018250065761    -2.549247380372    -0.053251051757
    N            0.012330112190     1.642738930249     0.033484077420
    C            1.127279405620    -0.482473401643    -0.437002235401
    H           -0.024615182831    -3.622018013968    -0.071197157432
    C            1.108939692961    -1.862150766917    -0.465642681576
    O            1.069763854946     2.179208732357     0.029307141290
    O           -1.032749335004     2.200539724314     0.085818144492
    H            1.991360497472     0.071107864820    -0.737549610928
    H            1.973783969343    -2.397747712821    -0.804292590703

  Mulliken Charges: (a.u.)
   Center  Symbol    Alpha    Beta     Spin     Total
       1     H     0.40082  0.40082  0.00000  0.19836
       2     C     3.07957  3.07957  0.00000 -0.15915
       3     C     3.07198  3.07198  0.00000 -0.14396
       4     C     2.97018  2.97018  0.00000  0.05963
       5     H     0.41695  0.41695  0.00000  0.16610
       6     C     3.06528  3.06528  0.00000 -0.13057
       7     N     3.25845  3.25845  0.00000  0.48310
       8     C     3.07876  3.07876  0.00000 -0.15751
       9     H     0.41714  0.41714  0.00000  0.16572
      10     C     3.07187  3.07187  0.00000 -0.14374
      11     O     4.17518  4.17518  0.00000 -0.35036
      12     O     4.17562  4.17562  0.00000 -0.35124
      13     H     0.40122  0.40122  0.00000  0.19757
      14     H     0.41698  0.41698  0.00000  0.16604

   Total alpha = 32.00000, Total beta = 32.00000, Total charge = -0.00000

*** Psi4 exiting successfully. Buy a developer a beer!
