                              Psi4 1.0.54 Driver

  ==> Input File <==

--------------------------------------------------------------------------
set {
	reference rhf
	basis cc-pvtz
}

set_num_threads( 4 )
memory 2 gb

molecule MOL {
0 1

O	 -1.794009	 1.638133	 -1.339267
C	 -1.881408	 0.688130	 -0.631250
C	 -0.881910	 -0.448129	 -0.720509
C	 -2.975074	 0.569626	 0.403457
C	 0.376695	 -0.140025	 0.100361
H	 -0.615245	 -0.568843	 -1.762828
H	 -1.331255	 -1.372657	 -0.373807
C	 1.630207	 -0.772146	 -0.501001
H	 0.486632	 0.935267	 0.162725
H	 0.248225	 -0.501310	 1.117842
C	 2.907848	 -0.545876	 0.309149
H	 1.772784	 -0.391628	 -1.509394
H	 1.468529	 -1.842059	 -0.599744
C	 3.373802	 0.906639	 0.372125
H	 3.699140	 -1.146831	 -0.127906
H	 2.764321	 -0.923458	 1.318191
H	 3.519798	 1.311927	 -0.623875
H	 4.316899	 0.983758	 0.900700
H	 2.661122	 1.540651	 0.885346
H	 -3.649752	 -0.231642	 0.119245
H	 -3.524539	 1.495904	 0.471768
H	 -2.560250	 0.310713	 1.371173

	symmetry c1
}
set optking {
	frozen_dihedral = ("
		6 3 5 8
	")
}

ee,wfn = optimize('scf', return_wfn=True)
oeprop( wfn, 'DIPOLE', 'QUADRUPOLE', 'MULLIKEN_CHARGES')
f=open( 'psi4out.xyz', 'w' )
f.write( "22  " )
f.write( str(ee) + "\n" )
f.write( MOL.save_string_xyz() )
f.close()
--------------------------------------------------------------------------

    Molecular point group: c1
  Charge       = 0
  Multiplicity = 1
  Basis Set: CC-PVTZ
  Basis Set:
  @DF-RHF Final Energy:  -348.22051983678034
    Total Energy =                       -348.2205198367805679
    Molecular point group: c1
  Basis Set: CC-PVTZ
  Basis Set:
  Basis Set: CC-PVTZ
  Basis Set:
  @DF-RHF Final Energy:  -348.22073164477229
    Total Energy =                       -348.2207316447723997
  Basis Set: CC-PVTZ
  Basis Set:
  Basis Set: CC-PVTZ
  Basis Set:
  @DF-RHF Final Energy:  -348.21977229099281
    Total Energy =                       -348.2197722909925233
  Basis Set: CC-PVTZ
  Basis Set:
  Basis Set: CC-PVTZ
  Basis Set:
  @DF-RHF Final Energy:  -348.22092805367373
    Total Energy =                       -348.2209280536736742
  Basis Set: CC-PVTZ
  Basis Set:
  @DF-RHF Final Energy:  -348.22100229929106
    Total Energy =                       -348.2210022992907170
  @DF-RHF Final Energy:  -348.22104438782094
    Total Energy =                       -348.2210443878207116
  @DF-RHF Final Energy:  -348.22108256405414
    Total Energy =                       -348.2210825640544272
  @DF-RHF Final Energy:  -348.22109449532502
    Total Energy =                       -348.2210944953245644
  @DF-RHF Final Energy:  -348.22109816785388
    Total Energy =                       -348.2210981678541657
  @DF-RHF Final Energy:  -348.22109973777088
    Total Energy =                       -348.2210997377712260
  @DF-RHF Final Energy:  -348.22109929887949
    Total Energy =                       -348.2210992988796079
  @DF-RHF Final Energy:  -348.22086170496516
    Total Energy =                       -348.2208617049652730
  @DF-RHF Final Energy:  -348.22087312990425
    Total Energy =                       -348.2208731299037368
  Basis Set: CC-PVTZ
  Basis Set:
  @DF-RHF Final Energy:  -348.22097362038909
    Total Energy =                       -348.2209736203888042
  Basis Set: CC-PVTZ
  Basis Set:
  Basis Set: CC-PVTZ
  Basis Set:
  @DF-RHF Final Energy:  -348.22109554294587
    Total Energy =                       -348.2210955429457044
  Basis Set: CC-PVTZ
  Basis Set:
  Basis Set: CC-PVTZ
  Basis Set:
  @DF-RHF Final Energy:  -348.22109994143983
    Total Energy =                       -348.2210999414402295
  Basis Set: CC-PVTZ
  Basis Set:
  Charge       = 0
  Multiplicity = 1
  Basis Set: CC-PVTZ
  Basis Set:

    Orbital Energies (a.u.)
    -----------------------

    Doubly Occupied:

       1A    -20.536976     2A    -11.318966     3A    -11.230224
       4A    -11.227499     5A    -11.226183     6A    -11.221446
       7A    -11.219782     8A    -11.210839     9A     -1.396605
      10A     -1.098193    11A     -1.046399    12A     -0.998448
      13A     -0.939643    14A     -0.861740    15A     -0.788508
      16A     -0.735546    17A     -0.662988    18A     -0.643003
      19A     -0.632963    20A     -0.618044    21A     -0.603612
      22A     -0.589233    23A     -0.557167    24A     -0.538460
      25A     -0.537433    26A     -0.525657    27A     -0.498406
      28A     -0.491511    29A     -0.470857    30A     -0.466867
      31A     -0.463377    32A     -0.398917

  @DF-RHF Final Energy:  -348.22110038335717

   => Energetics <=

    Nuclear Repulsion Energy =            374.1695478448398831
    One-Electron Energy =               -1213.2703168450718749
    Two-Electron Energy =                 490.8796686168745964
    DFT Exchange-Correlation Energy =       0.0000000000000000
    Empirical Dispersion Energy =           0.0000000000000000
    PCM Polarization Energy =               0.0000000000000000
    EFP Energy =                            0.0000000000000000
    Total Energy =                       -348.2211003833574523
    Molecular point group: c1
  Basis Set: CC-PVTZ
  Basis Set:

  -Total Gradient:
     Atom            X                  Y                   Z
    ------   -----------------  -----------------  -----------------
       1       -0.000012029824    -0.000018234468     0.000018825152
       2        0.000021046561     0.000029969345    -0.000036892254
       3       -0.000473678478     0.005285185570    -0.001220866982
       4        0.000041368124     0.000017550220     0.000023208898
       5       -0.000519701690    -0.003741968416     0.001951861132
       6        0.000530214341    -0.003596245223     0.000585389367
       7       -0.000005474971    -0.000019529983     0.000018194638
       8        0.000472156008     0.002133887752    -0.001370515067
       9       -0.000024829696    -0.000009035531     0.000069403022
      10        0.000002758085    -0.000071973531    -0.000017467618
      11        0.000010877745     0.000025479728    -0.000008078087
      12       -0.000017699774    -0.000020521753    -0.000011965745
      13        0.000013321765     0.000000653175     0.000024398435
      14        0.000000733283    -0.000000753751    -0.000003988814
      15       -0.000002476534     0.000001025966     0.000005547801
      16       -0.000003619577     0.000002047658    -0.000002727409
      17       -0.000002169219     0.000000087368     0.000002148991
      18       -0.000002182319    -0.000001147345    -0.000003777096
      19        0.000007135346    -0.000002746477     0.000001413056
      20       -0.000003437105     0.000004527411    -0.000011726826
      21       -0.000006407082    -0.000007558979    -0.000000431917
      22       -0.000025904987    -0.000010698736    -0.000011952678

  **** Optimization is complete! (in 17 steps) ****
    Final optimized geometry and variables:
    Molecular point group: c1

    Geometry (in Angstrom), charge = 0, multiplicity = 1:

    O           -2.140695507337     1.136278343036    -1.458182017200
    C           -1.987537972805     0.384726597247    -0.550970375157
    C           -0.914412731227    -0.681474587795    -0.581929773236
    C           -2.852260224778     0.457694140321     0.686533386313
    C            0.277547406616    -0.353771980084     0.338526449817
    H           -0.579529370649    -0.797284690626    -1.603259378068
    H           -1.347883432095    -1.631029425689    -0.280969972879
    C            1.580900219956    -0.966914588326    -0.171230103184
    H            0.393625019399     0.722940042727     0.399804914670
    H            0.076629594079    -0.701566571713     1.346557605729
    C            2.781771456019    -0.775477720381     0.756116282102
    H            1.807468877355    -0.547124695354    -1.147301945846
    H            1.430091534080    -2.032200462725    -0.325564704541
    C            3.228322239232     0.674068287839     0.931000825901
    H            3.612561260450    -1.350216704338     0.359115753340
    H            2.556054654672    -1.203938323349     1.729134899365
    H            3.449337051006     1.131946516155    -0.027621868321
    H            4.125457723301     0.727904967776     1.536721821648
    H            2.471679891337     1.277144856993     1.418319201465
    H           -3.456707551340    -0.440832737612     0.756152490751
    H           -3.496674570388     1.321687157350     0.634691183086
    H           -2.242689285650     0.505303412011     1.581256042292

  Mulliken Charges: (a.u.)
   Center  Symbol    Alpha    Beta     Spin     Total
       1     O     4.17471  4.17471  0.00000 -0.34942
       2     C     2.85981  2.85981  0.00000  0.28039
       3     C     3.09417  3.09417  0.00000 -0.18834
       4     C     3.15617  3.15617  0.00000 -0.31233
       5     C     3.10949  3.10949  0.00000 -0.21899
       6     H     0.43929  0.43929  0.00000  0.12142
       7     H     0.44810  0.44810  0.00000  0.10381
       8     C     3.09432  3.09432  0.00000 -0.18865
       9     H     0.44465  0.44465  0.00000  0.11069
      10     H     0.45056  0.45056  0.00000  0.09889
      11     C     3.09161  3.09161  0.00000 -0.18321
      12     H     0.44860  0.44860  0.00000  0.10279
      13     H     0.44800  0.44800  0.00000  0.10400
      14     C     3.15214  3.15214  0.00000 -0.30427
      15     H     0.44723  0.44723  0.00000  0.10554
      16     H     0.45462  0.45462  0.00000  0.09077
      17     H     0.45271  0.45271  0.00000  0.09459
      18     H     0.44576  0.44576  0.00000  0.10848
      19     H     0.45409  0.45409  0.00000  0.09182
      20     H     0.44926  0.44926  0.00000  0.10148
      21     H     0.43513  0.43513  0.00000  0.12974
      22     H     0.44959  0.44959  0.00000  0.10082

   Total alpha = 32.00000, Total beta = 32.00000, Total charge =  0.00000

*** Psi4 exiting successfully. Buy a developer a beer!
