                              Psi4 1.0.54 Driver

  ==> Input File <==

--------------------------------------------------------------------------
set {
	reference rhf
	basis cc-pvtz
}

set_num_threads( 4 )
memory 2 gb

molecule MOL {
0 1

H	 -3.162190	 0.493205	 -0.000107
C	 -2.363908	 -0.234727	 0.000005
O	 -1.158738	 0.454634	 -0.000087
H	 -2.464314	 -0.863616	 -0.882153
H	 -2.464327	 -0.863359	 0.882345
C	 -0.028611	 -0.359694	 0.000037
C	 -0.055157	 -1.250239	 1.225850
H	 0.873433	 0.252640	 -0.000046
H	 -0.005268	 -0.966962	 -0.905128
C	 1.153965	 -2.175967	 1.299364
H	 -0.098683	 -0.621778	 2.108498
H	 -0.970366	 -1.831713	 1.210577
H	 2.080748	 -1.613384	 1.340105
H	 1.109546	 -2.799909	 2.183527
H	 1.203076	 -2.831601	 0.436346

	symmetry c1
}
set optking {
	frozen_dihedral = ("
		8 6 3 2
	")
}

ee,wfn = optimize('scf', return_wfn=True)
oeprop( wfn, 'DIPOLE', 'QUADRUPOLE', 'MULLIKEN_CHARGES')
f=open( 'psi4out.xyz', 'w' )
f.write( "15  " )
f.write( str(ee) + "\n" )
f.write( MOL.save_string_xyz() )
f.close()
--------------------------------------------------------------------------

    Molecular point group: c1
  Charge       = 0
  Multiplicity = 1
  Basis Set: CC-PVTZ
  Basis Set:
  @DF-RHF Final Energy:  -232.21850868887503
    Total Energy =                       -232.2185086888750334
    Molecular point group: c1
  Basis Set: CC-PVTZ
  Basis Set:
  Basis Set: CC-PVTZ
  Basis Set:
  @DF-RHF Final Energy:  -231.63334596230831
    Total Energy =                       -231.6333459623081978
  Basis Set: CC-PVTZ
  Basis Set:
  Basis Set: CC-PVTZ
  Basis Set:
  @DF-RHF Final Energy:  -231.80750641478889
    Total Energy =                       -231.8075064147886906
  Basis Set: CC-PVTZ
  Basis Set:
  Basis Set: CC-PVTZ
  Basis Set:
  @DF-RHF Final Energy:  -232.08891262508570
    Total Energy =                       -232.0889126250856407
  Basis Set: CC-PVTZ
  Basis Set:
  @DF-RHF Final Energy:  -232.19977509196005
    Total Energy =                       -232.1997750919600776
  @DF-RHF Final Energy:  -232.22270025968203
    Total Energy =                       -232.2227002596820284
  Basis Set: CC-PVTZ
  Basis Set:
  @DF-RHF Final Energy:  -232.22447685737134
    Total Energy =                       -232.2244768573714282
  Basis Set: CC-PVTZ
  Basis Set:
  Basis Set: CC-PVTZ
  Basis Set:
  @DF-RHF Final Energy:  -232.22452029245534
    Total Energy =                       -232.2245202924555088
  Basis Set: CC-PVTZ
  Basis Set:
  Basis Set: CC-PVTZ
  Basis Set:
  @DF-RHF Final Energy:  -232.22452605252226
    Total Energy =                       -232.2245260525221511
  Basis Set: CC-PVTZ
  Basis Set:
  Charge       = 0
  Multiplicity = 1
  Basis Set: CC-PVTZ
  Basis Set:

    Orbital Energies (a.u.)
    -----------------------

    Doubly Occupied:

       1A    -20.545556     2A    -11.264410     3A    -11.260638
       4A    -11.216347     5A    -11.213530     6A     -1.377618
       7A     -1.058026     8A     -0.960933     9A     -0.884520
      10A     -0.802638    11A     -0.672610    12A     -0.659965
      13A     -0.633969    14A     -0.604906    15A     -0.564376
      16A     -0.530033    17A     -0.526300    18A     -0.498349
      19A     -0.486627    20A     -0.454061    21A     -0.409676

  @DF-RHF Final Energy:  -232.22452624987565

   => Energetics <=

    Nuclear Repulsion Energy =            192.2059811060984487
    One-Electron Energy =                -695.6108356262133157
    Two-Electron Energy =                 271.1803282702389879
    DFT Exchange-Correlation Energy =       0.0000000000000000
    Empirical Dispersion Energy =           0.0000000000000000
    PCM Polarization Energy =               0.0000000000000000
    EFP Energy =                            0.0000000000000000
    Total Energy =                       -232.2245262498759075
    Molecular point group: c1
  Basis Set: CC-PVTZ
  Basis Set:

  -Total Gradient:
     Atom            X                  Y                   Z
    ------   -----------------  -----------------  -----------------
       1       -0.000009438667     0.000007635025    -0.000000209229
       2       -0.000022363777     0.000532033591     0.001992533093
       3        0.000084654226    -0.000587865620    -0.002401895824
       4       -0.000000318339    -0.000027709500    -0.000001662869
       5       -0.000003893870    -0.000012587293     0.000012852212
       6        0.000033620160    -0.000461745077    -0.001978313699
       7        0.000016080597    -0.000011094664    -0.000005897822
       8       -0.000087859221     0.000587993173     0.002383208321
       9        0.000011884071    -0.000021283295    -0.000011601712
      10       -0.000018049150     0.000003356914     0.000005911847
      11       -0.000005432823     0.000012623563     0.000008716966
      12       -0.000008796498    -0.000025265998     0.000005022647
      13        0.000004217340     0.000019603570    -0.000001089567
      14        0.000000742943    -0.000001614842    -0.000003934679
      15        0.000004953005    -0.000014079547    -0.000003639685

  **** Optimization is complete! (in 10 steps) ****
    Final optimized geometry and variables:
    Molecular point group: c1

    Geometry (in Angstrom), charge = 0, multiplicity = 1:

    H           -2.943610354017    -0.467091204314    -0.685118245085
    C           -1.923335181984    -0.673818481612    -0.395025710710
    O           -1.179889820845     0.474279098835    -0.643164269758
    H           -1.562491437774    -1.518485855110    -0.979464050086
    H           -1.914742590862    -0.951881957868     0.653829368516
    C            0.208342984078     0.349954256987    -0.565568746672
    C            0.738198800536    -0.081976070206     0.796524327403
    H            0.598007370455     1.335277885898    -0.787097990039
    H            0.564338207225    -0.334907152712    -1.335375153767
    C            2.261505295884    -0.018720082703     0.849909631081
    H            0.312558409805     0.566227575391     1.556089120840
    H            0.416140610509    -1.091712933371     1.026037729769
    H            2.619920170918     0.989508487613     0.672300244579
    H            2.629926761432    -0.334110575598     1.818415595786
    H            2.708816050545    -0.664810063130     0.101693629221

  Mulliken Charges: (a.u.)
   Center  Symbol    Alpha    Beta     Spin     Total
       1     H     0.44400  0.44400  0.00000  0.11199
       2     C     3.03644  3.03644  0.00000 -0.07287
       3     O     4.17596  4.17596  0.00000 -0.35191
       4     H     0.47298  0.47298  0.00000  0.05405
       5     H     0.46831  0.46831  0.00000  0.06339
       6     C     2.97536  2.97536  0.00000  0.04929
       7     C     3.09324  3.09324  0.00000 -0.18648
       8     H     0.45111  0.45111  0.00000  0.09778
       9     H     0.47010  0.47010  0.00000  0.05979
      10     C     3.15237  3.15237  0.00000 -0.30474
      11     H     0.44927  0.44927  0.00000  0.10145
      12     H     0.45555  0.45555  0.00000  0.08890
      13     H     0.45344  0.45344  0.00000  0.09312
      14     H     0.44670  0.44670  0.00000  0.10660
      15     H     0.45518  0.45518  0.00000  0.08965

   Total alpha = 21.00000, Total beta = 21.00000, Total charge = -0.00000

*** Psi4 exiting successfully. Buy a developer a beer!
