  ==> Input File <==

--------------------------------------------------------------------------
set {
	reference rhf
	basis 6-31G*
}

set_num_threads( 1 )
memory 2 gb

molecule MOL {
0 1

H	 3.047510	 0.276398	 0.906719
O	 2.347136	 0.831294	 0.594859
C	 1.135793	 0.118896	 0.612333
C	 0.031547	 1.023609	 0.088541
H	 0.892412	 -0.193477	 1.626274
H	 1.213753	 -0.781267	 0.006749
C	 -1.134819	 0.293262	 -0.585751
H	 0.474374	 1.714721	 -0.623187
H	 -0.338529	 1.620940	 0.920081
C	 -1.917817	 -0.639439	 0.339494
H	 -0.758119	 -0.268455	 -1.433105
H	 -1.813832	 1.041889	 -0.986690
H	 -2.777680	 -1.057197	 -0.174994
H	 -1.310268	 -1.471279	 0.680599
H	 -2.283753	 -0.111424	 1.216626

	symmetry c1
}
set optking {
	frozen_dihedral = ("
		8 4 7 11,
		1 2 3 4
	")
}

ee = energy('scf')
oeprop('DIPOLE', 'QUADRUPOLE', 'MULLIKEN_CHARGES')
f=open( 'psi4out.xyz', 'w' )
f.write( "15  " )
f.write( str(ee) + "\n" )
f.write( MOL.save_string_xyz() )
f.close()
--------------------------------------------------------------------------

    Molecular point group: c1

    Geometry (in Angstrom), charge = 0, multiplicity = 1:

       Center              X                  Y                   Z               Mass
    ------------   -----------------  -----------------  -----------------  -----------------
           H          2.895822648319    -0.042601377048     0.675516063869     1.007825032070
           O          2.195448648319     0.512294622952     0.363656063869    15.994914619560
           C          0.984105648319    -0.200103377048     0.381130063869    12.000000000000
           C         -0.120140351681     0.704609622952    -0.142661936131    12.000000000000
           H          0.740724648319    -0.512476377048     1.395071063869     1.007825032070
           H          1.062065648319    -1.100266377048    -0.224453936131     1.007825032070
           C         -1.286506351681    -0.025737377048    -0.816953936131    12.000000000000
           H          0.322686648319     1.395721622952    -0.854389936131     1.007825032070
           H         -0.490216351681     1.301940622952     0.688878063869     1.007825032070
           C         -2.069504351681    -0.958438377048     0.108291063869    12.000000000000
           H         -0.909806351681    -0.587454377048    -1.664307936131     1.007825032070
           H         -1.965519351681     0.722889622952    -1.217892936131     1.007825032070
           H         -2.929367351681    -1.376196377048    -0.406196936131     1.007825032070
           H         -1.461955351681    -1.790278377048     0.449396063869     1.007825032070
           H         -2.435440351681    -0.430423377048     0.985423063869     1.007825032070

  Charge       = 0
  Multiplicity = 1
  Basis Set: 6-31G*
  Basis Set:

    Orbital Energies (a.u.)
    -----------------------

    Doubly Occupied:

       1A    -20.552250     2A    -11.266799     3A    -11.218024
       4A    -11.211683     5A    -11.210689     6A     -1.358606
       7A     -1.069890     8A     -0.971019     9A     -0.870302
      10A     -0.783290    11A     -0.698049    12A     -0.650041
      13A     -0.611239    14A     -0.588640    15A     -0.557250
      16A     -0.536749    17A     -0.508250    18A     -0.475275
      19A     -0.471579    20A     -0.456761    21A     -0.430925

  @DF-RHF Final Energy:  -232.14105064306679

   => Energetics <=

    Nuclear Repulsion Energy =            188.0771841206115766
    One-Electron Energy =                -687.4418143374643932
    Two-Electron Energy =                 267.2235795737855710
    DFT Exchange-Correlation Energy =       0.0000000000000000
    Empirical Dispersion Energy =           0.0000000000000000
    PCM Polarization Energy =               0.0000000000000000
    EFP Energy =                            0.0000000000000000
    Total Energy =                       -232.1410506430672172

  Mulliken Charges: (a.u.)
   Center  Symbol    Alpha    Beta     Spin     Total
       1     H     0.28138  0.28138  0.00000  0.43725
       2     O     4.37180  4.37180  0.00000 -0.74361
       3     C     2.99174  2.99174  0.00000  0.01652
       4     C     3.16312  3.16312  0.00000 -0.32624
       5     H     0.43103  0.43103  0.00000  0.13794
       6     H     0.43239  0.43239  0.00000  0.13522
       7     C     3.15919  3.15919  0.00000 -0.31839
       8     H     0.40723  0.40723  0.00000  0.18553
       9     H     0.41930  0.41930  0.00000  0.16140
      10     C     3.24245  3.24245  0.00000 -0.48490
      11     H     0.42085  0.42085  0.00000  0.15829
      12     H     0.41868  0.41868  0.00000  0.16263
      13     H     0.41806  0.41806  0.00000  0.16389
      14     H     0.42206  0.42206  0.00000  0.15588
      15     H     0.42070  0.42070  0.00000  0.15860

   Total alpha = 21.00000, Total beta = 21.00000, Total charge = -0.00000
