  ==> Input File <==

--------------------------------------------------------------------------
set {
	reference rhf
	basis 6-31G*
}

set_num_threads( 1 )
memory 2 gb

molecule MOL {
0 1

H	 -1.889430	 -0.879976	 -0.350170
O	 -2.035884	 -0.060112	 0.102722
C	 -0.955155	 0.788182	 -0.092531
C	 0.353668	 0.040312	 -0.004810
H	 -0.985057	 1.290372	 -1.054184
H	 -0.974469	 1.533190	 0.688632
F	 0.394464	 -0.937475	 -0.903053
F	 1.368604	 0.853376	 -0.249821
F	 0.546173	 -0.502608	 1.179981

	symmetry c1
}
set optking {
	frozen_dihedral = ("
		7 4 3 5
	")
}

ee = energy('scf')
oeprop('DIPOLE', 'QUADRUPOLE', 'MULLIKEN_CHARGES')
f=open( 'psi4out.xyz', 'w' )
f.write( "9  " )
f.write( str(ee) + "\n" )
f.write( MOL.save_string_xyz() )
f.close()
--------------------------------------------------------------------------

    Molecular point group: c1

    Geometry (in Angstrom), charge = 0, multiplicity = 1:

       Center              X                  Y                   Z               Mass
    ------------   -----------------  -----------------  -----------------  -----------------
           H         -1.891541539843    -0.877903683371    -0.352855682645     1.007825032070
           O         -2.037995539843    -0.058039683371     0.100036317355    15.994914619560
           C         -0.957266539843     0.790254316629    -0.095216682645    12.000000000000
           C          0.351556460157     0.042384316629    -0.007495682645    12.000000000000
           H         -0.987168539843     1.292444316629    -1.056869682645     1.007825032070
           H         -0.976580539843     1.535262316629     0.685946317355     1.007825032070
           F          0.392352460157    -0.935402683371    -0.905738682645    18.998403224000
           F          1.366492460157     0.855448316629    -0.252506682645    18.998403224000
           F          0.544061460157    -0.500535683371     1.177295317355    18.998403224000

  Charge       = 0
  Multiplicity = 1
  Basis Set: 6-31G*
  Basis Set:

    Orbital Energies (a.u.)
    -----------------------

    Doubly Occupied:

       1A    -26.350477     2A    -26.346659     3A    -26.344576
       4A    -20.588787     5A    -11.505350     6A    -11.309443
       7A     -1.745412     8A     -1.644249     9A     -1.641881
      10A     -1.402080    11A     -1.049705    12A     -0.927402
      13A     -0.835546    14A     -0.833372    15A     -0.813391
      16A     -0.723752    17A     -0.716530    18A     -0.691960
      19A     -0.668669    20A     -0.665117    21A     -0.647604
      22A     -0.633372    23A     -0.622706    24A     -0.528287
      25A     -0.478833

  @DF-RHF Final Energy:  -450.66145042710912

   => Energetics <=

    Nuclear Repulsion Energy =            277.5071627628243505
    One-Electron Energy =               -1176.9069101501770547
    Two-Electron Energy =                 448.7382969602438152
    DFT Exchange-Correlation Energy =       0.0000000000000000
    Empirical Dispersion Energy =           0.0000000000000000
    PCM Polarization Energy =               0.0000000000000000
    EFP Energy =                            0.0000000000000000
    Total Energy =                       -450.6614504271088890

  Mulliken Charges: (a.u.)
   Center  Symbol    Alpha    Beta     Spin     Total
       1     H     0.27215  0.27215  0.00000  0.45569
       2     O     4.36569  4.36569  0.00000 -0.73138
       3     C     3.03847  3.03847  0.00000 -0.07695
       4     C     2.47663  2.47663  0.00000  1.04674
       5     H     0.40948  0.40948  0.00000  0.18103
       6     H     0.39725  0.39725  0.00000  0.20550
       7     F     4.68529  4.68529  0.00000 -0.37058
       8     F     4.68066  4.68066  0.00000 -0.36133
       9     F     4.67436  4.67436  0.00000 -0.34872

   Total alpha = 25.00000, Total beta = 25.00000, Total charge = -0.00000
