  ==> Input File <==

--------------------------------------------------------------------------
set {
	reference rhf
	basis 6-31G*
}

set_num_threads( 4 )
memory 2 gb

molecule MOL {
0 1

O	 1.846825	 1.296220	 0.000415
C	 1.705091	 0.115954	 0.001797
C	 0.381791	 -0.609817	 0.001258
O	 2.721346	 -0.737485	 -0.000216
C	 -0.823008	 0.326187	 0.001381
H	 0.371250	 -1.265087	 -0.865474
H	 0.370908	 -1.265746	 0.867490
C	 -1.231125	 0.746729	 1.414054
H	 -1.656143	 -0.163314	 -0.493052
H	 -0.593393	 1.204742	 -0.593370
C	 -2.438872	 1.685266	 1.432880
H	 -1.456618	 -0.138816	 2.006472
H	 -0.390764	 1.234826	 1.905416
C	 -2.845423	 2.106082	 2.844575
H	 -3.279995	 1.198141	 0.944656
H	 -2.214847	 2.570753	 0.842234
H	 -3.109191	 1.243764	 3.450419
H	 -3.703492	 2.770743	 2.824697
H	 -2.035343	 2.626922	 3.347375
C	 4.024888	 -0.184556	 -0.001949
H	 4.179030	 0.422472	 -0.882452
H	 4.701782	 -1.024608	 -0.003642
H	 4.181981	 0.421185	 0.878906

	symmetry c1
}
set optking {
	frozen_dihedral = ("
		9 5 3 6
	")
}

ee = optimize('scf')
oeprop('DIPOLE', 'QUADRUPOLE', 'MULLIKEN_CHARGES')
f=open( 'psi4out.xyz', 'w' )
f.write( "23  " )
f.write( str(ee) + "\n" )
f.write( MOL.save_string_xyz() )
f.close()
--------------------------------------------------------------------------

    Molecular point group: c1
  Charge       = 0
  Multiplicity = 1
  Basis Set: 6-31G*
  Basis Set:
  @DF-RHF Final Energy:  -422.97472741044987
    Total Energy =                       -422.9747274104495318
    Molecular point group: c1
  Basis Set: 6-31G*
  Basis Set:
  Basis Set: 6-31G*
  Basis Set:
  @DF-RHF Final Energy:  -422.97487863847869
    Total Energy =                       -422.9748786384791401
  Basis Set: 6-31G*
  Basis Set:
  Basis Set: 6-31G*
  Basis Set:
  @DF-RHF Final Energy:  -422.97468910064919
    Total Energy =                       -422.9746891006491296
  Basis Set: 6-31G*
  Basis Set:
  Basis Set: 6-31G*
  Basis Set:
  @DF-RHF Final Energy:  -422.97495505547465
    Total Energy =                       -422.9749550554747657
  Basis Set: 6-31G*
  Basis Set:
  Basis Set: 6-31G*
  Basis Set:
  @DF-RHF Final Energy:  -422.97495326468112
    Total Energy =                       -422.9749532646809485
  Basis Set: 6-31G*
  Basis Set:
  Basis Set: 6-31G*
  Basis Set:
  @DF-RHF Final Energy:  -422.97495947934613
    Total Energy =                       -422.9749594793460119
  Basis Set: 6-31G*
  Basis Set:
  Charge       = 0
  Multiplicity = 1
  Basis Set: 6-31G*
  Basis Set:

    Orbital Energies (a.u.)
    -----------------------

    Doubly Occupied:

       1A    -20.604496     2A    -20.546510     3A    -11.373300
       4A    -11.281449     5A    -11.235423     6A    -11.218614
       7A    -11.213221     8A    -11.212541     9A    -11.206458
      10A     -1.470326    11A     -1.363613    12A     -1.090468
      13A     -1.041439    14A     -0.986178    15A     -0.930339
      16A     -0.843495    17A     -0.793516    18A     -0.766654
      19A     -0.703290    20A     -0.680799    21A     -0.672152
      22A     -0.638891    23A     -0.612657    24A     -0.598816
      25A     -0.568892    26A     -0.556522    27A     -0.553022
      28A     -0.531409    29A     -0.522760    30A     -0.498601
      31A     -0.490146    32A     -0.465387    33A     -0.464714
      34A     -0.455630    35A     -0.451020    36A     -0.438275

  @DF-RHF Final Energy:  -422.97495959596876

   => Energetics <=

    Nuclear Repulsion Energy =            460.6307362121213487
    One-Electron Energy =               -1489.0493486451960052
    Two-Electron Energy =                 605.4436528371060149
    DFT Exchange-Correlation Energy =       0.0000000000000000
    Empirical Dispersion Energy =           0.0000000000000000
    PCM Polarization Energy =               0.0000000000000000
    EFP Energy =                            0.0000000000000000
    Total Energy =                       -422.9749595959686985
    Molecular point group: c1
  Basis Set: 6-31G*
  Basis Set:

  -Total Gradient:
     Atom            X                  Y                   Z
    ------   -----------------  -----------------  -----------------
       1        0.000013351758    -0.000020924552    -0.000015697474
       2       -0.000020410774     0.000004036309     0.000046687068
       3        0.002224646074     0.003076995366    -0.002741809275
       4        0.000013033615     0.000010360797    -0.000011982423
       5       -0.001475894291    -0.002097030970     0.003804915390
       6       -0.001616021421    -0.002206708811     0.001655600129
       7        0.000006646980    -0.000006297973     0.000004753802
       8        0.000010447579     0.000018416840    -0.000000458236
       9        0.000849538262     0.001241575138    -0.002743796572
      10        0.000009329430    -0.000001505174     0.000001758775
      11       -0.000010635910    -0.000023847607    -0.000000955616
      12        0.000003877242    -0.000000761209    -0.000011121939
      13       -0.000008632402     0.000002455108     0.000002426261
      14        0.000005260119     0.000017971605     0.000002474876
      15       -0.000004102536    -0.000006538381     0.000002886508
      16       -0.000003152535    -0.000010633097    -0.000000018650
      17       -0.000006600394     0.000001044290    -0.000006013060
      18        0.000003663586     0.000008434658     0.000003505723
      19        0.000002563992    -0.000006027882     0.000005715609
      20       -0.000000749947    -0.000003472493     0.000003801878
      21        0.000000404407     0.000000359381    -0.000001886558
      22        0.000002404810     0.000001727791    -0.000001166260
      23        0.000001032353     0.000000370868     0.000000380048

  **** Optimization is complete! (in 7 steps) ****
    Final optimized geometry and variables:
    Molecular point group: c1

    Geometry (in Angstrom), charge = 0, multiplicity = 1:

    O            1.434376606697     0.767660978763    -0.618861580820
    C            1.293802779914    -0.412915692034    -0.639128246383
    C           -0.026909466729    -1.144008169868    -0.660928698891
    O            2.311295457357    -1.263997043369    -0.644757791450
    C           -1.250251274202    -0.225162208834    -0.627467136111
    H           -0.036622916732    -1.790770433778    -1.532985458484
    H           -0.026672116186    -1.823917217244     0.187338334521
    C           -1.648974958374     0.210079473419     0.782714368002
    H           -2.079822850949    -0.729985206044    -1.115505824184
    H           -1.041275713387     0.654099803228    -1.227378565711
    C           -2.850368355945     1.155956166079     0.799140053836
    H           -1.877005786695    -0.670713714169     1.381761529937
    H           -0.801338622111     0.698483004064     1.257003142590
    C           -3.250142916449     1.586814303099     2.209823080255
    H           -3.697160544461     0.672601246425     0.315798737326
    H           -2.620077769185     2.036832422639     0.204530818896
    H           -3.520847276179     0.729754102196     2.820301393477
    H           -4.101806631441     2.259747349182     2.189084025584
    H           -2.433537680926     2.101890600486     2.707555760169
    C            3.614186541529    -0.709365755250    -0.626701768937
    H            3.774865855258    -0.088264382289    -1.496095824477
    H            4.292103320319    -1.548546459404    -0.636132342657
    H            3.762815957287    -0.117785917239     0.265155874919

  Mulliken Charges: (a.u.)
   Center  Symbol    Alpha    Beta     Spin     Total
       1     O     4.28662  4.28662  0.00000 -0.57324
       2     C     2.60688  2.60688  0.00000  0.78624
       3     C     3.21046  3.21046  0.00000 -0.42092
       4     O     4.30621  4.30621  0.00000 -0.61241
       5     C     3.15747  3.15747  0.00000 -0.31493
       6     H     0.39733  0.39733  0.00000  0.20534
       7     H     0.40012  0.40012  0.00000  0.19977
       8     C     3.15430  3.15430  0.00000 -0.30860
       9     H     0.41930  0.41930  0.00000  0.16141
      10     H     0.40464  0.40464  0.00000  0.19073
      11     C     3.15260  3.15260  0.00000 -0.30521
      12     H     0.42638  0.42638  0.00000  0.14724
      13     H     0.41344  0.41344  0.00000  0.17313
      14     C     3.23956  3.23956  0.00000 -0.47912
      15     H     0.42432  0.42432  0.00000  0.15136
      16     H     0.41932  0.41932  0.00000  0.16135
      17     H     0.42277  0.42277  0.00000  0.15446
      18     H     0.41943  0.41943  0.00000  0.16114
      19     H     0.42028  0.42028  0.00000  0.15943
      20     C     3.09230  3.09230  0.00000 -0.18460
      21     H     0.40893  0.40893  0.00000  0.18214
      22     H     0.40832  0.40832  0.00000  0.18335
      23     H     0.40903  0.40903  0.00000  0.18194

   Total alpha = 36.00000, Total beta = 36.00000, Total charge = -0.00000
