  ==> Input File <==

--------------------------------------------------------------------------
set {
	reference rhf
	basis 6-31G*
}

set_num_threads( 1 )
memory 2 gb

molecule MOL {
0 1

H	 4.987567	 2.680562	 0.059915
C	 4.627447	 1.684961	 -0.180116
C	 3.209974	 1.468064	 0.347997
H	 4.662213	 1.572015	 -1.259642
H	 5.322286	 0.969043	 0.250534
C	 2.673661	 0.070033	 0.032258
H	 2.549505	 2.214389	 -0.081401
H	 3.200481	 1.621987	 1.425916
C	 1.262966	 -0.182852	 0.564474
H	 2.679007	 -0.087857	 -1.040442
H	 3.340408	 -0.672362	 0.465085
C	 0.169600	 0.576866	 -0.172154
H	 1.020228	 -1.240518	 0.473964
H	 1.202132	 0.042678	 1.626835
C	 -1.181045	 0.701995	 0.511084
O	 0.353628	 1.044293	 -1.255691
C	 -2.285934	 -0.139295	 -0.145128
H	 -1.449051	 1.751551	 0.493206
H	 -1.071135	 0.403303	 1.551943
C	 -3.651768	 0.085446	 0.506485
H	 -2.346596	 0.110469	 -1.202272
H	 -2.034737	 -1.195320	 -0.088721
C	 -4.759797	 -0.746382	 -0.137905
H	 -3.908762	 1.140117	 0.445781
H	 -3.588286	 -0.154158	 1.565709
H	 -4.868882	 -0.505166	 -1.191300
H	 -4.548009	 -1.809175	 -0.062213
H	 -5.715422	 -0.564821	 0.343442

	symmetry c1
}
set optking {
	frozen_dihedral = ("
		10 6 3 2,
		12 15 17 21
	")
}

ee = energy('scf')
oeprop('DIPOLE', 'QUADRUPOLE', 'MULLIKEN_CHARGES')
f=open( 'psi4out.xyz', 'w' )
f.write( "28  " )
f.write( str(ee) + "\n" )
f.write( MOL.save_string_xyz() )
f.close()
--------------------------------------------------------------------------

    Molecular point group: c1

    Geometry (in Angstrom), charge = 0, multiplicity = 1:

       Center              X                  Y                   Z               Mass
    ------------   -----------------  -----------------  -----------------  -----------------
           H          4.946296546705     2.221456848311     0.062411495933     1.007825032070
           C          4.586176546705     1.225855848311    -0.177619504067    12.000000000000
           C          3.168703546705     1.008958848311     0.350493495933    12.000000000000
           H          4.620942546705     1.112909848311    -1.257145504067     1.007825032070
           H          5.281015546705     0.509937848311     0.253030495933     1.007825032070
           C          2.632390546705    -0.389072151689     0.034754495933    12.000000000000
           H          2.508234546705     1.755283848311    -0.078904504067     1.007825032070
           H          3.159210546705     1.162881848311     1.428412495933     1.007825032070
           C          1.221695546705    -0.641957151689     0.566970495933    12.000000000000
           H          2.637736546705    -0.546962151689    -1.037945504067     1.007825032070
           H          3.299137546705    -1.131467151689     0.467581495933     1.007825032070
           C          0.128329546705     0.117760848311    -0.169657504067    12.000000000000
           H          0.978957546705    -1.699623151689     0.476460495933     1.007825032070
           H          1.160861546705    -0.416427151689     1.629331495933     1.007825032070
           C         -1.222315453295     0.242889848311     0.513580495933    12.000000000000
           O          0.312357546705     0.585187848311    -1.253194504067    15.994914619560
           C         -2.327204453295    -0.598400151689    -0.142631504067    12.000000000000
           H         -1.490321453295     1.292445848311     0.495702495933     1.007825032070
           H         -1.112405453295    -0.055802151689     1.554439495933     1.007825032070
           C         -3.693038453295    -0.373659151689     0.508981495933    12.000000000000
           H         -2.387866453295    -0.348636151689    -1.199775504067     1.007825032070
           H         -2.076007453295    -1.654425151689    -0.086224504067     1.007825032070
           C         -4.801067453295    -1.205487151689    -0.135408504067    12.000000000000
           H         -3.950032453295     0.681011848311     0.448277495933     1.007825032070
           H         -3.629556453295    -0.613263151689     1.568205495933     1.007825032070
           H         -4.910152453295    -0.964271151689    -1.188803504067     1.007825032070
           H         -4.589279453295    -2.268280151689    -0.059716504067     1.007825032070
           H         -5.756692453295    -1.023926151689     0.345938495933     1.007825032070

  Charge       = 0
  Multiplicity = 1
  Basis Set: 6-31G*
  Basis Set:

    Orbital Energies (a.u.)
    -----------------------

    Doubly Occupied:

       1A    -20.547295     2A    -11.322617     3A    -11.230205
       4A    -11.229195     5A    -11.228146     6A    -11.223305
       7A    -11.216169     8A    -11.213830     9A    -11.212327
      10A    -11.205710    11A     -1.393178    12A     -1.091018
      13A     -1.077729    14A     -1.021747    15A     -0.991011
      16A     -0.909342    17A     -0.869279    18A     -0.807630
      19A     -0.796118    20A     -0.723688    21A     -0.669457
      22A     -0.650596    23A     -0.625263    24A     -0.619628
      25A     -0.608609    26A     -0.588845    27A     -0.576109
      28A     -0.572369    29A     -0.540854    30A     -0.532089
      31A     -0.522004    32A     -0.509382    33A     -0.495948
      34A     -0.480914    35A     -0.475795    36A     -0.474296
      37A     -0.469483    38A     -0.465140    39A     -0.454677
      40A     -0.391846

  @DF-RHF Final Energy:  -426.16864473226440

   => Energetics <=

    Nuclear Repulsion Energy =            528.9208273232956117
    One-Electron Energy =               -1626.1134760897703018
    Two-Electron Energy =                 671.0240040342116572
    DFT Exchange-Correlation Energy =       0.0000000000000000
    Empirical Dispersion Energy =           0.0000000000000000
    PCM Polarization Energy =               0.0000000000000000
    EFP Energy =                            0.0000000000000000
    Total Energy =                       -426.1686447322629192

  Mulliken Charges: (a.u.)
   Center  Symbol    Alpha    Beta     Spin     Total
       1     H     0.41939  0.41939  0.00000  0.16123
       2     C     3.24007  3.24007  0.00000 -0.48014
       3     C     3.15623  3.15623  0.00000 -0.31246
       4     H     0.41832  0.41832  0.00000  0.16336
       5     H     0.42358  0.42358  0.00000  0.15283
       6     C     3.14963  3.14963  0.00000 -0.29927
       7     H     0.41062  0.41062  0.00000  0.17877
       8     H     0.42756  0.42756  0.00000  0.14488
       9     C     3.21240  3.21240  0.00000 -0.42479
      10     H     0.40661  0.40661  0.00000  0.18678
      11     H     0.42195  0.42195  0.00000  0.15610
      12     C     2.73529  2.73529  0.00000  0.52942
      13     H     0.40395  0.40395  0.00000  0.19209
      14     H     0.41198  0.41198  0.00000  0.17604
      15     C     3.19760  3.19760  0.00000 -0.39520
      16     O     4.26857  4.26857  0.00000 -0.53714
      17     C     3.15735  3.15735  0.00000 -0.31470
      18     H     0.40141  0.40141  0.00000  0.19719
      19     H     0.41734  0.41734  0.00000  0.16532
      20     C     3.15261  3.15261  0.00000 -0.30522
      21     H     0.40644  0.40644  0.00000  0.18711
      22     H     0.42056  0.42056  0.00000  0.15889
      23     C     3.24025  3.24025  0.00000 -0.48051
      24     H     0.41975  0.41975  0.00000  0.16050
      25     H     0.42272  0.42272  0.00000  0.15457
      26     H     0.41892  0.41892  0.00000  0.16216
      27     H     0.42121  0.42121  0.00000  0.15758
      28     H     0.41770  0.41770  0.00000  0.16461

   Total alpha = 40.00000, Total beta = 40.00000, Total charge = -0.00000
