  ==> Input File <==

--------------------------------------------------------------------------
set {
	reference rhf
	basis 6-31G*
}

set_num_threads( 1 )
memory 2 gb

molecule MOL {
0 1

H	 -0.098128	 -0.334348	 2.436879
O	 0.627761	 -0.294923	 1.829110
C	 0.418758	 0.761020	 0.937334
C	 -0.793441	 0.596080	 0.058728
H	 1.309447	 0.817949	 0.322001
H	 0.347587	 1.708893	 1.469779
C	 -1.530462	 -0.493172	 -0.025500
H	 -1.044685	 1.460066	 -0.536996
H	 -1.092586	 -1.461565	 -0.186463
H	 -2.602122	 -0.450675	 0.050101

	symmetry c1
}
set optking {
	frozen_dihedral = ("
		5 3 2 1,
		5 3 4 7
	")
}

ee = energy('scf')
oeprop('DIPOLE', 'QUADRUPOLE', 'MULLIKEN_CHARGES')
f=open( 'psi4out.xyz', 'w' )
f.write( "10  " )
f.write( str(ee) + "\n" )
f.write( MOL.save_string_xyz() )
f.close()
--------------------------------------------------------------------------

    Molecular point group: c1

    Geometry (in Angstrom), charge = 0, multiplicity = 1:

       Center              X                  Y                   Z               Mass
    ------------   -----------------  -----------------  -----------------  -----------------
           H          0.177985299740    -0.461907751560     1.670426651023     1.007825032070
           O          0.903874299740    -0.422482751560     1.062657651023    15.994914619560
           C          0.694871299740     0.633460248440     0.170881651023    12.000000000000
           C         -0.517327700260     0.468520248440    -0.707724348977    12.000000000000
           H          1.585560299740     0.690389248440    -0.444451348977     1.007825032070
           H          0.623700299740     1.581333248440     0.703326651023     1.007825032070
           C         -1.254348700260    -0.620731751560    -0.791952348977    12.000000000000
           H         -0.768571700260     1.332506248440    -1.303448348977     1.007825032070
           H         -0.816472700260    -1.589124751560    -0.952915348977     1.007825032070
           H         -2.326008700260    -0.578234751560    -0.716351348977     1.007825032070

  Charge       = 0
  Multiplicity = 1
  Basis Set: 6-31G*
  Basis Set:

    Orbital Energies (a.u.)
    -----------------------

    Doubly Occupied:

       1A    -20.557288     2A    -11.278295     3A    -11.234925
       4A    -11.218698     5A     -1.366188     6A     -1.058991
       7A     -0.927907     8A     -0.769247     9A     -0.685935
      10A     -0.649424    11A     -0.617055    12A     -0.573904
      13A     -0.550538    14A     -0.503714    15A     -0.447271
      16A     -0.317446

  @DF-RHF Final Energy:  -191.86026376222094

   => Energetics <=

    Nuclear Repulsion Energy =            119.2102328186874729
    One-Electron Energy =                -496.6273271476333662
    Two-Electron Energy =                 185.5568305667249547
    DFT Exchange-Correlation Energy =       0.0000000000000000
    Empirical Dispersion Energy =           0.0000000000000000
    PCM Polarization Energy =               0.0000000000000000
    EFP Energy =                            0.0000000000000000
    Total Energy =                       -191.8602637622209386

  Mulliken Charges: (a.u.)
   Center  Symbol    Alpha    Beta     Spin     Total
       1     H     0.28255  0.28255  0.00000  0.43490
       2     O     4.36443  4.36443  0.00000 -0.72887
       3     C     2.99922  2.99922  0.00000  0.00155
       4     C     3.09586  3.09586  0.00000 -0.19172
       5     H     0.41259  0.41259  0.00000  0.17482
       6     H     0.42068  0.42068  0.00000  0.15865
       7     C     3.20400  3.20400  0.00000 -0.40800
       8     H     0.40833  0.40833  0.00000  0.18334
       9     H     0.40260  0.40260  0.00000  0.19480
      10     H     0.40974  0.40974  0.00000  0.18052

   Total alpha = 16.00000, Total beta = 16.00000, Total charge = -0.00000
