  ==> Input File <==

--------------------------------------------------------------------------
set {
	reference rhf
	basis 6-31G*
}

set_num_threads( 1 )
memory 2 gb

molecule MOL {
0 1

O	 0.014739	 0.671346	 0.969913
C	 0.486307	 0.169203	 0.000779
C	 1.608116	 -0.841643	 0.000302
O	 0.080860	 0.439100	 -1.232256
C	 2.990107	 -0.200498	 -0.000684
H	 1.468623	 -1.481519	 -0.865924
H	 1.469683	 -1.481289	 0.866878
H	 3.129736	 0.423364	 -0.875135
H	 3.757882	 -0.966877	 -0.001197
H	 3.130964	 0.423383	 0.873533
C	 -0.975989	 1.380832	 -1.385920
C	 -1.251124	 1.516292	 -2.868574
H	 -0.675438	 2.322645	 -0.947467
H	 -1.845081	 1.026301	 -0.848727
H	 -0.369562	 1.866971	 -3.393009
H	 -2.053785	 2.228143	 -3.031829
H	 -1.545680	 0.563583	 -3.293824

	symmetry c1
}
set optking {
	frozen_dihedral = ("
		2 4 11 13,
		11 4 2 3
	")
}

ee = energy('scf')
oeprop('DIPOLE', 'QUADRUPOLE', 'MULLIKEN_CHARGES')
f=open( 'psi4out.xyz', 'w' )
f.write( "17  " )
f.write( str(ee) + "\n" )
f.write( MOL.save_string_xyz() )
f.close()
--------------------------------------------------------------------------

    Molecular point group: c1

    Geometry (in Angstrom), charge = 0, multiplicity = 1:

       Center              X                  Y                   Z               Mass
    ------------   -----------------  -----------------  -----------------  -----------------
           O         -0.400043478360     0.210722442303     1.624888950650    15.994914619560
           C          0.071524521640    -0.291420557697     0.655754950650    12.000000000000
           C          1.193333521640    -1.302266557697     0.655277950650    12.000000000000
           O         -0.333922478360    -0.021523557697    -0.577280049350    15.994914619560
           C          2.575324521640    -0.661121557697     0.654291950650    12.000000000000
           H          1.053840521640    -1.942142557697    -0.210948049350     1.007825032070
           H          1.054900521640    -1.941912557697     1.521853950650     1.007825032070
           H          2.714953521640    -0.037259557697    -0.220159049350     1.007825032070
           H          3.343099521640    -1.427500557697     0.653778950650     1.007825032070
           H          2.716181521640    -0.037240557697     1.528508950650     1.007825032070
           C         -1.390771478360     0.920208442303    -0.730944049350    12.000000000000
           C         -1.665906478360     1.055668442303    -2.213598049350    12.000000000000
           H         -1.090220478360     1.862021442303    -0.292491049350     1.007825032070
           H         -2.259863478360     0.565677442303    -0.193751049350     1.007825032070
           H         -0.784344478360     1.406347442303    -2.738033049350     1.007825032070
           H         -2.468567478360     1.767519442303    -2.376853049350     1.007825032070
           H         -1.960462478360     0.102959442303    -2.638848049350     1.007825032070

  Charge       = 0
  Multiplicity = 1
  Basis Set: 6-31G*
  Basis Set:

    Orbital Energies (a.u.)
    -----------------------

    Doubly Occupied:

       1A    -20.601751     2A    -20.542375     3A    -11.370314
       4A    -11.284373     5A    -11.235655     6A    -11.226700
       7A    -11.222297     8A     -1.467147     9A     -1.360686
      10A     -1.072944    11A     -1.031879    12A     -0.910393
      13A     -0.853431    14A     -0.776774    15A     -0.693125
      16A     -0.682494    17A     -0.667925    18A     -0.612464
      19A     -0.600366    20A     -0.575579    21A     -0.554449
      22A     -0.539260    23A     -0.529200    24A     -0.507420
      25A     -0.500087    26A     -0.497997    27A     -0.451095
      28A     -0.431290

  @DF-RHF Final Energy:  -344.90942783488816

   => Energetics <=

    Nuclear Repulsion Energy =            315.8312977966209587
    One-Electron Energy =               -1095.8825070527168464
    Two-Electron Energy =                 435.1417814212074404
    DFT Exchange-Correlation Energy =       0.0000000000000000
    Empirical Dispersion Energy =           0.0000000000000000
    PCM Polarization Energy =               0.0000000000000000
    EFP Energy =                            0.0000000000000000
    Total Energy =                       -344.9094278348885041

  Mulliken Charges: (a.u.)
   Center  Symbol    Alpha    Beta     Spin     Total
       1     O     4.28527  4.28527  0.00000 -0.57054
       2     C     2.61468  2.61468  0.00000  0.77064
       3     C     3.19564  3.19564  0.00000 -0.39129
       4     O     4.30909  4.30909  0.00000 -0.61819
       5     C     3.24859  3.24859  0.00000 -0.49717
       6     H     0.40366  0.40366  0.00000  0.19267
       7     H     0.40101  0.40101  0.00000  0.19798
       8     H     0.41158  0.41158  0.00000  0.17683
       9     H     0.41164  0.41164  0.00000  0.17672
      10     H     0.40707  0.40707  0.00000  0.18585
      11     C     3.00280  3.00280  0.00000 -0.00560
      12     C     3.24845  3.24845  0.00000 -0.49691
      13     H     0.41030  0.41030  0.00000  0.17941
      14     H     0.40995  0.40995  0.00000  0.18011
      15     H     0.41210  0.41210  0.00000  0.17579
      16     H     0.41628  0.41628  0.00000  0.16745
      17     H     0.41188  0.41188  0.00000  0.17624

   Total alpha = 28.00000, Total beta = 28.00000, Total charge =  0.00000
