  ==> Input File <==

--------------------------------------------------------------------------
set {
	reference rhf
	basis 6-31G*
}

set_num_threads( 4 )
memory 2 gb

molecule MOL {
0 1

H	 -2.798360	 -0.862255	 -0.071053
N	 -1.863561	 -0.715187	 0.256814
C	 -1.344686	 0.554728	 -0.219830
H	 -1.300452	 -1.461917	 -0.101532
C	 -0.262860	 0.316431	 -1.252303
H	 -2.104358	 1.201576	 -0.660839
H	 -0.909583	 1.088713	 0.619412
O	 -0.845856	 -0.301465	 -2.363791
H	 0.192579	 1.262018	 -1.545694
H	 0.511850	 -0.319801	 -0.830084
C	 0.056575	 -0.657405	 -3.362038
H	 -0.504954	 -1.120508	 -4.161987
H	 0.577319	 0.213256	 -3.756698
H	 0.796869	 -1.365162	 -2.994813

	symmetry c1
}
set optking {
	frozen_dihedral = ("
		6 3 2 4
	")
}

ee = optimize('scf')
oeprop('DIPOLE', 'QUADRUPOLE', 'MULLIKEN_CHARGES')
f=open( 'psi4out.xyz', 'w' )
f.write( "14  " )
f.write( str(ee) + "\n" )
f.write( MOL.save_string_xyz() )
f.close()
--------------------------------------------------------------------------

    Molecular point group: c1
  Charge       = 0
  Multiplicity = 1
  Basis Set: 6-31G*
  Basis Set:
  @DF-RHF Final Energy:  -248.11864852994566
    Total Energy =                       -248.1186485299457445
    Molecular point group: c1
  Basis Set: 6-31G*
  Basis Set:
  Basis Set: 6-31G*
  Basis Set:
  @DF-RHF Final Energy:  -248.12000113733370
    Total Energy =                       -248.1200011373338157
  Basis Set: 6-31G*
  Basis Set:
  Basis Set: 6-31G*
  Basis Set:
  @DF-RHF Final Energy:  -248.12026195944577
    Total Energy =                       -248.1202619594456564
  Basis Set: 6-31G*
  Basis Set:
  Basis Set: 6-31G*
  Basis Set:
  @DF-RHF Final Energy:  -248.12026891980707
    Total Energy =                       -248.1202689198069606
  Basis Set: 6-31G*
  Basis Set:
  Charge       = 0
  Multiplicity = 1
  Basis Set: 6-31G*
  Basis Set:

    Orbital Energies (a.u.)
    -----------------------

    Doubly Occupied:

       1A    -20.561566     2A    -15.527885     3A    -11.272068
       4A    -11.270434     5A    -11.241790     6A     -1.386305
       7A     -1.172165     8A     -1.001899     9A     -0.911268
      10A     -0.823071    11A     -0.687438    12A     -0.666218
      13A     -0.652248    14A     -0.629552    15A     -0.581492
      16A     -0.547448    17A     -0.537987    18A     -0.505214
      19A     -0.473011    20A     -0.422268    21A     -0.379057

  @DF-RHF Final Energy:  -248.12026939357489

   => Energetics <=

    Nuclear Repulsion Energy =            194.2238589219311677
    One-Electron Energy =                -722.1874865103538923
    Two-Electron Energy =                 279.8433581948479514
    DFT Exchange-Correlation Energy =       0.0000000000000000
    Empirical Dispersion Energy =           0.0000000000000000
    PCM Polarization Energy =               0.0000000000000000
    EFP Energy =                            0.0000000000000000
    Total Energy =                       -248.1202693935747448
    Molecular point group: c1
  Basis Set: 6-31G*
  Basis Set:

  -Total Gradient:
     Atom            X                  Y                   Z
    ------   -----------------  -----------------  -----------------
       1       -0.000014287883    -0.000015872060     0.000010421419
       2        0.001390845138     0.000035025536     0.001396987137
       3       -0.000596524257     0.000783934928     0.001462993520
       4       -0.001028013530    -0.000067768806    -0.001436519622
       5        0.000001029642    -0.000056335574     0.000060570157
       6        0.000229737150    -0.000706331202    -0.001436678733
       7       -0.000004145560    -0.000002354830     0.000027018756
       8        0.000031273940     0.000024386325    -0.000036620486
       9       -0.000006058928     0.000001264868    -0.000024724497
      10        0.000009386400     0.000006736239    -0.000004489322
      11       -0.000021095049     0.000007298441    -0.000014331835
      12        0.000007769920    -0.000006350677    -0.000008207427
      13        0.000002853547    -0.000003093320    -0.000003164461
      14       -0.000002770528    -0.000000539865     0.000006745395

  **** Optimization is complete! (in 5 steps) ****
    Final optimized geometry and variables:
    Molecular point group: c1

    Geometry (in Angstrom), charge = 0, multiplicity = 1:

    H           -2.001523499007    -0.610518184870     1.352661488930
    N           -1.074277797232    -0.500623093457     1.710683430358
    C           -0.475789406405     0.724840404419     1.190436385099
    H           -0.568515686813    -1.302646688697     1.388620222442
    C            0.597016307333     0.485688439070     0.142971141001
    H           -1.243952744793     1.347477206463     0.744321850436
    H           -0.030661588103     1.291984367218     2.003740408238
    O            0.027374956172    -0.163040874493    -0.954328864470
    H            1.034984371804     1.436296790286    -0.160919769058
    H            1.400407178972    -0.122915464532     0.561890304819
    C            0.923216196259    -0.447073664601    -1.981642672167
    H            0.373318611515    -0.947720439550    -2.766718577523
    H            1.366455797214     0.460851161985    -2.386207898064
    H            1.725414111391    -1.099729164056    -1.641906360348

  Mulliken Charges: (a.u.)
   Center  Symbol    Alpha    Beta     Spin     Total
       1     H     0.32917  0.32917  0.00000  0.34167
       2     N     3.92575  3.92575  0.00000 -0.85150
       3     C     3.05800  3.05800  0.00000 -0.11599
       4     H     0.32920  0.32920  0.00000  0.34160
       5     C     3.00725  3.00725  0.00000 -0.01450
       6     H     0.41775  0.41775  0.00000  0.16451
       7     H     0.41978  0.41978  0.00000  0.16044
       8     O     4.30490  4.30490  0.00000 -0.60981
       9     H     0.42829  0.42829  0.00000  0.14343
      10     H     0.43059  0.43059  0.00000  0.13882
      11     C     3.07997  3.07997  0.00000 -0.15994
      12     H     0.41127  0.41127  0.00000  0.17745
      13     H     0.42865  0.42865  0.00000  0.14270
      14     H     0.42944  0.42944  0.00000  0.14112

   Total alpha = 21.00000, Total beta = 21.00000, Total charge =  0.00000
