  ==> Input File <==

--------------------------------------------------------------------------
set {
	reference rhf
	basis 6-31G*
}

set_num_threads( 4 )
memory 2 gb

molecule MOL {
0 1

O	 2.862325	 1.357334	 0.000267
C	 2.843464	 0.164689	 -0.000222
C	 1.546494	 -0.624492	 -0.000609
C	 4.124123	 -0.644674	 -0.000428
C	 0.291004	 0.242674	 0.000989
H	 1.557904	 -1.283758	 -0.867573
H	 1.558622	 -1.285963	 0.864672
C	 -0.994322	 -0.586602	 0.000262
H	 0.309117	 0.896430	 -0.865270
H	 0.309661	 0.894078	 0.869017
C	 -2.259874	 0.272531	 0.000494
H	 -1.004862	 -1.240012	 -0.870939
H	 -1.005220	 -1.241071	 0.870675
C	 -3.520014	 -0.505787	 -0.381975
H	 -2.129145	 1.105230	 -0.688375
H	 -2.395224	 0.712793	 0.986824
C	 -4.779957	 0.359211	 -0.379719
H	 -3.386373	 -0.945353	 -1.368253
H	 -3.652592	 -1.337542	 0.306840
H	 -4.692168	 1.181424	 -1.084283
H	 -5.655864	 -0.220108	 -0.655179
H	 -4.960941	 0.785528	 0.602952
H	 4.165367	 -1.288615	 -0.874074
H	 4.976217	 0.020734	 -0.001915
H	 4.166763	 -1.286207	 0.874930

	symmetry c1
}
set optking {
	frozen_dihedral = ("
		15 11 8 12
	")
}

ee = optimize('scf')
oeprop('DIPOLE', 'QUADRUPOLE', 'MULLIKEN_CHARGES')
f=open( 'psi4out.xyz', 'w' )
f.write( "25  " )
f.write( str(ee) + "\n" )
f.write( MOL.save_string_xyz() )
f.close()
--------------------------------------------------------------------------

    Molecular point group: c1
  Charge       = 0
  Multiplicity = 1
  Basis Set: 6-31G*
  Basis Set:
  @DF-RHF Final Energy:  -387.13564863112811
    Total Energy =                       -387.1356486311283334
    Molecular point group: c1
  Basis Set: 6-31G*
  Basis Set:
  Basis Set: 6-31G*
  Basis Set:
  @DF-RHF Final Energy:  -387.13571767116184
    Total Energy =                       -387.1357176711618422
  Basis Set: 6-31G*
  Basis Set:
  Basis Set: 6-31G*
  Basis Set:
  @DF-RHF Final Energy:  -387.13577820025984
    Total Energy =                       -387.1357782002596650
  Basis Set: 6-31G*
  Basis Set:
  Basis Set: 6-31G*
  Basis Set:
  @DF-RHF Final Energy:  -387.13553686713402
    Total Energy =                       -387.1355368671333963
  Basis Set: 6-31G*
  Basis Set:
  Basis Set: 6-31G*
  Basis Set:
  @DF-RHF Final Energy:  -387.13577980336487
    Total Energy =                       -387.1357798033649260
  Basis Set: 6-31G*
  Basis Set:
  Basis Set: 6-31G*
  Basis Set:
  @DF-RHF Final Energy:  -387.13578744359359
    Total Energy =                       -387.1357874435936992
  Basis Set: 6-31G*
  Basis Set:
  Charge       = 0
  Multiplicity = 1
  Basis Set: 6-31G*
  Basis Set:

    Orbital Energies (a.u.)
    -----------------------

    Doubly Occupied:

       1A    -20.550528     2A    -11.326370     3A    -11.231943
       4A    -11.228388     5A    -11.217225     6A    -11.216549
       7A    -11.215612     8A    -11.213412     9A    -11.208352
      10A     -1.395835    11A     -1.093435    12A     -1.056377
      13A     -1.014564    14A     -0.969175    15A     -0.890864
      16A     -0.814622    17A     -0.791164    18A     -0.730043
      19A     -0.660137    20A     -0.652061    21A     -0.631875
      22A     -0.623867    23A     -0.596325    24A     -0.584325
      25A     -0.566573    26A     -0.559946    27A     -0.540028
      28A     -0.526945    29A     -0.512150    30A     -0.490187
      31A     -0.487647    32A     -0.473726    33A     -0.464400
      34A     -0.459974    35A     -0.451260    36A     -0.399514

  @DF-RHF Final Energy:  -387.13578765635202

   => Energetics <=

    Nuclear Repulsion Energy =            438.3230110290868424
    One-Electron Energy =               -1393.2268021582506208
    Two-Electron Energy =                 567.7680034728118699
    DFT Exchange-Correlation Energy =       0.0000000000000000
    Empirical Dispersion Energy =           0.0000000000000000
    PCM Polarization Energy =               0.0000000000000000
    EFP Energy =                            0.0000000000000000
    Total Energy =                       -387.1357876563519085
    Molecular point group: c1
  Basis Set: 6-31G*
  Basis Set:

  -Total Gradient:
     Atom            X                  Y                   Z
    ------   -----------------  -----------------  -----------------
       1       -0.000000542710     0.000000237705     0.000004077249
       2        0.000001323632    -0.000002316272    -0.000017083071
       3       -0.000001745151    -0.000001717447     0.000002355365
       4       -0.000000151949     0.000000194033     0.000006134831
       5       -0.000005444671     0.000004392744     0.000033278636
       6        0.000003761451    -0.000000513645     0.000001547619
       7       -0.000003263429     0.000002017119     0.000001041451
       8        0.001818865129     0.002743786652    -0.001337048485
       9        0.000009478236    -0.000010104450    -0.000007001650
      10       -0.000006867059     0.000008299956    -0.000009640298
      11       -0.001584846557    -0.002321298944    -0.002153778814
      12       -0.001285919977    -0.001912531414     0.001438002729
      13        0.000003713159    -0.000001433813     0.000002166195
      14        0.000000533188    -0.000016789273     0.000052912609
      15        0.001054079432     0.001504842752     0.002008841130
      16       -0.000002983262    -0.000002439706     0.000002339917
      17        0.000004697727     0.000008625675    -0.000035470568
      18       -0.000015105869     0.000004380700     0.000006104606
      19        0.000012193115    -0.000006881280     0.000004293241
      20       -0.000001198946     0.000013369274     0.000010851266
      21        0.000000090726     0.000004196844    -0.000014135114
      22        0.000000405090    -0.000018798228     0.000001665707
      23       -0.000000690982     0.000000542840    -0.000000894026
      24       -0.000000848659     0.000000695362     0.000000008331
      25        0.000000468333    -0.000000757188    -0.000000568857

  **** Optimization is complete! (in 7 steps) ****
    Final optimized geometry and variables:
    Molecular point group: c1

    Geometry (in Angstrom), charge = 0, multiplicity = 1:

    O            2.862229981318     1.344906830562     0.080102934482
    C            2.840702960960     0.152490129383     0.100818089826
    C            1.542226749253    -0.634079884475     0.086935744839
    C            4.119188653015    -0.659176918701     0.142890639025
    C            0.289200052978     0.235524601814     0.046698609400
    H            1.570081686763    -1.308297691634    -0.768124158181
    H            1.534551989887    -1.280375153889     0.963580720429
    C           -0.997233837679    -0.589825765347     0.024136408875
    H            0.329821399776     0.878278893482    -0.826790193143
    H            0.287360598666     0.897932962279     0.906817285198
    C           -2.266017744072     0.267848437136     0.042100189702
    H           -1.010092952550    -1.241950930820    -0.848126611388
    H           -1.014404775083    -1.258382784086     0.884071944233
    C           -3.535898450400    -0.512618229018    -0.297259030660
    H           -2.150568790503     1.106091600226    -0.642836496742
    H           -2.373664189258     0.714769490882     1.029233665877
    C           -4.800801972878     0.341627606058    -0.222343103173
    H           -3.442974954577    -0.932642349204    -1.296485526437
    H           -3.630628017537    -1.358332542862     0.381029183356
    H           -4.747057726784     1.181941256426    -0.908741522747
    H           -5.682852860829    -0.237722247316    -0.477311902971
    H           -4.945203986143     0.741569824345     0.777284020180
    H            4.177602559172    -1.319135519114    -0.717724620135
    H            4.972646952049     0.004453659590     0.147440554261
    H            4.141635171697    -1.284598634695     1.030578272786

  Mulliken Charges: (a.u.)
   Center  Symbol    Alpha    Beta     Spin     Total
       1     O     4.26116  4.26116  0.00000 -0.52233
       2     C     2.73570  2.73570  0.00000  0.52860
       3     C     3.21102  3.21102  0.00000 -0.42205
       4     C     3.28663  3.28663  0.00000 -0.57326
       5     C     3.14830  3.14830  0.00000 -0.29660
       6     H     0.40986  0.40986  0.00000  0.18028
       7     H     0.40994  0.40994  0.00000  0.18012
       8     C     3.15443  3.15443  0.00000 -0.30885
       9     H     0.41177  0.41177  0.00000  0.17646
      10     H     0.41214  0.41214  0.00000  0.17572
      11     C     3.15126  3.15126  0.00000 -0.30252
      12     H     0.42468  0.42468  0.00000  0.15064
      13     H     0.42476  0.42476  0.00000  0.15048
      14     C     3.15177  3.15177  0.00000 -0.30353
      15     H     0.42179  0.42179  0.00000  0.15641
      16     H     0.42271  0.42271  0.00000  0.15458
      17     C     3.23950  3.23950  0.00000 -0.47900
      18     H     0.42313  0.42313  0.00000  0.15374
      19     H     0.42352  0.42352  0.00000  0.15296
      20     H     0.42111  0.42111  0.00000  0.15778
      21     H     0.41951  0.41951  0.00000  0.16098
      22     H     0.42145  0.42145  0.00000  0.15710
      23     H     0.40873  0.40873  0.00000  0.18255
      24     H     0.39645  0.39645  0.00000  0.20710
      25     H     0.40868  0.40868  0.00000  0.18263

   Total alpha = 36.00000, Total beta = 36.00000, Total charge = -0.00000
