  ==> Input File <==

--------------------------------------------------------------------------
set {
	reference rhf
	basis 6-31G*
}

set_num_threads( 1 )
memory 2 gb

molecule MOL {
0 1

O	 -2.923604	 1.101063	 -0.637619
C	 -2.668563	 0.129746	 -0.000350
C	 -3.658295	 -0.571609	 0.893966
O	 -1.481751	 -0.454642	 0.000584
H	 -4.510289	 -0.876602	 0.298192
H	 -3.222917	 -1.432290	 1.379880
H	 -4.013546	 0.131112	 1.638184
C	 -0.334255	 0.388708	 0.000906
C	 0.891947	 -0.504646	 0.000751
H	 -0.365390	 1.025305	 -0.873475
H	 -0.365484	 1.024911	 0.875569
C	 2.191998	 0.301789	 0.000897
H	 0.855148	 -1.151283	 -0.871571
H	 0.855132	 -1.151660	 0.872805
C	 3.441114	 -0.581407	 0.000108
H	 2.215074	 0.954890	 -0.869742
H	 2.215465	 0.953923	 0.872248
C	 4.739576	 0.224112	 -0.001102
H	 3.419457	 -1.233487	 -0.870178
H	 3.420834	 -1.233096	 0.870717
H	 4.804918	 0.861552	 -0.878265
H	 5.606527	 -0.429058	 -0.001824
H	 4.806469	 0.861674	 0.875853

	symmetry c1
}
set optking {
	frozen_dihedral = ("
		13 9 8 10,
		2 4 8 10,
		16 12 9 13,
		19 15 12 16
	")
}

ee = energy('scf')
oeprop('DIPOLE', 'QUADRUPOLE', 'MULLIKEN_CHARGES')
f=open( 'psi4out.xyz', 'w' )
f.write( "23  " )
f.write( str(ee) + "\n" )
f.write( MOL.save_string_xyz() )
f.close()
--------------------------------------------------------------------------

    Molecular point group: c1

    Geometry (in Angstrom), charge = 0, multiplicity = 1:

       Center              X                  Y                   Z               Mass
    ------------   -----------------  -----------------  -----------------  -----------------
           O         -2.928395762660     1.091282790063    -0.667574185846    15.994914619560
           C         -2.673354762660     0.119965790063    -0.030305185846    12.000000000000
           C         -3.663086762660    -0.581389209937     0.864010814154    12.000000000000
           O         -1.486542762660    -0.464422209937    -0.029371185846    15.994914619560
           H         -4.515080762660    -0.886382209937     0.268236814154     1.007825032070
           H         -3.227708762660    -1.442070209937     1.349924814154     1.007825032070
           H         -4.018337762660     0.121331790063     1.608228814154     1.007825032070
           C         -0.339046762660     0.378927790063    -0.029049185846    12.000000000000
           C          0.887155237340    -0.514426209937    -0.029204185846    12.000000000000
           H         -0.370181762660     1.015524790063    -0.903430185846     1.007825032070
           H         -0.370275762660     1.015130790063     0.845613814154     1.007825032070
           C          2.187206237340     0.292008790063    -0.029058185846    12.000000000000
           H          0.850356237340    -1.161063209937    -0.901526185846     1.007825032070
           H          0.850340237340    -1.161440209937     0.842849814154     1.007825032070
           C          3.436322237340    -0.591187209937    -0.029847185846    12.000000000000
           H          2.210282237340     0.945109790063    -0.899697185846     1.007825032070
           H          2.210673237340     0.944142790063     0.842292814154     1.007825032070
           C          4.734784237340     0.214331790063    -0.031057185846    12.000000000000
           H          3.414665237340    -1.243267209937    -0.900133185846     1.007825032070
           H          3.416042237340    -1.242876209937     0.840761814154     1.007825032070
           H          4.800126237340     0.851771790063    -0.908220185846     1.007825032070
           H          5.601735237340    -0.438838209937    -0.031779185846     1.007825032070
           H          4.801677237340     0.851893790063     0.845897814154     1.007825032070

  Charge       = 0
  Multiplicity = 1
  Basis Set: 6-31G*
  Basis Set:

    Orbital Energies (a.u.)
    -----------------------

    Doubly Occupied:

       1A    -20.594221     2A    -20.543727     3A    -11.374483
       4A    -11.285536     5A    -11.231837     6A    -11.225565
       7A    -11.224865     8A    -11.222403     9A    -11.213563
      10A     -1.465239    11A     -1.361408    12A     -1.094906
      13A     -1.041209    14A     -1.004072    15A     -0.932619
      16A     -0.842618    17A     -0.803881    18A     -0.774903
      19A     -0.696059    20A     -0.682506    21A     -0.662782
      22A     -0.647621    23A     -0.609868    24A     -0.589217
      25A     -0.583038    26A     -0.570065    27A     -0.556400
      28A     -0.545619    29A     -0.516413    30A     -0.504336
      31A     -0.491922    32A     -0.478640    33A     -0.472171
      34A     -0.468263    35A     -0.448628    36A     -0.432969

  @DF-RHF Final Energy:  -422.97042034971378

   => Energetics <=

    Nuclear Repulsion Energy =            449.4778399823406971
    One-Electron Energy =               -1466.5094201994536434
    Two-Electron Energy =                 594.0611598673978051
    DFT Exchange-Correlation Energy =       0.0000000000000000
    Empirical Dispersion Energy =           0.0000000000000000
    PCM Polarization Energy =               0.0000000000000000
    EFP Energy =                            0.0000000000000000
    Total Energy =                       -422.9704203497151411

  Mulliken Charges: (a.u.)
   Center  Symbol    Alpha    Beta     Spin     Total
       1     O     4.27541  4.27541  0.00000 -0.55083
       2     C     2.61571  2.61571  0.00000  0.76858
       3     C     3.29093  3.29093  0.00000 -0.58185
       4     O     4.31559  4.31559  0.00000 -0.63119
       5     H     0.39724  0.39724  0.00000  0.20552
       6     H     0.40032  0.40032  0.00000  0.19936
       7     H     0.39785  0.39785  0.00000  0.20431
       8     C     2.99731  2.99731  0.00000  0.00538
       9     C     3.16463  3.16463  0.00000 -0.32926
      10     H     0.40445  0.40445  0.00000  0.19110
      11     H     0.41871  0.41871  0.00000  0.16258
      12     C     3.16047  3.16047  0.00000 -0.32093
      13     H     0.41148  0.41148  0.00000  0.17703
      14     H     0.41483  0.41483  0.00000  0.17034
      15     C     3.15152  3.15152  0.00000 -0.30304
      16     H     0.41990  0.41990  0.00000  0.16020
      17     H     0.42194  0.42194  0.00000  0.15611
      18     C     3.23990  3.23990  0.00000 -0.47980
      19     H     0.42076  0.42076  0.00000  0.15848
      20     H     0.42153  0.42153  0.00000  0.15693
      21     H     0.42055  0.42055  0.00000  0.15890
      22     H     0.41780  0.41780  0.00000  0.16440
      23     H     0.42117  0.42117  0.00000  0.15766

   Total alpha = 36.00000, Total beta = 36.00000, Total charge =  0.00000
