  ==> Input File <==

--------------------------------------------------------------------------
set {
	reference rhf
	basis 6-31G*
}

set_num_threads( 4 )
memory 2 gb

molecule MOL {
0 1

O	 3.630739	 0.955172	 1.206909
C	 2.917432	 0.049223	 0.917933
C	 1.433638	 -0.023039	 1.186117
O	 3.347903	 -1.046386	 0.304773
C	 0.888193	 1.222860	 1.880625
H	 0.946515	 -0.204009	 0.233672
H	 1.256428	 -0.913408	 1.784061
C	 -0.594660	 1.121962	 2.254071
H	 1.049171	 2.087734	 1.244074
H	 1.469441	 1.400269	 2.779011
C	 -1.556703	 1.055577	 1.064459
H	 -0.849421	 1.989187	 2.858837
H	 -0.749456	 0.253393	 2.892535
C	 -3.027157	 1.067039	 1.487107
H	 -1.366232	 1.899310	 0.402904
H	 -1.366822	 0.159085	 0.478610
C	 -3.997652	 0.995775	 0.306771
H	 -3.228882	 1.968537	 2.063166
H	 -3.215763	 0.229736	 2.157219
C	 -5.464007	 1.011564	 0.737184
H	 -3.809886	 1.831201	 -0.364384
H	 -3.800445	 0.093110	 -0.267760
H	 -6.126877	 0.959934	 -0.121037
H	 -5.702088	 1.919150	 1.284724
H	 -5.692313	 0.167987	 1.382574
C	 4.728119	 -1.109107	 -0.004993
H	 4.882018	 -1.033965	 -1.071845
H	 5.068212	 -2.067527	 0.355250
H	 5.265056	 -0.311663	 0.488280

	symmetry c1
}
set optking {
	frozen_dihedral = ("
		2 4 26 27
	")
}

ee = optimize('scf')
oeprop('DIPOLE', 'QUADRUPOLE', 'MULLIKEN_CHARGES')
f=open( 'psi4out.xyz', 'w' )
f.write( "29  " )
f.write( str(ee) + "\n" )
f.write( MOL.save_string_xyz() )
f.close()
--------------------------------------------------------------------------

    Molecular point group: c1
  Charge       = 0
  Multiplicity = 1
  Basis Set: 6-31G*
  Basis Set:
  @DF-RHF Final Energy:  -501.04134211806502
    Total Energy =                       -501.0413421180642217
    Molecular point group: c1
  Basis Set: 6-31G*
  Basis Set:
  Basis Set: 6-31G*
  Basis Set:
  @DF-RHF Final Energy:  -501.04163059184907
    Total Energy =                       -501.0416305918494118
  Basis Set: 6-31G*
  Basis Set:
  Basis Set: 6-31G*
  Basis Set:
  @DF-RHF Final Energy:  -501.04211343511054
    Total Energy =                       -501.0421134351101955
  Basis Set: 6-31G*
  Basis Set:
  Basis Set: 6-31G*
  Basis Set:
  @DF-RHF Final Energy:  -501.04211477160925
    Total Energy =                       -501.0421147716098176
  Basis Set: 6-31G*
  Basis Set:
  Basis Set: 6-31G*
  Basis Set:
  @DF-RHF Final Energy:  -501.04210438761970
    Total Energy =                       -501.0421043876192471
  Basis Set: 6-31G*
  Basis Set:
  Charge       = 0
  Multiplicity = 1
  Basis Set: 6-31G*
  Basis Set:

    Orbital Energies (a.u.)
    -----------------------

    Doubly Occupied:

       1A    -20.602359     2A    -20.544484     3A    -11.373397
       4A    -11.279227     5A    -11.234105     6A    -11.218568
       7A    -11.217300     8A    -11.215767     9A    -11.215652
      10A    -11.214256    11A    -11.208941    12A     -1.466348
      13A     -1.363005    14A     -1.097705    15A     -1.066511
      16A     -1.019563    17A     -0.977803    18A     -0.928434
      19A     -0.861265    20A     -0.798916    21A     -0.790175
      22A     -0.762861    23A     -0.701667    24A     -0.680050
      25A     -0.672110    26A     -0.650700    27A     -0.628721
      28A     -0.605027    29A     -0.594733    30A     -0.580612
      31A     -0.568353    32A     -0.550012    33A     -0.533639
      34A     -0.527523    35A     -0.514616    36A     -0.511767
      37A     -0.496151    38A     -0.477554    39A     -0.469890
      40A     -0.462099    41A     -0.458304    42A     -0.452443
      43A     -0.440767    44A     -0.435415

  @DF-RHF Final Energy:  -501.04212067904200

   => Energetics <=

    Nuclear Repulsion Energy =            609.7139213470047707
    One-Electron Energy =               -1890.5744932367551883
    Two-Electron Energy =                 779.8184512107087585
    DFT Exchange-Correlation Energy =       0.0000000000000000
    Empirical Dispersion Energy =           0.0000000000000000
    PCM Polarization Energy =               0.0000000000000000
    EFP Energy =                            0.0000000000000000
    Total Energy =                       -501.0421206790416591
    Molecular point group: c1
  Basis Set: 6-31G*
  Basis Set:

  -Total Gradient:
     Atom            X                  Y                   Z
    ------   -----------------  -----------------  -----------------
       1       -0.000006095755    -0.000043004360     0.000013862022
       2        0.000123396726    -0.000234840620     0.000564428522
       3        0.000004002337    -0.000021740201     0.000015213993
       4       -0.000185037976     0.000219575727    -0.000915048298
       5        0.000001758323    -0.000000709936     0.000000785449
       6        0.000015497460     0.000003341014    -0.000000370646
       7       -0.000002422401     0.000000854544     0.000002039497
       8       -0.000001158796     0.000002871931     0.000002491165
       9        0.000000091838    -0.000001114011    -0.000000303937
      10        0.000000669742     0.000002050896     0.000003087752
      11        0.000000720767    -0.000000988301    -0.000000162190
      12       -0.000002694984     0.000000280785     0.000000254027
      13        0.000000536140     0.000000499061    -0.000000142125
      14        0.000000122645     0.000000255036     0.000000516874
      15       -0.000000054878    -0.000000348512     0.000000561410
      16       -0.000000822686    -0.000000082054    -0.000000803544
      17        0.000000090835     0.000000725802    -0.000000282293
      18        0.000000286570     0.000000202110    -0.000000165635
      19       -0.000000251563     0.000000272989     0.000000149566
      20        0.000000085397    -0.000000865020     0.000000118125
      21       -0.000000174188     0.000000246652     0.000000181153
      22        0.000000147051     0.000000213817    -0.000000205793
      23        0.000000055063    -0.000000277379     0.000000026343
      24        0.000000180491     0.000000030248    -0.000000275263
      25       -0.000000185645     0.000000013608     0.000000250066
      26        0.000111907301     0.000842814003     0.000369539312
      27       -0.000077075794    -0.000787373510    -0.000059345350
      28        0.000004846168     0.000008739177    -0.000000259695
      29        0.000011579791     0.000008356504     0.000003859492

  **** Optimization is complete! (in 6 steps) ****
    Final optimized geometry and variables:
    Molecular point group: c1

    Geometry (in Angstrom), charge = 0, multiplicity = 1:

    O            3.376628933846     0.518368056083     0.203579052258
    C            2.674370383883    -0.393408872175    -0.092694414025
    C            1.190098938432    -0.474869266555     0.172464070073
    O            3.100794905083    -1.489812649081    -0.709881356132
    C            0.635514881325     0.764766236985     0.870772952630
    H            0.706401822139    -0.654744859833    -0.781882676414
    H            1.016798402482    -1.368837711498     0.766069285905
    C           -0.847776358989     0.653393884839     1.239578766556
    H            0.793081737381     1.633363181706     0.238477081347
    H            1.213076416614     0.941735930290     1.771602527511
    C           -1.806142087595     0.586837260142     0.046993342710
    H           -1.109414021470     1.516301661934     1.847595733038
    H           -0.999272625729    -0.219015807520     1.873599437536
    C           -3.277811845320     0.587958471024     0.465565473323
    H           -1.618698928540     1.434625122431    -0.610222829140
    H           -1.609487300832    -0.305884301071    -0.542350538851
    C           -4.244615428364     0.516102641885    -0.717753778450
    H           -3.486384690307     1.485789188621     1.044902201610
    H           -3.463394894494    -0.253283270007     1.131575774743
    C           -5.712223071748     0.520869765120    -0.291348061645
    H           -4.060183513088     1.355720038755    -1.384587862431
    H           -4.040256378715    -0.382696165238    -1.295835001118
    H           -6.372404932838     0.468890485256    -1.151626127882
    H           -5.957458225549     1.424534841513     0.259508441613
    H           -5.937034658382    -0.326941333358     0.349708045293
    C            4.475539920161    -1.614780935402    -1.032103017953
    H            4.586265187335    -1.542543966238    -2.105546669049
    H            4.792360123892    -2.595017636890    -0.706056335314
    H            5.057028152806    -0.850039666686    -0.545618982508

  Mulliken Charges: (a.u.)
   Center  Symbol    Alpha    Beta     Spin     Total
       1     O     4.28543  4.28543  0.00000 -0.57086
       2     C     2.60447  2.60447  0.00000  0.79105
       3     C     3.21020  3.21020  0.00000 -0.42041
       4     O     4.30951  4.30951  0.00000 -0.61902
       5     C     3.15375  3.15375  0.00000 -0.30750
       6     H     0.39884  0.39884  0.00000  0.20232
       7     H     0.40143  0.40143  0.00000  0.19714
       8     C     3.15659  3.15659  0.00000 -0.31317
       9     H     0.41314  0.41314  0.00000  0.17372
      10     H     0.40887  0.40887  0.00000  0.18227
      11     C     3.15503  3.15503  0.00000 -0.31007
      12     H     0.41832  0.41832  0.00000  0.16335
      13     H     0.42394  0.42394  0.00000  0.15212
      14     C     3.15028  3.15028  0.00000 -0.30056
      15     H     0.42263  0.42263  0.00000  0.15473
      16     H     0.42360  0.42360  0.00000  0.15280
      17     C     3.15145  3.15145  0.00000 -0.30289
      18     H     0.42335  0.42335  0.00000  0.15331
      19     H     0.42400  0.42400  0.00000  0.15199
      20     C     3.23934  3.23934  0.00000 -0.47868
      21     H     0.42281  0.42281  0.00000  0.15438
      22     H     0.42344  0.42344  0.00000  0.15311
      23     H     0.41926  0.41926  0.00000  0.16149
      24     H     0.42156  0.42156  0.00000  0.15689
      25     H     0.42184  0.42184  0.00000  0.15631
      26     C     3.09819  3.09819  0.00000 -0.19639
      27     H     0.41305  0.41305  0.00000  0.17390
      28     H     0.41154  0.41154  0.00000  0.17692
      29     H     0.39413  0.39413  0.00000  0.21174

   Total alpha = 44.00000, Total beta = 44.00000, Total charge = -0.00000
