  ==> Input File <==

--------------------------------------------------------------------------
set {
	reference rhf
	basis 6-31G*
}

set_num_threads( 4 )
memory 2 gb

molecule MOL {
0 1

H	 3.695475	 0.682963	 -1.275409
N	 2.912131	 0.059041	 -1.250149
C	 1.777844	 0.681672	 -0.582881
H	 3.208616	 -0.757592	 -0.750110
C	 0.558143	 -0.232476	 -0.632044
H	 1.554308	 1.606190	 -1.106482
H	 1.986312	 0.952402	 0.455216
C	 -0.679275	 0.379305	 0.025956
H	 0.351065	 -0.472453	 -1.670969
H	 0.799356	 -1.174379	 -0.140138
C	 -1.903357	 -0.536963	 -0.023547
H	 -0.919110	 1.322161	 -0.463279
H	 -0.457320	 0.623039	 1.063827
C	 -3.225172	 0.228290	 0.028445
H	 -1.867824	 -1.134999	 -0.931459
H	 -1.860449	 -1.239604	 0.805977
H	 -3.313397	 0.915643	 -0.808262
H	 -4.073500	 -0.448134	 -0.008893
H	 -3.306061	 0.809945	 0.942516

	symmetry c1
}
set optking {
	frozen_dihedral = ("
		12 8 11 15
	")
}

ee = optimize('scf')
oeprop('DIPOLE', 'QUADRUPOLE', 'MULLIKEN_CHARGES')
f=open( 'psi4out.xyz', 'w' )
f.write( "19  " )
f.write( str(ee) + "\n" )
f.write( MOL.save_string_xyz() )
f.close()
--------------------------------------------------------------------------

    Molecular point group: c1
  Charge       = 0
  Multiplicity = 1
  Basis Set: 6-31G*
  Basis Set:
  @DF-RHF Final Energy:  -251.34945813281300
    Total Energy =                       -251.3494581328130835
    Molecular point group: c1
  Basis Set: 6-31G*
  Basis Set:
  Basis Set: 6-31G*
  Basis Set:
  @DF-RHF Final Energy:  -251.34969194689160
    Total Energy =                       -251.3496919468918804
  Basis Set: 6-31G*
  Basis Set:
  Basis Set: 6-31G*
  Basis Set:
  @DF-RHF Final Energy:  -251.34974903116242
    Total Energy =                       -251.3497490311623324
  Basis Set: 6-31G*
  Basis Set:
  Basis Set: 6-31G*
  Basis Set:
  @DF-RHF Final Energy:  -251.34975007488029
    Total Energy =                       -251.3497500748801485
  Basis Set: 6-31G*
  Basis Set:
  Charge       = 0
  Multiplicity = 1
  Basis Set: 6-31G*
  Basis Set:

    Orbital Energies (a.u.)
    -----------------------

    Doubly Occupied:

       1A    -15.532557     2A    -11.239768     3A    -11.213767
       4A    -11.212523     5A    -11.209872     6A    -11.207792
       7A     -1.176667     8A     -1.071974     9A     -0.998560
      10A     -0.900228    11A     -0.813711    12A     -0.789785
      13A     -0.664984    14A     -0.638200    15A     -0.616309
      16A     -0.589731    17A     -0.568606    18A     -0.542736
      19A     -0.533296    20A     -0.497009    21A     -0.483734
      22A     -0.465946    23A     -0.456469    24A     -0.449642
      25A     -0.381044

  @DF-RHF Final Energy:  -251.34975035393515

   => Energetics <=

    Nuclear Repulsion Energy =            245.5964230044607746
    One-Electron Energy =                -825.3825262517203782
    Two-Electron Energy =                 328.4363528933243970
    DFT Exchange-Correlation Energy =       0.0000000000000000
    Empirical Dispersion Energy =           0.0000000000000000
    PCM Polarization Energy =               0.0000000000000000
    EFP Energy =                            0.0000000000000000
    Total Energy =                       -251.3497503539351783
    Molecular point group: c1
  Basis Set: 6-31G*
  Basis Set:

  -Total Gradient:
     Atom            X                  Y                   Z
    ------   -----------------  -----------------  -----------------
       1        0.000000598312     0.000000164398     0.000000402029
       2        0.000004746221     0.000007491184    -0.000005584010
       3        0.000011246881    -0.000014754858     0.000021022128
       4       -0.000005676878     0.000001576166     0.000001546850
       5       -0.000000459331     0.000003351483     0.000013614053
       6        0.000004128770    -0.000011275202    -0.000010549651
       7       -0.000005694077     0.000010906472     0.000000567097
       8        0.002024701633    -0.002614110458    -0.003934707345
       9       -0.000014470083     0.000014685239     0.000005033215
      10        0.000004205034    -0.000003473971    -0.000011318559
      11       -0.002929090898     0.003923666165    -0.001616891751
      12       -0.001235636920     0.001551335258     0.003542817798
      13        0.000019257355    -0.000001782662     0.000003858355
      14       -0.000003486652    -0.000014266921     0.000006303729
      15        0.002131990966    -0.002853944509     0.001966551698
      16       -0.000010081089     0.000005001834     0.000014128939
      17        0.000009378057    -0.000009642976     0.000005385323
      18       -0.000005462907     0.000004699446    -0.000002578742
      19       -0.000000194395     0.000000373909     0.000000398843

  **** Optimization is complete! (in 5 steps) ****
    Final optimized geometry and variables:
    Molecular point group: c1

    Geometry (in Angstrom), charge = 0, multiplicity = 1:

    H            3.780522101803     0.561342513619    -0.804571404381
    N            2.989171402060    -0.052895158626    -0.806033101978
    C            1.847101963546     0.575424017474    -0.157568698902
    H            3.263562444217    -0.879569161670    -0.309852892067
    C            0.617633341189    -0.321933645941    -0.248622731970
    H            1.647563973725     1.509698777865    -0.673650215802
    H            2.033875633539     0.829427402777     0.888747411662
    C           -0.629273120209     0.297971934219     0.379888244486
    H            0.435040567053    -0.549931903925    -1.294608375377
    H            0.832359211353    -1.271743424731     0.241001357860
    C           -1.851780174148    -0.630328071630     0.362253010739
    H           -0.874518334568     1.237031479838    -0.113714142844
    H           -0.415658832815     0.571662039891     1.412324361643
    C           -3.180958770441     0.111970183478     0.477261546649
    H           -1.836134424521    -1.242550903549    -0.536661021901
    H           -1.765349011189    -1.337317188190     1.185054344422
    H           -3.331719871819     0.777590752507    -0.367760966961
    H           -4.017654718409    -0.579061856524     0.509090350862
    H           -3.215056574236     0.714196704507     1.381138961488

  Mulliken Charges: (a.u.)
   Center  Symbol    Alpha    Beta     Spin     Total
       1     H     0.33245  0.33245  0.00000  0.33509
       2     N     3.92189  3.92189  0.00000 -0.84379
       3     C     3.06052  3.06052  0.00000 -0.12105
       4     H     0.33536  0.33536  0.00000  0.32927
       5     C     3.15225  3.15225  0.00000 -0.30451
       6     H     0.42072  0.42072  0.00000  0.15857
       7     H     0.43465  0.43465  0.00000  0.13070
       8     C     3.15647  3.15647  0.00000 -0.31294
       9     H     0.41262  0.41262  0.00000  0.17477
      10     H     0.42746  0.42746  0.00000  0.14508
      11     C     3.15200  3.15200  0.00000 -0.30400
      12     H     0.42286  0.42286  0.00000  0.15428
      13     H     0.42416  0.42416  0.00000  0.15168
      14     C     3.23961  3.23961  0.00000 -0.47921
      15     H     0.42120  0.42120  0.00000  0.15760
      16     H     0.42289  0.42289  0.00000  0.15422
      17     H     0.42118  0.42118  0.00000  0.15765
      18     H     0.41966  0.41966  0.00000  0.16068
      19     H     0.42205  0.42205  0.00000  0.15590

   Total alpha = 25.00000, Total beta = 25.00000, Total charge = -0.00000
