                              Psi4 1.0.54 Driver

  ==> Input File <==

--------------------------------------------------------------------------
set {
	reference rhf
	basis cc-pvtz
}

set_num_threads( 4 )
memory 2 gb

molecule MOL {
0 1

O	 0.606503	 1.327724	 -0.223881
C	 0.485107	 0.171416	 -0.000134
C	 1.606966	 -0.836201	 0.000174
O	 -0.673305	 -0.397548	 0.284378
C	 2.988788	 -0.202529	 -0.000115
H	 1.465110	 -1.474645	 -0.864821
H	 1.465209	 -1.474077	 0.865596
H	 3.131767	 0.419673	 -0.873407
H	 3.750876	 -0.972315	 0.000098
H	 3.131883	 0.420264	 0.872742
C	 -1.827192	 0.430384	 0.321257
C	 -3.011706	 -0.443409	 0.661701
H	 -1.949812	 0.908045	 -0.640591
H	 -1.681415	 1.206564	 1.059239
H	 -3.147158	 -1.217230	 -0.083433
H	 -3.911809	 0.158861	 0.698010
H	 -2.877286	 -0.916964	 1.626091

	symmetry c1
}
set optking {
	frozen_dihedral = ("
		4 2 3 6
	")
}

ee,wfn = optimize('scf', return_wfn=True)
oeprop( wfn, 'DIPOLE', 'QUADRUPOLE', 'MULLIKEN_CHARGES')
f=open( 'psi4out.xyz', 'w' )
f.write( "17  " )
f.write( str(ee) + "\n" )
f.write( MOL.save_string_xyz() )
f.close()
--------------------------------------------------------------------------

    Molecular point group: c1
  Charge       = 0
  Multiplicity = 1
  Basis Set: CC-PVTZ
  Basis Set:
  @DF-RHF Final Energy:  -345.04042076679292
    Total Energy =                       -345.0404207667926357
    Molecular point group: c1
  Basis Set: CC-PVTZ
  Basis Set:
  Basis Set: CC-PVTZ
  Basis Set:
  @DF-RHF Final Energy:  -345.04041030788318
    Total Energy =                       -345.0404103078828939
  Basis Set: CC-PVTZ
  Basis Set:
  Basis Set: CC-PVTZ
  Basis Set:
  @DF-RHF Final Energy:  -345.04034731365175
    Total Energy =                       -345.0403473136519779
  Basis Set: CC-PVTZ
  Basis Set:
  Basis Set: CC-PVTZ
  Basis Set:
  @DF-RHF Final Energy:  -345.04049052446464
    Total Energy =                       -345.0404905244645875
  Basis Set: CC-PVTZ
  Basis Set:
  Basis Set: CC-PVTZ
  Basis Set:
  @DF-RHF Final Energy:  -345.04049208903206
    Total Energy =                       -345.0404920890318863
  Basis Set: CC-PVTZ
  Basis Set:
  Charge       = 0
  Multiplicity = 1
  Basis Set: CC-PVTZ
  Basis Set:

    Orbital Energies (a.u.)
    -----------------------

    Doubly Occupied:

       1A    -20.593767     2A    -20.532581     3A    -11.363490
       4A    -11.282599     5A    -11.235794     6A    -11.220381
       7A    -11.214078     8A     -1.470607     9A     -1.364803
      10A     -1.070832    11A     -1.032630    12A     -0.911729
      13A     -0.847881    14A     -0.775090    15A     -0.697879
      16A     -0.692394    17A     -0.668023    18A     -0.630067
      19A     -0.584834    20A     -0.574356    21A     -0.558382
      22A     -0.524971    23A     -0.520905    24A     -0.514229
      25A     -0.505694    26A     -0.493733    27A     -0.456165
      28A     -0.439065

  @DF-RHF Final Energy:  -345.04049227609278

   => Energetics <=

    Nuclear Repulsion Energy =            315.2300559389586851
    One-Electron Energy =               -1094.9871766719534207
    Two-Electron Energy =                 434.7166284569018444
    DFT Exchange-Correlation Energy =       0.0000000000000000
    Empirical Dispersion Energy =           0.0000000000000000
    PCM Polarization Energy =               0.0000000000000000
    EFP Energy =                            0.0000000000000000
    Total Energy =                       -345.0404922760928912
    Molecular point group: c1
  Basis Set: CC-PVTZ
  Basis Set:

  -Total Gradient:
     Atom            X                  Y                   Z
    ------   -----------------  -----------------  -----------------
       1       -0.000001830650    -0.000081364368     0.000015560057
       2       -0.000070722942    -0.000025863662    -0.000806391341
       3       -0.000403743763    -0.000446947968     0.000626026256
       4        0.000136999726     0.000117040396     0.000493029585
       5        0.000014259254     0.000008890919    -0.000017697515
       6        0.000355564154     0.000418218215    -0.000342291107
       7        0.000001021305     0.000008587851    -0.000017335735
       8       -0.000003375141    -0.000012590710     0.000021669716
       9       -0.000022336412     0.000014897857     0.000004385899
      10       -0.000002372884    -0.000009918349    -0.000014490045
      11        0.000001743193     0.000038903208     0.000097057768
      12       -0.000008197564    -0.000011077101    -0.000024610750
      13        0.000011823600    -0.000013625169    -0.000005238407
      14       -0.000012385942    -0.000008593698    -0.000023304205
      15       -0.000008168553    -0.000001186660     0.000007120295
      16        0.000006248367    -0.000006848604    -0.000002450660
      17        0.000005474252     0.000011477840    -0.000011039809

  **** Optimization is complete! (in 6 steps) ****
    Final optimized geometry and variables:
    Molecular point group: c1

    Geometry (in Angstrom), charge = 0, multiplicity = 1:

    O            0.602586256534     1.314355755351    -0.350004865381
    C            0.475641645019     0.157490042239    -0.131990824463
    C            1.593437289934    -0.854851672459    -0.145914275434
    O           -0.686288353944    -0.407941425160     0.143972309988
    C            2.976888412197    -0.223584621579    -0.171523281679
    H            1.438412679025    -1.474231264991    -1.023972156376
    H            1.466174035461    -1.506385974691     0.709441240041
    H            3.097882731717     0.412053988527    -1.037571920886
    H            3.736944428736    -0.994694408868    -0.201405194244
    H            3.144469609963     0.384380822319     0.708234406535
    C           -1.840167140022     0.420863305871     0.157340386426
    C           -3.030042164084    -0.449674857488     0.487314706393
    H           -1.948415747730     0.890902960296    -0.810006600449
    H           -1.704501946358     1.202738883204     0.891074753640
    H           -3.154949093695    -1.229532657104    -0.253336356532
    H           -3.930238775510     0.153235070327     0.505468561315
    H           -2.910085802902    -0.915317151534     1.457428429947

  Mulliken Charges: (a.u.)
   Center  Symbol    Alpha    Beta     Spin     Total
       1     O     4.19742  4.19742  0.00000 -0.39485
       2     C     2.81010  2.81010  0.00000  0.37980
       3     C     3.09241  3.09241  0.00000 -0.18481
       4     O     4.15078  4.15078  0.00000 -0.30156
       5     C     3.14013  3.14013  0.00000 -0.28026
       6     H     0.44353  0.44353  0.00000  0.11295
       7     H     0.44014  0.44014  0.00000  0.11971
       8     H     0.44578  0.44578  0.00000  0.10844
       9     H     0.45052  0.45052  0.00000  0.09896
      10     H     0.45075  0.45075  0.00000  0.09850
      11     C     2.97993  2.97993  0.00000  0.04014
      12     C     3.13310  3.13310  0.00000 -0.26619
      13     H     0.45416  0.45416  0.00000  0.09168
      14     H     0.45398  0.45398  0.00000  0.09203
      15     H     0.45146  0.45146  0.00000  0.09707
      16     H     0.45443  0.45443  0.00000  0.09113
      17     H     0.45137  0.45137  0.00000  0.09726

   Total alpha = 28.00000, Total beta = 28.00000, Total charge = -0.00000

*** Psi4 exiting successfully. Buy a developer a beer!
