  ==> Input File <==

--------------------------------------------------------------------------
set {
	reference rhf
	basis 6-31G*
}

set_num_threads( 4 )
memory 2 gb

molecule MOL {
0 1

H	 -0.944757	 -0.000069	 1.678017
O	 -0.042387	 -0.000390	 1.388199
C	 -0.001487	 0.000018	 -0.026623
C	 1.454394	 -0.000499	 -0.496783
C	 -0.746703	 -1.224702	 -0.560812
C	 -0.704694	 1.286292	 -0.445457
H	 1.521061	 0.042018	 -1.579209
H	 1.965662	 -0.902994	 -0.169654
H	 1.982094	 0.852488	 -0.084518
H	 -0.767903	 -1.233227	 -1.645970
H	 -0.265353	 -2.143167	 -0.232702
H	 -1.767650	 -1.231566	 -0.195440
H	 -0.726625	 1.383356	 -1.526124
H	 -0.190588	 2.146233	 -0.031109
H	 -1.724170	 1.292958	 -0.076650

	symmetry c1
}
set optking {
	frozen_dihedral = ("
		4 3 2 1
	")
}

ee = optimize('scf')
oeprop('DIPOLE', 'QUADRUPOLE', 'MULLIKEN_CHARGES')
f=open( 'psi4out.xyz', 'w' )
f.write( "15  " )
f.write( str(ee) + "\n" )
f.write( MOL.save_string_xyz() )
f.close()
--------------------------------------------------------------------------

    Molecular point group: c1
  Charge       = 0
  Multiplicity = 1
  Basis Set: 6-31G*
  Basis Set:
  @DF-RHF Final Energy:  -232.15105767506515
    Total Energy =                       -232.1510576750650898
    Molecular point group: c1
  Basis Set: 6-31G*
  Basis Set:
  Basis Set: 6-31G*
  Basis Set:
  @DF-RHF Final Energy:  -232.15292552449574
    Total Energy =                       -232.1529255244955721
  Basis Set: 6-31G*
  Basis Set:
  Basis Set: 6-31G*
  Basis Set:
  @DF-RHF Final Energy:  -232.15335304791023
    Total Energy =                       -232.1533530479102865
  Basis Set: 6-31G*
  Basis Set:
  Basis Set: 6-31G*
  Basis Set:
  @DF-RHF Final Energy:  -232.15335425975320
    Total Energy =                       -232.1533542597532005
  Basis Set: 6-31G*
  Basis Set:
  Basis Set: 6-31G*
  Basis Set:
  @DF-RHF Final Energy:  -232.15336411720028
    Total Energy =                       -232.1533641172002262
  Basis Set: 6-31G*
  Basis Set:
  Charge       = 0
  Multiplicity = 1
  Basis Set: 6-31G*
  Basis Set:

    Orbital Energies (a.u.)
    -----------------------

    Doubly Occupied:

       1A    -20.549181     2A    -11.281806     3A    -11.211079
       4A    -11.211052     5A    -11.205231     6A     -1.360718
       7A     -1.063274     8A     -0.941326     9A     -0.939444
      10A     -0.775607    11A     -0.670222    12A     -0.622492
      13A     -0.621100    14A     -0.574695    15A     -0.556791
      16A     -0.531412    17A     -0.516807    18A     -0.508973
      19A     -0.503020    20A     -0.457272    21A     -0.425256

  @DF-RHF Final Energy:  -232.15336454127896

   => Energetics <=

    Nuclear Repulsion Energy =            200.3638990297343980
    One-Electron Energy =                -711.9810082263086315
    Two-Electron Energy =                 279.4637446552953293
    DFT Exchange-Correlation Energy =       0.0000000000000000
    Empirical Dispersion Energy =           0.0000000000000000
    PCM Polarization Energy =               0.0000000000000000
    EFP Energy =                            0.0000000000000000
    Total Energy =                       -232.1533645412789042
    Molecular point group: c1
  Basis Set: 6-31G*
  Basis Set:

  -Total Gradient:
     Atom            X                  Y                   Z
    ------   -----------------  -----------------  -----------------
       1        0.000009533184     0.000003705153     0.000001650496
       2       -0.000021609871     0.000024881681     0.000054749147
       3       -0.000013338071    -0.000016946924     0.000059474377
       4        0.000000560140     0.000029882202    -0.000065472939
       5       -0.000001147465     0.000009336785    -0.000027232012
       6        0.000026926024    -0.000018620562    -0.000002878165
       7        0.000014376186     0.000012970971     0.000003339910
       8       -0.000034091692    -0.000015783290    -0.000006406844
       9        0.000012236190    -0.000001012102     0.000011101079
      10       -0.000006262158    -0.000017408017    -0.000004896308
      11       -0.000000197034     0.000002291749    -0.000003694934
      12        0.000005748437     0.000004739664     0.000005972755
      13        0.000003351315     0.000017395287    -0.000027857175
      14       -0.000022118611    -0.000011038537     0.000003533415
      15        0.000026033425    -0.000024394062    -0.000001382802

  **** Optimization is complete! (in 6 steps) ****
    Final optimized geometry and variables:
    Molecular point group: c1

    Geometry (in Angstrom), charge = 0, multiplicity = 1:

    H           -0.840083345566    -0.052393820485     1.732281884205
    O            0.042724658435    -0.053610756555     1.387300954681
    C           -0.003101279888     0.001046945752    -0.026329113354
    C            1.454494429855    -0.005621912890    -0.473411047893
    C           -0.740841330394    -1.227180902271    -0.562864165097
    C           -0.699771873910     1.289926331641    -0.466685352552
    H            1.529793972055     0.037201939592    -1.555190045993
    H            1.948053795131    -0.906914083300    -0.127586194979
    H            1.978205724976     0.847031908262    -0.055988457395
    H           -0.759392518638    -1.235550154715    -1.648076035792
    H           -0.257708620129    -2.135015845003    -0.218807915244
    H           -1.771188178693    -1.241292047062    -0.214818900329
    H           -0.715474639763     1.382328424153    -1.548059754090
    H           -0.188700032262     2.152609137700    -0.053766260167
    H           -1.729932457222     1.310210423509    -0.118470996146

  Mulliken Charges: (a.u.)
   Center  Symbol    Alpha    Beta     Spin     Total
       1     H     0.28397  0.28397  0.00000  0.43205
       2     O     4.37572  4.37572  0.00000 -0.75143
       3     C     2.85369  2.85369  0.00000  0.29262
       4     C     3.23371  3.23371  0.00000 -0.46743
       5     C     3.24123  3.24123  0.00000 -0.48246
       6     C     3.24124  3.24124  0.00000 -0.48247
       7     H     0.42401  0.42401  0.00000  0.15198
       8     H     0.41340  0.41340  0.00000  0.17320
       9     H     0.41332  0.41332  0.00000  0.17336
      10     H     0.42096  0.42096  0.00000  0.15807
      11     H     0.41222  0.41222  0.00000  0.17557
      12     H     0.42668  0.42668  0.00000  0.14664
      13     H     0.42097  0.42097  0.00000  0.15806
      14     H     0.41220  0.41220  0.00000  0.17560
      15     H     0.42668  0.42668  0.00000  0.14663

   Total alpha = 21.00000, Total beta = 21.00000, Total charge = -0.00000
