  ==> Input File <==

--------------------------------------------------------------------------
set {
	reference rhf
	basis cc-pvtz
}

set_num_threads( 4 )
memory 2 gb

molecule MOL {
0 1

H	 -2.816458	 -0.841657	 -0.064679
N	 -1.878861	 -0.711874	 0.250184
C	 -1.341419	 0.551458	 -0.220231
H	 -1.333674	 -1.468530	 -0.105118
C	 -1.850095	 1.693174	 0.629699
H	 -0.252646	 0.584635	 -0.224088
H	 -1.675276	 0.712807	 -1.239327
O	 -1.354393	 1.545049	 1.925865
H	 -1.520385	 2.642260	 0.209342
H	 -2.937633	 1.684505	 0.640394
C	 -1.806854	 2.499103	 2.828241
H	 -1.358790	 2.287465	 3.788362
H	 -1.519868	 3.503106	 2.522770
H	 -2.888912	 2.467309	 2.931693

	symmetry c1
}
set optking {
	frozen_dihedral = ("
		6 3 2 4
	")
}

ee = optimize('scf')
oeprop('DIPOLE', 'QUADRUPOLE', 'MULLIKEN_CHARGES')
f=open( 'psi4out.xyz', 'w' )
f.write( "14  " )
f.write( str(ee) + "\n" )
f.write( MOL.save_string_xyz() )
f.close()
--------------------------------------------------------------------------

    Molecular point group: c1
  Charge       = 0
  Multiplicity = 1
  Basis Set: CC-PVTZ
  Basis Set:
  @DF-RHF Final Energy:  -248.21906011611077
    Total Energy =                       -248.2190601161107111
    Molecular point group: c1
  Basis Set: CC-PVTZ
  Basis Set:
  Basis Set: CC-PVTZ
  Basis Set:
  @DF-RHF Final Energy:  -248.22106079657544
    Total Energy =                       -248.2210607965755571
  Basis Set: CC-PVTZ
  Basis Set:
  Basis Set: CC-PVTZ
  Basis Set:
  @DF-RHF Final Energy:  -248.22134334756515
    Total Energy =                       -248.2213433475652096
  Basis Set: CC-PVTZ
  Basis Set:
  Basis Set: CC-PVTZ
  Basis Set:
  @DF-RHF Final Energy:  -248.22136018180481
    Total Energy =                       -248.2213601818047550
  Basis Set: CC-PVTZ
  Basis Set:
  Charge       = 0
  Multiplicity = 1
  Basis Set: CC-PVTZ
  Basis Set:

    Orbital Energies (a.u.)
    -----------------------

    Doubly Occupied:

       1A    -20.542766     2A    -15.525804     3A    -11.262584
       4A    -11.258295     5A    -11.241554     6A     -1.379019
       7A     -1.177108     8A     -0.999229     9A     -0.902792
      10A     -0.817638    11A     -0.683047    12A     -0.668815
      13A     -0.646163    14A     -0.622280    15A     -0.598297
      16A     -0.545141    17A     -0.520884    18A     -0.503711
      19A     -0.465574    20A     -0.413964    21A     -0.383102

  @DF-RHF Final Energy:  -248.22136132886322

   => Energetics <=

    Nuclear Repulsion Energy =            193.3816679290904972
    One-Electron Energy =                -720.8905218869508644
    Two-Electron Energy =                 279.2874926289970290
    DFT Exchange-Correlation Energy =       0.0000000000000000
    Empirical Dispersion Energy =           0.0000000000000000
    PCM Polarization Energy =               0.0000000000000000
    EFP Energy =                            0.0000000000000000
    Total Energy =                       -248.2213613288632814
    Molecular point group: c1
  Basis Set: CC-PVTZ
  Basis Set:

  -Total Gradient:
     Atom            X                  Y                   Z
    ------   -----------------  -----------------  -----------------
       1        0.000019495799     0.000006877449     0.000013781851
       2       -0.000504858290    -0.000034281657    -0.000988055863
       3        0.000005927111     0.000294442694     0.001006375759
       4        0.000407116625     0.000013940906     0.000639014331
       5       -0.000023731769    -0.000087436107     0.000071605298
       6        0.000096028840    -0.000229477818    -0.000636805475
       7       -0.000013826972    -0.000012377034     0.000015204448
       8        0.000018475557     0.000013417813    -0.000108659477
       9        0.000030207272     0.000014611390     0.000043248992
      10       -0.000040492904     0.000004675168    -0.000039262430
      11        0.000021847871     0.000041039922    -0.000015025995
      12       -0.000004700252    -0.000012998630    -0.000009724835
      13       -0.000006008289    -0.000000872604     0.000010973146
      14       -0.000005480598    -0.000011561492    -0.000002669746

  **** Optimization is complete! (in 5 steps) ****
    Final optimized geometry and variables:
    Molecular point group: c1

    Geometry (in Angstrom), charge = 0, multiplicity = 1:

    H           -1.183084665693    -1.973114889927    -1.260693625581
    N           -0.260802129717    -1.853162887419    -0.900335129987
    C            0.304008911584    -0.574039284371    -1.290430325190
    H            0.295793625441    -2.612807732903    -1.225587806463
    C           -0.205967903335     0.560524884287    -0.425871588977
    H            1.380166298955    -0.625038643337    -1.182844085137
    H            0.099981488608    -0.319506084560    -2.330749771586
    O            0.344478664436     0.474381772790     0.846599562454
    H            0.063495788978     1.511818563766    -0.885725513076
    H           -1.294638035578     0.521985694713    -0.372972004744
    C           -0.134396562862     1.416970976768     1.744727103737
    H            0.368345225342     1.260973538031     2.688196970934
    H            0.065694298703     2.432241487722     1.406255961366
    H           -1.206324909859     1.312442320426     1.899088248368

  Mulliken Charges: (a.u.)
   Center  Symbol    Alpha    Beta     Spin     Total
       1     H     0.43170  0.43170  0.00000  0.13660
       2     N     3.68772  3.68772  0.00000 -0.37544
       3     C     3.02960  3.02960  0.00000 -0.05919
       4     H     0.42685  0.42685  0.00000  0.14630
       5     C     2.95504  2.95504  0.00000  0.08993
       6     H     0.45364  0.45364  0.00000  0.09272
       7     H     0.46729  0.46729  0.00000  0.06542
       8     O     4.16802  4.16802  0.00000 -0.33605
       9     H     0.47428  0.47428  0.00000  0.05145
      10     H     0.48052  0.48052  0.00000  0.03896
      11     C     3.03202  3.03202  0.00000 -0.06404
      12     H     0.44706  0.44706  0.00000  0.10588
      13     H     0.47429  0.47429  0.00000  0.05141
      14     H     0.47197  0.47197  0.00000  0.05606

   Total alpha = 21.00000, Total beta = 21.00000, Total charge =  0.00000
