  ==> Input File <==

--------------------------------------------------------------------------
set {
	reference rhf
	basis cc-pvtz
}

set_num_threads( 4 )
memory 2 gb

molecule MOL {
0 1

H	 1.100079	 -0.590950	 0.277942
C	 0.848385	 0.440008	 0.000011
C	 -0.623497	 0.751021	 0.000090
O	 1.705047	 1.208455	 -0.269923
C	 -1.523725	 -0.474323	 -0.000013
H	 -0.813143	 1.382932	 -0.864897
H	 -0.813071	 1.382716	 0.865253
H	 -1.342980	 -1.087348	 -0.873016
H	 -2.565269	 -0.177464	 0.000070
H	 -1.342898	 -1.087564	 0.872820

	symmetry c1
}
set optking {
	frozen_dihedral = ("
		4 2 3 6
	")
}

ee = optimize('scf')
oeprop('DIPOLE', 'QUADRUPOLE', 'MULLIKEN_CHARGES')
f=open( 'psi4out.xyz', 'w' )
f.write( "10  " )
f.write( str(ee) + "\n" )
f.write( MOL.save_string_xyz() )
f.close()
--------------------------------------------------------------------------

    Molecular point group: c1
  Charge       = 0
  Multiplicity = 1
  Basis Set: CC-PVTZ
  Basis Set:
  @DF-RHF Final Energy:  -192.02197138917489
    Total Energy =                       -192.0219713891750644
    Molecular point group: c1
  Basis Set: CC-PVTZ
  Basis Set:
  Basis Set: CC-PVTZ
  Basis Set:
  @DF-RHF Final Energy:  -192.02191941850987
    Total Energy =                       -192.0219194185098104
  Basis Set: CC-PVTZ
  Basis Set:
  Basis Set: CC-PVTZ
  Basis Set:
  @DF-RHF Final Energy:  -192.02182421372561
    Total Energy =                       -192.0218242137254663
  Basis Set: CC-PVTZ
  Basis Set:
  Basis Set: CC-PVTZ
  Basis Set:
  @DF-RHF Final Energy:  -192.02226933417981
    Total Energy =                       -192.0222693341798106
  Basis Set: CC-PVTZ
  Basis Set:
  Charge       = 0
  Multiplicity = 1
  Basis Set: CC-PVTZ
  Basis Set:

    Orbital Energies (a.u.)
    -----------------------

    Doubly Occupied:

       1A    -20.552869     2A    -11.323721     3A    -11.238331
       4A    -11.230374     5A     -1.408711     6A     -1.067763
       7A     -0.902860     8A     -0.798535     9A     -0.664807
      10A     -0.643628    11A     -0.636212    12A     -0.555979
      13A     -0.546877    14A     -0.525198    15A     -0.493254
      16A     -0.415146

  @DF-RHF Final Energy:  -192.02227055498855

   => Energetics <=

    Nuclear Repulsion Energy =            117.1606678053228023
    One-Electron Energy =                -492.3573455072764773
    Two-Electron Energy =                 183.1744071469649953
    DFT Exchange-Correlation Energy =       0.0000000000000000
    Empirical Dispersion Energy =           0.0000000000000000
    PCM Polarization Energy =               0.0000000000000000
    EFP Energy =                            0.0000000000000000
    Total Energy =                       -192.0222705549886655
    Molecular point group: c1
  Basis Set: CC-PVTZ
  Basis Set:

  -Total Gradient:
     Atom            X                  Y                   Z
    ------   -----------------  -----------------  -----------------
       1       -0.000034606930    -0.000008555009    -0.000004045761
       2       -0.000139594631    -0.000582134667    -0.001394705955
       3        0.000228396518     0.000908972085     0.000997828340
       4        0.000024844542     0.000324080995     0.000898975055
       5        0.000056847524     0.000050089068    -0.000010464424
       6       -0.000147720884    -0.000729107627    -0.000499917329
       7        0.000013979827     0.000027068070     0.000011493332
       8       -0.000003686206    -0.000006459251    -0.000000991582
       9       -0.000004113503     0.000011616977     0.000000168392
      10        0.000005653744     0.000004429362     0.000001659933

  **** Optimization is complete! (in 5 steps) ****
    Final optimized geometry and variables:
    Molecular point group: c1

    Geometry (in Angstrom), charge = 0, multiplicity = 1:

    H            1.011697414710    -1.067665547398     0.377595684639
    C            0.749430825612    -0.046010689886     0.072717511083
    C           -0.724670606335     0.283251122182     0.065390744635
    O            1.599891613794     0.726386301677    -0.203158780847
    C           -1.621648816211    -0.948847715838     0.070490404087
    H           -0.917565043535     0.909058517852    -0.797017411510
    H           -0.911601513581     0.893298014181     0.944413716215
    H           -1.455449869386    -1.560828560378    -0.809185573878
    H           -2.665431863597    -0.663191824125     0.081369914923
    H           -1.439211097623    -1.565962318096     0.943352444393

  Mulliken Charges: (a.u.)
   Center  Symbol    Alpha    Beta     Spin     Total
       1     H     0.46393  0.46393  0.00000  0.07215
       2     C     2.90512  2.90512  0.00000  0.18975
       3     C     3.08207  3.08207  0.00000 -0.16413
       4     O     4.16474  4.16474  0.00000 -0.32948
       5     C     3.15393  3.15393  0.00000 -0.30787
       6     H     0.43933  0.43933  0.00000  0.12135
       7     H     0.44308  0.44308  0.00000  0.11383
       8     H     0.45030  0.45030  0.00000  0.09940
       9     H     0.44421  0.44421  0.00000  0.11158
      10     H     0.45329  0.45329  0.00000  0.09343

   Total alpha = 16.00000, Total beta = 16.00000, Total charge = -0.00000
