  ==> Input File <==

--------------------------------------------------------------------------
set {
	reference rhf
	basis cc-pvtz
}

set_num_threads( 4 )
memory 2 gb

molecule MOL {
0 1

H	 -1.004098	 -0.936133	 -0.873622
N	 -0.625934	 -0.663929	 -0.000707
C	 -1.269453	 -1.135243	 1.202971
C	 0.468494	 0.129045	 -0.002160
H	 -2.297244	 -0.795773	 1.251915
H	 -0.732751	 -0.743695	 2.050163
H	 -1.258481	 -2.217645	 1.251178
C	 1.785715	 -0.615093	 0.000603
O	 0.413285	 1.323206	 0.000532
H	 1.866994	 -1.243310	 -0.878792
H	 2.591506	 0.100263	 0.006422
H	 1.860358	 -1.250360	 0.875522

	symmetry c1
}
set optking {
	frozen_dihedral = ("
		3 2 4 9
	")
}

ee = optimize('scf')
oeprop('DIPOLE', 'QUADRUPOLE', 'MULLIKEN_CHARGES')
f=open( 'psi4out.xyz', 'w' )
f.write( "12  " )
f.write( str(ee) + "\n" )
f.write( MOL.save_string_xyz() )
f.close()
--------------------------------------------------------------------------

    Molecular point group: c1
  Charge       = 0
  Multiplicity = 1
  Basis Set: CC-PVTZ
  Basis Set:
  @DF-RHF Final Energy:  -247.05911169677333
    Total Energy =                       -247.0591116967734138
    Molecular point group: c1
  Basis Set: CC-PVTZ
  Basis Set:
  Basis Set: CC-PVTZ
  Basis Set:
  @DF-RHF Final Energy:  -247.06270786943392
    Total Energy =                       -247.0627078694341208
  Basis Set: CC-PVTZ
  Basis Set:
  Basis Set: CC-PVTZ
  Basis Set:
  @DF-RHF Final Energy:  -247.06349823889997
    Total Energy =                       -247.0634982388997400
  Basis Set: CC-PVTZ
  Basis Set:
  Basis Set: CC-PVTZ
  Basis Set:
  @DF-RHF Final Energy:  -247.06578876290132
    Total Energy =                       -247.0657887629013771
  Basis Set: CC-PVTZ
  Basis Set:
  @DF-RHF Final Energy:  -247.05438502227670
    Total Energy =                       -247.0543850222765627
  @DF-RHF Final Energy:  -247.06869811051538
    Total Energy =                       -247.0686981105151858
  @DF-RHF Final Energy:  -247.07535762054474
    Total Energy =                       -247.0753576205448780
  @DF-RHF Final Energy:  -247.07915472912882
    Total Energy =                       -247.0791547291288452
  @DF-RHF Final Energy:  -247.07630086848951
    Total Energy =                       -247.0763008684895112
  @DF-RHF Final Energy:  -247.07953548457093
    Total Energy =                       -247.0795354845708971
  @DF-RHF Final Energy:  -247.08070136798560
    Total Energy =                       -247.0807013679855118
  @DF-RHF Final Energy:  -247.08093928109267
    Total Energy =                       -247.0809392810926965
  Basis Set: CC-PVTZ
  Basis Set:
  @DF-RHF Final Energy:  -247.08103685309464
    Total Energy =                       -247.0810368530948153
  Basis Set: CC-PVTZ
  Basis Set:
  Basis Set: CC-PVTZ
  Basis Set:
  @DF-RHF Final Energy:  -247.08107913197063
    Total Energy =                       -247.0810791319705686
  Basis Set: CC-PVTZ
  Basis Set:
  Basis Set: CC-PVTZ
  Basis Set:
  @DF-RHF Final Energy:  -247.08108443568065
    Total Energy =                       -247.0810844356803955
  Basis Set: CC-PVTZ
  Basis Set:
  Charge       = 0
  Multiplicity = 1
  Basis Set: CC-PVTZ
  Basis Set:

    Orbital Energies (a.u.)
    -----------------------

    Doubly Occupied:

       1A    -20.540889     2A    -15.559631     3A    -11.346197
       4A    -11.260692     5A    -11.228890     6A     -1.413965
       7A     -1.219496     8A     -1.011458     9A     -0.934356
      10A     -0.767960    11A     -0.683212    12A     -0.660700
      13A     -0.634597    14A     -0.601188    15A     -0.577557
      16A     -0.566821    17A     -0.546431    18A     -0.500465
      19A     -0.440620    20A     -0.401753

  @DF-RHF Final Energy:  -247.08108464770126

   => Energetics <=

    Nuclear Repulsion Energy =            181.3788335869972741
    One-Electron Energy =                -695.1260831482097728
    Two-Electron Energy =                 266.6661649135111247
    DFT Exchange-Correlation Energy =       0.0000000000000000
    Empirical Dispersion Energy =           0.0000000000000000
    PCM Polarization Energy =               0.0000000000000000
    EFP Energy =                            0.0000000000000000
    Total Energy =                       -247.0810846477013456
    Molecular point group: c1
  Basis Set: CC-PVTZ
  Basis Set:

  -Total Gradient:
     Atom            X                  Y                   Z
    ------   -----------------  -----------------  -----------------
       1        0.000010560909     0.000015490737     0.000001728398
       2        0.005459310275    -0.005068173086     0.005626578873
       3       -0.004235722456     0.004066229050    -0.001482341427
       4       -0.000031686858    -0.000648947093    -0.012053367474
       5        0.000001121279     0.000002543425    -0.000001008078
       6       -0.000002205612    -0.000005343106     0.000004821352
       7       -0.000003465519     0.000002817149    -0.000000308000
       8        0.000007746186     0.000005667406    -0.000060995303
       9       -0.001181657226     0.001630110768     0.007901746209
      10       -0.000008548638    -0.000006660321     0.000024577083
      11       -0.000008073731     0.000003309744     0.000015079508
      12       -0.000007378608     0.000002955331     0.000023488856

  **** Optimization is complete! (in 16 steps) ****
    Final optimized geometry and variables:
    Molecular point group: c1

    Geometry (in Angstrom), charge = 0, multiplicity = 1:

    H           -1.412305429534    -0.420008962506    -0.875948590903
    N           -0.685029486889    -0.711918672969    -0.254265037683
    C           -1.287393020017    -0.863248064716     1.071606154332
    C            0.302616003414     0.299193187112    -0.311623115899
    H           -1.729388243895     0.059503686907     1.434741942334
    H           -0.545322051227    -1.194404694857     1.786022417494
    H           -2.053561754007    -1.623116277248     1.018395821327
    C            1.698179182012    -0.162830728434     0.008554031037
    O            0.041282118651     1.423823352272    -0.579759530815
    H            2.058346382757    -0.760156632429    -0.820984947437
    H            2.347260601312     0.685870552314     0.156371899268
    H            1.703475582768    -0.798247727351     0.884614204391

  Mulliken Charges: (a.u.)
   Center  Symbol    Alpha    Beta     Spin     Total
       1     H     0.43626  0.43626  0.00000  0.12748
       2     N     3.63318  3.63318  0.00000 -0.26636
       3     C     3.08477  3.08477  0.00000 -0.16954
       4     C     2.83549  2.83549  0.00000  0.32903
       5     H     0.45766  0.45766  0.00000  0.08469
       6     H     0.45442  0.45442  0.00000  0.09116
       7     H     0.44725  0.44725  0.00000  0.10550
       8     C     3.13764  3.13764  0.00000 -0.27529
       9     O     4.17715  4.17715  0.00000 -0.35431
      10     H     0.44611  0.44611  0.00000  0.10778
      11     H     0.43936  0.43936  0.00000  0.12127
      12     H     0.45071  0.45071  0.00000  0.09859

   Total alpha = 20.00000, Total beta = 20.00000, Total charge =  0.00000
