                              Psi4 1.0.54 Driver

  ==> Input File <==

--------------------------------------------------------------------------
set {
	reference rhf
	basis cc-pvtz
}

set_num_threads( 4 )
memory 2 gb

molecule MOL {
0 1

H	 -0.619994	 3.646011	 -2.392335
C	 0.377108	 4.036129	 -2.146405
C	 0.702857	 4.061952	 -0.677694
O	 1.097065	 4.404849	 -3.008388
C	 0.464497	 2.712438	 0.006172
H	 1.725547	 4.395116	 -0.557522
H	 0.052731	 4.809729	 -0.228839
C	 1.424397	 1.616009	 -0.450576
H	 0.558149	 2.849925	 1.077930
H	 -0.561019	 2.396452	 -0.168935
C	 1.181757	 0.280428	 0.247371
H	 2.445565	 1.939619	 -0.267272
H	 1.341666	 1.478723	 -1.525627
C	 2.151032	 -0.811012	 -0.202643
H	 1.257299	 0.425658	 1.320473
H	 0.162102	 -0.045391	 0.053869
C	 3.580021	 -0.656538	 0.320835
H	 2.170545	 -0.847575	 -1.289412
H	 1.766632	 -1.772905	 0.124928
C	 4.327657	 0.562694	 -0.213579
H	 4.138806	 -1.549270	 0.057813
H	 3.561991	 -0.620783	 1.406976
H	 4.355973	 0.557257	 -1.298551
H	 3.867136	 1.491650	 0.100501
H	 5.351524	 0.571613	 0.142204

	symmetry c1
}
set optking {
	frozen_dihedral = ("
		8 11 14 18
	")
}

ee,wfn = optimize('scf', return_wfn=True)
oeprop( wfn, 'DIPOLE', 'QUADRUPOLE', 'MULLIKEN_CHARGES')
f=open( 'psi4out.xyz', 'w' )
f.write( "25  " )
f.write( str(ee) + "\n" )
f.write( MOL.save_string_xyz() )
f.close()
--------------------------------------------------------------------------

    Molecular point group: c1
  Charge       = 0
  Multiplicity = 1
  Basis Set: CC-PVTZ
  Basis Set:
  @DF-RHF Final Energy:  -387.24600105029140
    Total Energy =                       -387.2460010502910563
    Molecular point group: c1
  Basis Set: CC-PVTZ
  Basis Set:
  Basis Set: CC-PVTZ
  Basis Set:
  @DF-RHF Final Energy:  -387.25364099210708
    Total Energy =                       -387.2536409921068525
  Basis Set: CC-PVTZ
  Basis Set:
  Basis Set: CC-PVTZ
  Basis Set:
  @DF-RHF Final Energy:  -387.25492988163944
    Total Energy =                       -387.2549298816395549
  Basis Set: CC-PVTZ
  Basis Set:
  Basis Set: CC-PVTZ
  Basis Set:
  @DF-RHF Final Energy:  -387.25520203295684
    Total Energy =                       -387.2552020329572997
  Basis Set: CC-PVTZ
  Basis Set:
  @DF-RHF Final Energy:  -387.25511971901386
    Total Energy =                       -387.2551197190134644
  @DF-RHF Final Energy:  -387.25505841271655
    Total Energy =                       -387.2550584127168349
  @DF-RHF Final Energy:  -387.25533323090463
    Total Energy =                       -387.2553332309046255
  @DF-RHF Final Energy:  -387.25534955342476
    Total Energy =                       -387.2553495534245940
  @DF-RHF Final Energy:  -387.25535755961897
    Total Energy =                       -387.2553575596186874
  Basis Set: CC-PVTZ
  Basis Set:
  @DF-RHF Final Energy:  -387.25536376132936
    Total Energy =                       -387.2553637613291357
  Basis Set: CC-PVTZ
  Basis Set:
  Basis Set: CC-PVTZ
  Basis Set:
  @DF-RHF Final Energy:  -387.25538221166966
    Total Energy =                       -387.2553822116700530
  Basis Set: CC-PVTZ
  Basis Set:
  Basis Set: CC-PVTZ
  Basis Set:
  @DF-RHF Final Energy:  -387.25538338167723
    Total Energy =                       -387.2553833816775750
  Basis Set: CC-PVTZ
  Basis Set:
  Charge       = 0
  Multiplicity = 1
  Basis Set: CC-PVTZ
  Basis Set:

    Orbital Energies (a.u.)
    -----------------------

    Doubly Occupied:

       1A    -20.551445     2A    -11.321047     3A    -11.233864
       4A    -11.232794     5A    -11.221257     6A    -11.218774
       7A    -11.215933     8A    -11.215345     9A    -11.206575
      10A     -1.406451    11A     -1.104491    12A     -1.068257
      13A     -1.012506    14A     -0.947676    15A     -0.873823
      16A     -0.823035    17A     -0.788890    18A     -0.779786
      19A     -0.668453    20A     -0.661497    21A     -0.630781
      22A     -0.623656    23A     -0.610280    24A     -0.594125
      25A     -0.569999    26A     -0.559788    27A     -0.532329
      28A     -0.523271    29A     -0.520427    30A     -0.494634
      31A     -0.490735    32A     -0.482068    33A     -0.465638
      34A     -0.449751    35A     -0.442008    36A     -0.411883

  @DF-RHF Final Energy:  -387.25538374627638

   => Energetics <=

    Nuclear Repulsion Energy =            448.2252032814502627
    One-Electron Energy =               -1413.0546360431023913
    Two-Electron Energy =                 577.5740490153757491
    DFT Exchange-Correlation Energy =       0.0000000000000000
    Empirical Dispersion Energy =           0.0000000000000000
    PCM Polarization Energy =               0.0000000000000000
    EFP Energy =                            0.0000000000000000
    Total Energy =                       -387.2553837462763795
    Molecular point group: c1
  Basis Set: CC-PVTZ
  Basis Set:

  -Total Gradient:
     Atom            X                  Y                   Z
    ------   -----------------  -----------------  -----------------
       1       -0.000004917391    -0.000005973308    -0.000007581887
       2        0.000002223461     0.000002089333     0.000007177264
       3       -0.000005193806    -0.000023303053     0.000009955434
       4        0.000005863654     0.000007850801    -0.000012675807
       5       -0.000007079290    -0.000001266469     0.000009155666
       6        0.000005129613     0.000004217926     0.000003609441
       7       -0.000001366848     0.000005731820     0.000000429141
       8       -0.000547162958    -0.000227160458    -0.000724244023
       9       -0.000001067886    -0.000003865852    -0.000013962480
      10        0.000002755380     0.000008592177     0.000006353068
      11        0.001017805972     0.000537900463     0.001071047571
      12       -0.000014558816    -0.000006318540    -0.000000916474
      13        0.000002374148     0.000000155086     0.000003843181
      14       -0.001326170941    -0.001158948461    -0.000437282334
      15       -0.000006937581     0.000003102330     0.000009943259
      16        0.000004392274     0.000005741009    -0.000003325364
      17       -0.000009281500     0.000009526471     0.000014735083
      18        0.000900817827     0.000852501690     0.000078251673
      19        0.000006706854     0.000005845379     0.000006201019
      20       -0.000016044492     0.000005045577    -0.000021865745
      21       -0.000004483545    -0.000000605743    -0.000004052598
      22       -0.000007283755    -0.000011401495     0.000008536699
      23        0.000002093330     0.000002496755    -0.000008765153
      24        0.000007542637    -0.000002951287    -0.000005608314
      25       -0.000006156340    -0.000009002152     0.000011041683

  **** Optimization is complete! (in 13 steps) ****
    Final optimized geometry and variables:
    Molecular point group: c1

    Geometry (in Angstrom), charge = 0, multiplicity = 1:

    H           -2.287758773831     1.816767187874    -1.800198777833
    C           -1.418908687899     2.309174886301    -1.342448729738
    C           -1.350457647774     2.208429470265     0.157276793403
    O           -0.631707723432     2.871409418180    -2.021826302361
    C           -1.486638424260     0.768699841225     0.661220786963
    H           -0.426662969797     2.662893449414     0.491081787349
    H           -2.174529063711     2.802598032087     0.546117177534
    C           -0.309063103652    -0.127676862446     0.281285353776
    H           -1.588155519481     0.791646629892     1.740933195392
    H           -2.410269139100     0.339884884861     0.280579503462
    C           -0.458506897342    -1.545922460227     0.829423536844
    H            0.603059569458     0.326787791393     0.649992428006
    H           -0.212320719860    -0.169420772936    -0.800572880055
    C            0.573929098364    -2.575634793659     0.355264643168
    H           -0.457749135439    -1.514201271868     1.916248864491
    H           -1.441193096151    -1.911890566903     0.542906080467
    C            1.984174981564    -2.470893704029     0.956699077970
    H            0.647454256448    -2.541114364478    -0.728973004570
    H            0.180230178195    -3.556259533062     0.601194805385
    C            2.941479090825    -1.516293988665     0.244947434541
    H            2.431020947636    -3.459829827889     0.937220579173
    H            1.909508455180    -2.199498142149     2.006439575310
    H            3.050942815347    -1.788773025086    -0.799472528927
    H            2.608976489638    -0.487737434078     0.281192803423
    H            3.925355107550    -1.556659240339     0.698862702778

  Mulliken Charges: (a.u.)
   Center  Symbol    Alpha    Beta     Spin     Total
       1     H     0.46407  0.46407  0.00000  0.07187
       2     C     2.90461  2.90461  0.00000  0.19078
       3     C     3.08946  3.08946  0.00000 -0.17893
       4     O     4.16622  4.16622  0.00000 -0.33245
       5     C     3.11507  3.11507  0.00000 -0.23013
       6     H     0.44305  0.44305  0.00000  0.11390
       7     H     0.44016  0.44016  0.00000  0.11967
       8     C     3.09829  3.09829  0.00000 -0.19658
       9     H     0.44292  0.44292  0.00000  0.11416
      10     H     0.44930  0.44930  0.00000  0.10139
      11     C     3.09667  3.09667  0.00000 -0.19335
      12     H     0.44715  0.44715  0.00000  0.10570
      13     H     0.44583  0.44583  0.00000  0.10834
      14     C     3.10162  3.10162  0.00000 -0.20325
      15     H     0.45141  0.45141  0.00000  0.09718
      16     H     0.44882  0.44882  0.00000  0.10237
      17     C     3.09103  3.09103  0.00000 -0.18206
      18     H     0.45382  0.45382  0.00000  0.09236
      19     H     0.44400  0.44400  0.00000  0.11200
      20     C     3.15093  3.15093  0.00000 -0.30186
      21     H     0.44756  0.44756  0.00000  0.10488
      22     H     0.45472  0.45472  0.00000  0.09057
      23     H     0.45335  0.45335  0.00000  0.09331
      24     H     0.45290  0.45290  0.00000  0.09419
      25     H     0.44703  0.44703  0.00000  0.10593

   Total alpha = 36.00000, Total beta = 36.00000, Total charge =  0.00000

*** Psi4 exiting successfully. Buy a developer a beer!
