  ==> Input File <==

--------------------------------------------------------------------------
set {
	reference rhf
	basis 6-31G*
}

set_num_threads( 1 )
memory 2 gb

molecule MOL {
0 1

H	 -2.455504	 -1.062989	 3.255514
C	 -2.425350	 -0.963885	 2.187839
C	 -1.271134	 -0.975404	 1.562018
H	 -3.351856	 -0.856911	 1.655811
O	 -1.180634	 -0.819263	 0.215062
H	 -0.332713	 -1.088641	 2.075572
C	 0.051604	 -1.018856	 -0.387932
C	 1.043764	 0.054862	 -0.001873
H	 -0.017620	 -1.041351	 -1.469781
H	 0.437898	 -1.966374	 -0.042284
F	 2.212596	 -0.199467	 -0.571921
F	 0.652529	 1.252447	 -0.405055
F	 1.230877	 0.110694	 1.300533

	symmetry c1
}
set optking {
	frozen_dihedral = ("
		11 8 7 9,
		6 3 2 1,
		6 3 5 7
	")
}

ee = energy('scf')
oeprop('DIPOLE', 'QUADRUPOLE', 'MULLIKEN_CHARGES')
f=open( 'psi4out.xyz', 'w' )
f.write( "13  " )
f.write( str(ee) + "\n" )
f.write( MOL.save_string_xyz() )
f.close()
--------------------------------------------------------------------------

    Molecular point group: c1

    Geometry (in Angstrom), charge = 0, multiplicity = 1:

       Center              X                  Y                   Z               Mass
    ------------   -----------------  -----------------  -----------------  -----------------
           H         -2.629712868906    -0.809882411841     2.815733062980     1.007825032070
           C         -2.599558868906    -0.710778411841     1.748058062980    12.000000000000
           C         -1.445342868906    -0.722297411841     1.122237062980    12.000000000000
           H         -3.526064868906    -0.603804411841     1.216030062980     1.007825032070
           O         -1.354842868906    -0.566156411841    -0.224718937020    15.994914619560
           H         -0.506921868906    -0.835534411841     1.635791062980     1.007825032070
           C         -0.122604868906    -0.765749411841    -0.827712937020    12.000000000000
           C          0.869555131094     0.307968588159    -0.441653937020    12.000000000000
           H         -0.191828868906    -0.788244411841    -1.909561937020     1.007825032070
           H          0.263689131094    -1.713267411841    -0.482064937020     1.007825032070
           F          2.038387131094     0.053639588159    -1.011701937020    18.998403224000
           F          0.478320131094     1.505553588159    -0.844835937020    18.998403224000
           F          1.056668131094     0.363800588159     0.860752062980    18.998403224000

  Charge       = 0
  Multiplicity = 1
  Basis Set: 6-31G*
  Basis Set:

    Orbital Energies (a.u.)
    -----------------------

    Doubly Occupied:

       1A    -26.353114     2A    -26.347433     3A    -26.341778
       4A    -20.604902     5A    -11.507028     6A    -11.319608
       7A    -11.294520     8A    -11.214028     9A     -1.747055
      10A     -1.648283    11A     -1.639575    12A     -1.436519
      13A     -1.083397    14A     -1.016397    15A     -0.929371
      16A     -0.839571    17A     -0.834995    18A     -0.833173
      19A     -0.779595    20A     -0.729241    21A     -0.713364
      22A     -0.701003    23A     -0.677280    24A     -0.661779
      25A     -0.658738    26A     -0.647408    27A     -0.634389
      28A     -0.591836    29A     -0.560423    30A     -0.524246
      31A     -0.502043    32A     -0.349747

  @DF-RHF Final Energy:  -527.53027730275016

   => Energetics <=

    Nuclear Repulsion Energy =            416.5461163157133342
    One-Electron Energy =               -1556.7091124696039515
    Two-Electron Energy =                 612.6327188511396571
    DFT Exchange-Correlation Energy =       0.0000000000000000
    Empirical Dispersion Energy =           0.0000000000000000
    PCM Polarization Energy =               0.0000000000000000
    EFP Energy =                            0.0000000000000000
    Total Energy =                       -527.5302773027509602

  Mulliken Charges: (a.u.)
   Center  Symbol    Alpha    Beta     Spin     Total
       1     H     0.40723  0.40723  0.00000  0.18554
       2     C     3.23603  3.23603  0.00000 -0.47206
       3     C     2.90425  2.90425  0.00000  0.19149
       4     H     0.40323  0.40323  0.00000  0.19354
       5     O     4.30505  4.30505  0.00000 -0.61010
       6     H     0.39534  0.39534  0.00000  0.20933
       7     C     3.06228  3.06228  0.00000 -0.12457
       8     C     2.45930  2.45930  0.00000  1.08140
       9     H     0.38640  0.38640  0.00000  0.22721
      10     H     0.40556  0.40556  0.00000  0.18887
      11     F     4.68247  4.68247  0.00000 -0.36493
      12     F     4.67640  4.67640  0.00000 -0.35280
      13     F     4.67646  4.67646  0.00000 -0.35293

   Total alpha = 32.00000, Total beta = 32.00000, Total charge =  0.00000
