  ==> Input File <==

--------------------------------------------------------------------------
set {
	reference rhf
	basis cc-pvtz
}

set_num_threads( 4 )
memory 2 gb

molecule MOL {
0 1

H	 -3.144994	 -1.202467	 -0.018751
O	 -2.321472	 -0.864941	 -0.318626
C	 -2.021813	 0.336996	 0.342658
C	 -0.669613	 0.837286	 -0.127252
H	 -2.780861	 1.084746	 0.127159
H	 -2.006390	 0.184138	 1.420053
C	 0.490865	 -0.082543	 0.241244
H	 -0.708709	 0.967192	 -1.204587
H	 -0.507562	 1.822272	 0.303070
C	 1.839800	 0.429565	 -0.255472
H	 0.305636	 -1.070211	 -0.165276
H	 0.527397	 -0.195943	 1.322876
C	 2.927027	 -0.639794	 -0.241600
H	 1.726706	 0.813709	 -1.265593
H	 2.155247	 1.271011	 0.356208
H	 2.656422	 -1.479618	 -0.872776
H	 3.870961	 -0.246137	 -0.601220
H	 3.088537	 -1.020881	 0.761462

	symmetry c1
}
set optking {
	frozen_dihedral = ("
		14 10 7 11
	")
}

ee = optimize('scf')
oeprop('DIPOLE', 'QUADRUPOLE', 'MULLIKEN_CHARGES')
f=open( 'psi4out.xyz', 'w' )
f.write( "18  " )
f.write( str(ee) + "\n" )
f.write( MOL.save_string_xyz() )
f.close()
--------------------------------------------------------------------------

    Molecular point group: c1
  Charge       = 0
  Multiplicity = 1
  Basis Set: CC-PVTZ
  Basis Set:
  @DF-RHF Final Energy:  -271.28593809025301
    Total Energy =                       -271.2859380902530688
    Molecular point group: c1
  Basis Set: CC-PVTZ
  Basis Set:
  Basis Set: CC-PVTZ
  Basis Set:
  @DF-RHF Final Energy:  -271.28606985810700
    Total Energy =                       -271.2860698581066572
  Basis Set: CC-PVTZ
  Basis Set:
  Basis Set: CC-PVTZ
  Basis Set:
  @DF-RHF Final Energy:  -271.28609402110465
    Total Energy =                       -271.2860940211045886
  Basis Set: CC-PVTZ
  Basis Set:
  Charge       = 0
  Multiplicity = 1
  Basis Set: CC-PVTZ
  Basis Set:

    Orbital Energies (a.u.)
    -----------------------

    Doubly Occupied:

       1A    -20.546221     2A    -11.265999     3A    -11.210763
       4A    -11.209087     5A    -11.204933     6A    -11.202866
       7A     -1.364141     8A     -1.076294     9A     -1.010337
      10A     -0.914540    11A     -0.818958    12A     -0.785164
      13A     -0.707978    14A     -0.643715    15A     -0.625562
      16A     -0.581292    17A     -0.572188    18A     -0.561867
      19A     -0.522755    20A     -0.502605    21A     -0.490335
      22A     -0.468856    23A     -0.456631    24A     -0.449674
      25A     -0.431820

  @DF-RHF Final Energy:  -271.28609446383496

   => Energetics <=

    Nuclear Repulsion Energy =            249.3105129104363868
    One-Electron Energy =                -861.9440543758005333
    Two-Electron Energy =                 341.3474470015294173
    DFT Exchange-Correlation Energy =       0.0000000000000000
    Empirical Dispersion Energy =           0.0000000000000000
    PCM Polarization Energy =               0.0000000000000000
    EFP Energy =                            0.0000000000000000
    Total Energy =                       -271.2860944638347291
    Molecular point group: c1
  Basis Set: CC-PVTZ
  Basis Set:

  -Total Gradient:
     Atom            X                  Y                   Z
    ------   -----------------  -----------------  -----------------
       1        0.000001214591     0.000003239120     0.000001716867
       2       -0.000032461428     0.000028624767    -0.000019618875
       3        0.000036576117    -0.000035456307     0.000073678248
       4        0.000002861056     0.000003330192    -0.000066776215
       5       -0.000008333831    -0.000020850662    -0.000011185551
       6       -0.000015900175     0.000004979789     0.000006021652
       7       -0.001723018360     0.002154628528    -0.002640131925
       8        0.000012621382     0.000006283753    -0.000010343457
       9        0.000011464058    -0.000023846252    -0.000004236191
      10        0.001081168715    -0.003555407660    -0.000784129345
      11        0.001271612222    -0.001206099928     0.002333940796
      12        0.000006755688    -0.000001068431     0.000017050611
      13        0.000001250316    -0.000019256608    -0.000005261664
      14       -0.000633319605     0.002622653130     0.001103051216
      15        0.000009560010     0.000009142468     0.000006886781
      16       -0.000003810405     0.000009035322     0.000003370550
      17       -0.000005527972     0.000010237104    -0.000001502321
      18       -0.000012712382     0.000009831676    -0.000002531178

  **** Optimization is complete! (in 4 steps) ****
    Final optimized geometry and variables:
    Molecular point group: c1

    Geometry (in Angstrom), charge = 0, multiplicity = 1:

    H           -3.152057400868    -1.155172804964     0.090024777040
    O           -2.331087332363    -0.828763007541    -0.228352576462
    C           -2.004491520258     0.373071003592     0.420017475496
    C           -0.657759719531     0.856451497314    -0.081826359936
    H           -2.760072662924     1.127838304883     0.217092688636
    H           -1.967157391652     0.225507652997     1.497543252163
    C            0.499315572620    -0.076618142239     0.258378342523
    H           -0.719789851098     0.987944929711    -1.157727077620
    H           -0.472924376524     1.838946024109     0.345442386565
    C            1.856373634119     0.447957429930    -0.209012138846
    H            0.319002798922    -1.059237025605    -0.162121227566
    H            0.533284822206    -0.222660296370     1.336517921679
    C            2.959294664065    -0.602425893859    -0.160623028753
    H            1.765232855348     0.847587878941    -1.215413829344
    H            2.140795438414     1.294485774854     0.411392832812
    H            2.734150215427    -1.435016070819    -0.818292125870
    H            3.913068855430    -0.186791124383    -0.465258009094
    H            3.076881309170    -0.998568045484     0.842851791188

  Mulliken Charges: (a.u.)
   Center  Symbol    Alpha    Beta     Spin     Total
       1     H     0.39577  0.39577  0.00000  0.20847
       2     O     4.19860  4.19860  0.00000 -0.39721
       3     C     2.97381  2.97381  0.00000  0.05238
       4     C     3.09137  3.09137  0.00000 -0.18273
       5     H     0.46552  0.46552  0.00000  0.06896
       6     H     0.47372  0.47372  0.00000  0.05257
       7     C     3.08653  3.08653  0.00000 -0.17306
       8     H     0.45181  0.45181  0.00000  0.09637
       9     H     0.45421  0.45421  0.00000  0.09159
      10     C     3.08373  3.08373  0.00000 -0.16746
      11     H     0.44533  0.44533  0.00000  0.10934
      12     H     0.45912  0.45912  0.00000  0.08175
      13     C     3.14906  3.14906  0.00000 -0.29813
      14     H     0.45579  0.45579  0.00000  0.08843
      15     H     0.45612  0.45612  0.00000  0.08776
      16     H     0.45419  0.45419  0.00000  0.09162
      17     H     0.44967  0.44967  0.00000  0.10065
      18     H     0.45564  0.45564  0.00000  0.08871

   Total alpha = 25.00000, Total beta = 25.00000, Total charge = -0.00000
