  ==> Input File <==

--------------------------------------------------------------------------
set {
	reference rhf
	basis 6-31G*
}

set_num_threads( 1 )
memory 2 gb

molecule MOL {
0 1

H	 -1.073232	 -0.398958	 -0.648870
C	 -0.790252	 0.431209	 0.000000
N	 0.538815	 0.649616	 0.000000
O	 -1.600335	 1.051087	 0.623479
C	 1.521968	 -0.411503	 0.000000
H	 0.852804	 1.592852	 0.000000
H	 2.150599	 -0.357004	 -0.881901
H	 0.999455	 -1.354525	 0.000000
H	 2.150599	 -0.357004	 0.881901

	symmetry c1
}
set optking {
	frozen_dihedral = ("
		6 3 5 7
	")
}

ee = energy('scf')
oeprop('DIPOLE', 'QUADRUPOLE', 'MULLIKEN_CHARGES')
f=open( 'psi4out.xyz', 'w' )
f.write( "9  " )
f.write( str(ee) + "\n" )
f.write( MOL.save_string_xyz() )
f.close()
--------------------------------------------------------------------------

    Molecular point group: c1

    Geometry (in Angstrom), charge = 0, multiplicity = 1:

       Center              X                  Y                   Z               Mass
    ------------   -----------------  -----------------  -----------------  -----------------
           H         -1.002910380630    -0.826886383480    -0.806712166497     1.007825032070
           C         -0.719930380630     0.003280616520    -0.157842166497    12.000000000000
           N          0.609136619370     0.221687616520    -0.157842166497    14.003074004780
           O         -1.530013380630     0.623158616520     0.465636833503    15.994914619560
           C          1.592289619370    -0.839431383480    -0.157842166497    12.000000000000
           H          0.923125619370     1.164923616520    -0.157842166497     1.007825032070
           H          2.220920619370    -0.784932383480    -1.039743166497     1.007825032070
           H          1.069776619370    -1.782453383480    -0.157842166497     1.007825032070
           H          2.220920619370    -0.784932383480     0.724058833503     1.007825032070

  Charge       = 0
  Multiplicity = 1
  Basis Set: 6-31G*
  Basis Set:

    Orbital Energies (a.u.)
    -----------------------

    Doubly Occupied:

       1A    -20.536597     2A    -15.577321     3A    -11.345705
       4A    -11.273762     5A     -1.392826     6A     -1.236135
       7A     -0.963116     8A     -0.841663     9A     -0.695551
      10A     -0.675216    11A     -0.635311    12A     -0.598566
      13A     -0.572261    14A     -0.525084    15A     -0.428400
      16A     -0.386154

  @DF-RHF Final Energy:  -207.94325264839040

   => Energetics <=

    Nuclear Repulsion Energy =            120.5157625661654919
    One-Electron Energy =                -521.5506867913430824
    Two-Electron Energy =                 193.0916715767870073
    DFT Exchange-Correlation Energy =       0.0000000000000000
    Empirical Dispersion Energy =           0.0000000000000000
    PCM Polarization Energy =               0.0000000000000000
    EFP Energy =                            0.0000000000000000
    Total Energy =                       -207.9432526483905690

  Mulliken Charges: (a.u.)
   Center  Symbol    Alpha    Beta     Spin     Total
       1     H     0.43116  0.43116  0.00000  0.13769
       2     C     2.75110  2.75110  0.00000  0.49779
       3     N     3.87822  3.87822  0.00000 -0.75643
       4     O     4.26408  4.26408  0.00000 -0.52816
       5     C     3.13955  3.13955  0.00000 -0.27911
       6     H     0.30477  0.30477  0.00000  0.39045
       7     H     0.41421  0.41421  0.00000  0.17159
       8     H     0.40985  0.40985  0.00000  0.18031
       9     H     0.40706  0.40706  0.00000  0.18588

   Total alpha = 16.00000, Total beta = 16.00000, Total charge =  0.00000
