  ==> Input File <==

--------------------------------------------------------------------------
set {
	reference rhf
	basis 6-31G*
}

set_num_threads( 4 )
memory 2 gb

molecule MOL {
0 1

O	 0.160943	 1.130174	 -0.531303
C	 0.028650	 0.075053	 -0.000277
C	 -1.233602	 -0.752807	 0.000328
O	 0.998210	 -0.524954	 0.677841
C	 -2.501530	 0.091881	 0.000126
H	 -1.193807	 -1.406641	 -0.865785
H	 -1.193516	 -1.405779	 0.867015
H	 -2.545121	 0.729328	 -0.874513
H	 -3.377167	 -0.548497	 0.000561
H	 -2.544818	 0.730135	 0.874258
C	 2.240852	 0.149892	 0.755386
H	 2.653156	 0.300998	 -0.231825
H	 2.887399	 -0.488416	 1.337110
H	 2.123413	 1.107509	 1.241851

	symmetry c1
}
set optking {
	frozen_dihedral = ("
		4 2 3 6
	")
}

ee = optimize('scf')
oeprop('DIPOLE', 'QUADRUPOLE', 'MULLIKEN_CHARGES')
f=open( 'psi4out.xyz', 'w' )
f.write( "14  " )
f.write( str(ee) + "\n" )
f.write( MOL.save_string_xyz() )
f.close()
--------------------------------------------------------------------------

    Molecular point group: c1
  Charge       = 0
  Multiplicity = 1
  Basis Set: 6-31G*
  Basis Set:
  @DF-RHF Final Energy:  -305.87108496913845
    Total Energy =                       -305.8710849691385647
    Molecular point group: c1
  Basis Set: 6-31G*
  Basis Set:
  Basis Set: 6-31G*
  Basis Set:
  @DF-RHF Final Energy:  -305.87123439915206
    Total Energy =                       -305.8712343991520015
  Basis Set: 6-31G*
  Basis Set:
  Basis Set: 6-31G*
  Basis Set:
  @DF-RHF Final Energy:  -305.87136516637895
    Total Energy =                       -305.8713651663788369
  Basis Set: 6-31G*
  Basis Set:
  Basis Set: 6-31G*
  Basis Set:
  @DF-RHF Final Energy:  -305.87141064704258
    Total Energy =                       -305.8714106470426941
  Basis Set: 6-31G*
  Basis Set:
  Basis Set: 6-31G*
  Basis Set:
  @DF-RHF Final Energy:  -305.87141698883511
    Total Energy =                       -305.8714169888351080
  Basis Set: 6-31G*
  Basis Set:
  Charge       = 0
  Multiplicity = 1
  Basis Set: 6-31G*
  Basis Set:

    Orbital Energies (a.u.)
    -----------------------

    Doubly Occupied:

       1A    -20.606038     2A    -20.544812     3A    -11.372946
       4A    -11.281553     5A    -11.238242     6A    -11.218626
       7A     -1.470677     8A     -1.363236     9A     -1.064227
      10A     -0.980451    11A     -0.878906    12A     -0.770336
      13A     -0.700018    14A     -0.682171    15A     -0.672069
      16A     -0.620276    17A     -0.602173    18A     -0.551350
      19A     -0.537971    20A     -0.518326    21A     -0.513781
      22A     -0.496940    23A     -0.456940    24A     -0.438156

  @DF-RHF Final Energy:  -305.87141753068698

   => Energetics <=

    Nuclear Repulsion Energy =            247.1521848168682141
    One-Electron Energy =                -906.8867608856693323
    Two-Electron Energy =                 353.8631585381139644
    DFT Exchange-Correlation Energy =       0.0000000000000000
    Empirical Dispersion Energy =           0.0000000000000000
    PCM Polarization Energy =               0.0000000000000000
    EFP Energy =                            0.0000000000000000
    Total Energy =                       -305.8714175306870970
    Molecular point group: c1
  Basis Set: 6-31G*
  Basis Set:

  -Total Gradient:
     Atom            X                  Y                   Z
    ------   -----------------  -----------------  -----------------
       1        0.000004041244    -0.000012597017     0.000022761244
       2        0.000240757438    -0.000334909252    -0.001194794427
       3        0.000512064331    -0.000803178431     0.000923970485
       4       -0.000278320646     0.000423809847     0.000879589998
       5        0.000019830454    -0.000001033609     0.000017570049
       6       -0.000525811418     0.000771197753    -0.000569055813
       7        0.000015198243    -0.000007870322     0.000002318948
       8       -0.000004910329     0.000012342170    -0.000015259424
       9        0.000013683396    -0.000009627055     0.000001499024
      10        0.000009674167    -0.000004758977    -0.000001951974
      11        0.000009981926    -0.000060569957    -0.000116149501
      12        0.000027122727     0.000016239125     0.000023534292
      13       -0.000008533222     0.000004423811     0.000013464241
      14       -0.000034778313     0.000006531915     0.000012502855

  **** Optimization is complete! (in 6 steps) ****
    Final optimized geometry and variables:
    Molecular point group: c1

    Geometry (in Angstrom), charge = 0, multiplicity = 1:

    O            0.165807564540     1.093320035509    -0.659281048797
    C            0.049573844210     0.035030145631    -0.129403281041
    C           -1.208732242752    -0.800682573276    -0.138549602655
    O            1.034479945170    -0.559542055062     0.528758979758
    C           -2.474428836630     0.051296759629    -0.189686101852
    H           -1.152923399274    -1.431000504921    -1.023034685138
    H           -1.201189119173    -1.459806274993     0.720092805993
    H           -2.463167549374     0.705609315067    -1.051504973179
    H           -3.351291367525    -0.584236368106    -0.249048651845
    H           -2.566483201367     0.668973573102     0.697212166962
    C            2.281269777014     0.111798827150     0.562054560164
    H            2.665288657147     0.250371833224    -0.438340747248
    H            2.942213659463    -0.521990013150     1.132391873888
    H            2.179930814100     1.075175613319     1.040453804908

  Mulliken Charges: (a.u.)
   Center  Symbol    Alpha    Beta     Spin     Total
       1     O     4.28584  4.28584  0.00000 -0.57169
       2     C     2.60641  2.60641  0.00000  0.78717
       3     C     3.20657  3.20657  0.00000 -0.41314
       4     O     4.30525  4.30525  0.00000 -0.61050
       5     C     3.24293  3.24293  0.00000 -0.48585
       6     H     0.39979  0.39979  0.00000  0.20042
       7     H     0.40002  0.40002  0.00000  0.19996
       8     H     0.40318  0.40318  0.00000  0.19364
       9     H     0.41654  0.41654  0.00000  0.16692
      10     H     0.41484  0.41484  0.00000  0.17031
      11     C     3.09315  3.09315  0.00000 -0.18629
      12     H     0.40897  0.40897  0.00000  0.18205
      13     H     0.40829  0.40829  0.00000  0.18341
      14     H     0.40822  0.40822  0.00000  0.18356

   Total alpha = 24.00000, Total beta = 24.00000, Total charge = -0.00000
