                              Psi4 1.0.54 Driver

  ==> Input File <==

--------------------------------------------------------------------------
set {
	reference rhf
	basis cc-pvtz
}

set_num_threads( 4 )
memory 2 gb

molecule MOL {
0 1

H	 5.286789	 1.099886	 0.938638
C	 4.738787	 0.449151	 0.266995
C	 3.268321	 0.362246	 0.661330
H	 4.848869	 0.842490	 -0.737686
H	 5.211482	 -0.527400	 0.293590
C	 2.465836	 -0.556017	 -0.257790
H	 2.835090	 1.355755	 0.647555
H	 3.191791	 0.000731	 1.684205
C	 0.991282	 -0.667481	 0.116580
H	 2.544691	 -0.205057	 -1.279278
H	 2.900252	 -1.551179	 -0.230987
C	 0.166485	 0.574257	 -0.177158
H	 0.528928	 -1.476445	 -0.443395
H	 0.874775	 -0.930898	 1.163745
C	 -1.180025	 0.697761	 0.509157
O	 0.545791	 1.411529	 -0.931066
C	 -2.285431	 -0.137488	 -0.145671
H	 -1.447360	 1.745713	 0.496200
H	 -1.065514	 0.394096	 1.546399
C	 -3.646545	 0.082747	 0.508954
H	 -2.348635	 0.118247	 -1.199806
H	 -2.034895	 -1.192387	 -0.096473
C	 -4.757412	 -0.737227	 -0.138149
H	 -3.900211	 1.137405	 0.459735
H	 -3.580878	 -0.166775	 1.564416
H	 -4.867876	 -0.486707	 -1.187777
H	 -4.549650	 -1.800049	 -0.072540
H	 -5.709585	 -0.556397	 0.346597

	symmetry c1
}
set optking {
	frozen_dihedral = ("
		16 12 15 17
	")
}

ee,wfn = optimize('scf', return_wfn=True)
oeprop( wfn, 'DIPOLE', 'QUADRUPOLE', 'MULLIKEN_CHARGES')
f=open( 'psi4out.xyz', 'w' )
f.write( "28  " )
f.write( str(ee) + "\n" )
f.write( MOL.save_string_xyz() )
f.close()
--------------------------------------------------------------------------

    Molecular point group: c1
  Charge       = 0
  Multiplicity = 1
  Basis Set: CC-PVTZ
  Basis Set:
  @DF-RHF Final Energy:  -426.31965739069233
    Total Energy =                       -426.3196573906923277
    Molecular point group: c1
  Basis Set: CC-PVTZ
  Basis Set:
  Basis Set: CC-PVTZ
  Basis Set:
  @DF-RHF Final Energy:  -426.31717784170519
    Total Energy =                       -426.3171778417054156
  Basis Set: CC-PVTZ
  Basis Set:
  Basis Set: CC-PVTZ
  Basis Set:
  @DF-RHF Final Energy:  -426.31968972447692
    Total Energy =                       -426.3196897244772572
  Basis Set: CC-PVTZ
  Basis Set:
  Basis Set: CC-PVTZ
  Basis Set:
  @DF-RHF Final Energy:  -426.31965106603366
    Total Energy =                       -426.3196510660329750
  Basis Set: CC-PVTZ
  Basis Set:
  @DF-RHF Final Energy:  -426.31990003120927
    Total Energy =                       -426.3199000312089311
  Basis Set: CC-PVTZ
  Basis Set:
  @DF-RHF Final Energy:  -426.31992535096128
    Total Energy =                       -426.3199253509607161
  Basis Set: CC-PVTZ
  Basis Set:
  Basis Set: CC-PVTZ
  Basis Set:
  @DF-RHF Final Energy:  -426.31994384419500
    Total Energy =                       -426.3199438441954499
  Basis Set: CC-PVTZ
  Basis Set:
  Basis Set: CC-PVTZ
  Basis Set:
  @DF-RHF Final Energy:  -426.31995196247442
    Total Energy =                       -426.3199519624752156
  Basis Set: CC-PVTZ
  Basis Set:
  Charge       = 0
  Multiplicity = 1
  Basis Set: CC-PVTZ
  Basis Set:

    Orbital Energies (a.u.)
    -----------------------

    Doubly Occupied:

       1A    -20.536910     2A    -11.316742     3A    -11.229243
       4A    -11.228644     5A    -11.226599     6A    -11.223245
       7A    -11.214321     8A    -11.213618     9A    -11.209223
      10A    -11.203034    11A     -1.396837    12A     -1.095109
      13A     -1.078522    14A     -1.023463    15A     -0.991576
      16A     -0.908669    17A     -0.871921    18A     -0.808835
      19A     -0.798665    20A     -0.725660    21A     -0.671631
      22A     -0.652402    23A     -0.632009    24A     -0.619237
      25A     -0.609508    26A     -0.589545    27A     -0.576112
      28A     -0.573910    29A     -0.542602    30A     -0.535184
      31A     -0.522584    32A     -0.505683    33A     -0.502720
      34A     -0.484398    35A     -0.477950    36A     -0.476738
      37A     -0.471472    38A     -0.464823    39A     -0.456115
      40A     -0.394204

  @DF-RHF Final Energy:  -426.31995282788807

   => Energetics <=

    Nuclear Repulsion Energy =            531.1059838501256536
    One-Electron Energy =               -1630.7325544072268713
    Two-Electron Energy =                 673.3066177292139400
    DFT Exchange-Correlation Energy =       0.0000000000000000
    Empirical Dispersion Energy =           0.0000000000000000
    PCM Polarization Energy =               0.0000000000000000
    EFP Energy =                            0.0000000000000000
    Total Energy =                       -426.3199528278873913
    Molecular point group: c1
  Basis Set: CC-PVTZ
  Basis Set:

  -Total Gradient:
     Atom            X                  Y                   Z
    ------   -----------------  -----------------  -----------------
       1        0.000003628688     0.000002707880     0.000007810894
       2       -0.000005730347     0.000001440960    -0.000007182273
       3       -0.000000958178     0.000001082186     0.000000527768
       4       -0.000000044440     0.000002229100    -0.000004666700
       5        0.000003874881    -0.000007547150     0.000001436396
       6       -0.000013306342     0.000014610838    -0.000004579360
       7       -0.000003467413     0.000005007399    -0.000005106683
       8       -0.000004763522    -0.000005141871     0.000003201441
       9        0.000016795475     0.000035477831     0.000001615001
      10        0.000007960281     0.000005187980    -0.000009116329
      11       -0.000004042470    -0.000001562724     0.000001974655
      12       -0.000284574658    -0.000475265070    -0.000527729967
      13       -0.000011710981    -0.000024566479    -0.000006354990
      14       -0.000003834720    -0.000005993627     0.000016089569
      15        0.000011864918     0.000554810023    -0.000135494381
      16        0.000252689735     0.000228096461     0.000436433051
      17        0.000025354686    -0.000363020889     0.000176835156
      18        0.000000359301     0.000012557650    -0.000001381712
      19       -0.000003226850    -0.000016961695     0.000008599803
      20        0.000021798544     0.000014393940    -0.000009638389
      21        0.000022573473    -0.000007416354     0.000053076336
      22       -0.000018243496     0.000045302571     0.000001613204
      23       -0.000024965140    -0.000011817781     0.000023436159
      24       -0.000004415545    -0.000022092217    -0.000004510225
      25       -0.000018690454     0.000014422053    -0.000029506093
      26        0.000005861886    -0.000002372616     0.000040225295
      27       -0.000004059843     0.000022549614    -0.000007431886
      28        0.000033272530    -0.000016118012    -0.000020175740

  **** Optimization is complete! (in 9 steps) ****
    Final optimized geometry and variables:
    Molecular point group: c1

    Geometry (in Angstrom), charge = 0, multiplicity = 1:

    H            5.441244867623     0.391069192217     0.320719058155
    C            4.720766364206    -0.190496184260    -0.242838488187
    C            3.329207651391    -0.089325082689     0.372394138582
    H            4.722545372089     0.179360494576    -1.262408124272
    H            5.068713935587    -1.218365719677    -0.263113878697
    C            2.289403578442    -0.909677128181    -0.388013946344
    H            3.022135028908     0.949161818639     0.396927285869
    H            3.367651322835    -0.430735485066     1.404308883743
    C            0.885499844636    -0.831086897330     0.202990298279
    H            2.257212093815    -0.585117539616    -1.421168763564
    H            2.598164786748    -1.951089814568    -0.394360575013
    C            0.158246630884     0.479277154113    -0.039130716969
    H            0.259187657874    -1.615457803341    -0.213699078574
    H            0.905342534963    -1.015371422491     1.273771125169
    C           -1.186348530416     0.662813881424     0.639644694160
    O            0.600156880318     1.325154895222    -0.747974152688
    C           -2.316935635342    -0.074843890288    -0.088398489698
    H           -1.392942078264     1.724612009381     0.654926502375
    H           -1.128295134356     0.312755208920     1.665492505044
    C           -3.682295825500     0.178059392943     0.544848473707
    H           -2.335479311778     0.244508038051    -1.125920704326
    H           -2.121035285579    -1.142631810046    -0.094245707212
    C           -4.813764352472    -0.549900993373    -0.172699657847
    H           -3.882845325676     1.245238403921     0.546446405536
    H           -3.657670519212    -0.130126622982     1.586409481400
    H           -4.884538218900    -0.237317032653    -1.208897345980
    H           -4.658611104400    -1.623582127089    -0.161671478308
    H           -5.768476600076    -0.349391386294     0.299041377832

  Mulliken Charges: (a.u.)
   Center  Symbol    Alpha    Beta     Spin     Total
       1     H     0.44875  0.44875  0.00000  0.10250
       2     C     3.15179  3.15179  0.00000 -0.30359
       3     C     3.08376  3.08376  0.00000 -0.16752
       4     H     0.45205  0.45205  0.00000  0.09591
       5     H     0.45724  0.45724  0.00000  0.08551
       6     C     3.08704  3.08704  0.00000 -0.17407
       7     H     0.44423  0.44423  0.00000  0.11153
       8     H     0.45883  0.45883  0.00000  0.08233
       9     C     3.12956  3.12956  0.00000 -0.25912
      10     H     0.44551  0.44551  0.00000  0.10898
      11     H     0.44807  0.44807  0.00000  0.10387
      12     C     2.86796  2.86796  0.00000  0.26408
      13     H     0.43344  0.43344  0.00000  0.13313
      14     H     0.44336  0.44336  0.00000  0.11328
      15     C     3.09048  3.09048  0.00000 -0.18095
      16     O     4.17991  4.17991  0.00000 -0.35981
      17     C     3.09893  3.09893  0.00000 -0.19786
      18     H     0.43805  0.43805  0.00000  0.12391
      19     H     0.44897  0.44897  0.00000  0.10205
      20     C     3.08749  3.08749  0.00000 -0.17499
      21     H     0.44391  0.44391  0.00000  0.11219
      22     H     0.45178  0.45178  0.00000  0.09644
      23     C     3.14921  3.14921  0.00000 -0.29842
      24     H     0.45040  0.45040  0.00000  0.09920
      25     H     0.45386  0.45386  0.00000  0.09229
      26     H     0.45310  0.45310  0.00000  0.09381
      27     H     0.45530  0.45530  0.00000  0.08939
      28     H     0.44703  0.44703  0.00000  0.10595

   Total alpha = 40.00000, Total beta = 40.00000, Total charge = -0.00000

*** Psi4 exiting successfully. Buy a developer a beer!
