                              Psi4 1.0.54 Driver

  ==> Input File <==

--------------------------------------------------------------------------
set {
	reference rhf
	basis cc-pvtz
}

set_num_threads( 4 )
memory 2 gb

molecule MOL {
0 1

H	 3.721907	 -0.933076	 -0.066039
O	 2.824271	 -1.154299	 0.131461
C	 2.076458	 -0.067370	 -0.038225
C	 0.626018	 -0.337582	 0.258241
O	 2.538288	 0.965419	 -0.381593
C	 -0.267326	 0.883135	 0.076490
H	 0.325620	 -1.161483	 -0.378003
H	 0.574537	 -0.713685	 1.275261
C	 -1.726822	 0.642622	 0.463839
H	 -0.210803	 1.217591	 -0.953497
H	 0.129920	 1.693110	 0.675679
C	 -2.480891	 -0.340606	 -0.429852
H	 -2.243098	 1.597649	 0.438609
H	 -1.776542	 0.301208	 1.495542
C	 -1.826154	 -1.717498	 -0.474171
H	 -3.501556	 -0.438778	 -0.069796
H	 -2.549326	 0.048370	 -1.440777
H	 -2.380911	 -2.395609	 -1.112209
H	 -1.777140	 -2.159228	 0.515360
H	 -0.813219	 -1.656586	 -0.858109

	symmetry c1
}
set optking {
	frozen_dihedral = ("
		16 12 9 6
	")
}

ee,wfn = optimize('scf', return_wfn=True)
oeprop( wfn, 'DIPOLE', 'QUADRUPOLE', 'MULLIKEN_CHARGES')
f=open( 'psi4out.xyz', 'w' )
f.write( "20  " )
f.write( str(ee) + "\n" )
f.write( MOL.save_string_xyz() )
f.close()
--------------------------------------------------------------------------

    Molecular point group: c1
  Charge       = 0
  Multiplicity = 1
  Basis Set: CC-PVTZ
  Basis Set:
  @DF-RHF Final Energy:  -384.06915623008524
    Total Energy =                       -384.0691562300853548
    Molecular point group: c1
  Basis Set: CC-PVTZ
  Basis Set:
  Basis Set: CC-PVTZ
  Basis Set:
  @DF-RHF Final Energy:  -384.08488104572768
    Total Energy =                       -384.0848810457280251
  Basis Set: CC-PVTZ
  Basis Set:
  Basis Set: CC-PVTZ
  Basis Set:
  @DF-RHF Final Energy:  -384.08851400148188
    Total Energy =                       -384.0885140014820536
  Basis Set: CC-PVTZ
  Basis Set:
  Basis Set: CC-PVTZ
  Basis Set:
  @DF-RHF Final Energy:  -384.08707881140657
    Total Energy =                       -384.0870788114065135
  Basis Set: CC-PVTZ
  Basis Set:
  @DF-RHF Final Energy:  -384.08949077072998
    Total Energy =                       -384.0894907707298671
  @DF-RHF Final Energy:  -384.08999870111336
    Total Energy =                       -384.0899987011131316
  @DF-RHF Final Energy:  -384.09029205865443
    Total Energy =                       -384.0902920586545406
  Basis Set: CC-PVTZ
  Basis Set:
  @DF-RHF Final Energy:  -384.09037517923144
    Total Energy =                       -384.0903751792316143
  Basis Set: CC-PVTZ
  Basis Set:
  Basis Set: CC-PVTZ
  Basis Set:
  @DF-RHF Final Energy:  -384.09039035504549
    Total Energy =                       -384.0903903550455425
  Basis Set: CC-PVTZ
  Basis Set:
  Basis Set: CC-PVTZ
  Basis Set:
  @DF-RHF Final Energy:  -384.09039195268576
    Total Energy =                       -384.0903919526856498
  Basis Set: CC-PVTZ
  Basis Set:
  Charge       = 0
  Multiplicity = 1
  Basis Set: CC-PVTZ
  Basis Set:

    Orbital Energies (a.u.)
    -----------------------

    Doubly Occupied:

       1A    -20.603530     2A    -20.540255     3A    -11.372941
       4A    -11.237909     5A    -11.220935     6A    -11.218977
       7A    -11.218348     8A    -11.211938     9A     -1.477078
      10A     -1.368615    11A     -1.095629    12A     -1.040268
      13A     -0.962238    14A     -0.880425    15A     -0.808740
      16A     -0.778154    17A     -0.703307    18A     -0.689540
      19A     -0.669158    20A     -0.628790    21A     -0.619162
      22A     -0.594067    23A     -0.573859    24A     -0.560485
      25A     -0.532442    26A     -0.517716    27A     -0.504353
      28A     -0.484054    29A     -0.470120    30A     -0.465395
      31A     -0.455490    32A     -0.443681

  @DF-RHF Final Energy:  -384.09039278372359

   => Energetics <=

    Nuclear Repulsion Energy =            383.2161682314384734
    One-Electron Energy =               -1282.7179250416975265
    Two-Electron Energy =                 515.4113640265356935
    DFT Exchange-Correlation Energy =       0.0000000000000000
    Empirical Dispersion Energy =           0.0000000000000000
    PCM Polarization Energy =               0.0000000000000000
    EFP Energy =                            0.0000000000000000
    Total Energy =                       -384.0903927837233596
    Molecular point group: c1
  Basis Set: CC-PVTZ
  Basis Set:

  -Total Gradient:
     Atom            X                  Y                   Z
    ------   -----------------  -----------------  -----------------
       1        0.000006668827     0.000010496905    -0.000010610880
       2        0.000037259186    -0.000059760135     0.000059444260
       3       -0.000062584243     0.000085895628    -0.000111133231
       4        0.000026502783    -0.000051339401    -0.000037747278
       5        0.000013179163    -0.000026328918     0.000052621060
       6        0.000312994518    -0.000712204256     0.000718798741
       7       -0.000039475650    -0.000008253036     0.000006139458
       8        0.000006856998     0.000026417644     0.000033158437
       9       -0.000379058215     0.000866819229    -0.000790900381
      10        0.000001866957     0.000005042811    -0.000014173576
      11       -0.000009511951    -0.000034074767    -0.000001249582
      12       -0.000367913058     0.000866261530    -0.000897176601
      13       -0.000006875267    -0.000014640120     0.000004808537
      14        0.000005605556     0.000013230872    -0.000002969895
      15        0.000005564460     0.000006372425    -0.000015200151
      16        0.000423728284    -0.000974466747     0.000979979211
      17       -0.000000577488    -0.000014197967     0.000002167709
      18        0.000000479048    -0.000001488315    -0.000010559847
      19        0.000005361758     0.000001583996     0.000023126085
      20        0.000019928340     0.000014632621     0.000011477929

  **** Optimization is complete! (in 11 steps) ****
    Final optimized geometry and variables:
    Molecular point group: c1

    Geometry (in Angstrom), charge = 0, multiplicity = 1:

    H            3.574033454207    -0.263879692180     0.661943587546
    O            2.691627443455    -0.430766103263     0.957323121735
    C            1.854695609684     0.273280559680     0.199815128021
    C            0.421926823538     0.061996997638     0.608898600126
    O            2.235264730523     0.968260221420    -0.677888641740
    C           -0.571958049774     0.860305034193    -0.227539376958
    H            0.234945233440    -1.003313975600     0.568586829537
    H            0.349666957466     0.333467011300     1.657151452144
    C           -2.040260806189     0.656032203485     0.180551618343
    H           -0.438071967384     0.621021546991    -1.276248303429
    H           -0.317118527374     1.908255889014    -0.132565016727
    C           -2.807804429140    -0.428709374694    -0.581956347022
    H           -2.570461461641     1.590129723514     0.031345250891
    H           -2.095530872128     0.451874379180     1.247314373660
    C           -2.228374675093    -1.839242394074    -0.507619816392
    H           -3.819705504038    -0.458010856062    -0.189464713897
    H           -2.889948155503    -0.134974092951    -1.624483993029
    H           -2.884350963519    -2.543555437874    -1.005939069099
    H           -2.115666256816    -2.167449647623     0.520749374170
    H           -1.260335168351    -1.906733531344    -0.989561657417

  Mulliken Charges: (a.u.)
   Center  Symbol    Alpha    Beta     Spin     Total
       1     H     0.38250  0.38250  0.00000  0.23499
       2     O     4.16068  4.16068  0.00000 -0.32135
       3     C     2.80387  2.80387  0.00000  0.39227
       4     C     3.11217  3.11217  0.00000 -0.22434
       5     O     4.19137  4.19137  0.00000 -0.38273
       6     C     3.09996  3.09996  0.00000 -0.19991
       7     H     0.43557  0.43557  0.00000  0.12885
       8     H     0.43636  0.43636  0.00000  0.12729
       9     C     3.10394  3.10394  0.00000 -0.20787
      10     H     0.44299  0.44299  0.00000  0.11402
      11     H     0.43785  0.43785  0.00000  0.12430
      12     C     3.08457  3.08457  0.00000 -0.16914
      13     H     0.44148  0.44148  0.00000  0.11703
      14     H     0.45558  0.45558  0.00000  0.08885
      15     C     3.16190  3.16190  0.00000 -0.32381
      16     H     0.44883  0.44883  0.00000  0.10234
      17     H     0.45195  0.45195  0.00000  0.09609
      18     H     0.44169  0.44169  0.00000  0.11662
      19     H     0.45317  0.45317  0.00000  0.09365
      20     H     0.45358  0.45358  0.00000  0.09284

   Total alpha = 32.00000, Total beta = 32.00000, Total charge =  0.00000

*** Psi4 exiting successfully. Buy a developer a beer!
