  ==> Input File <==

--------------------------------------------------------------------------
set {
	reference rhf
	basis 6-31G*
}

set_num_threads( 1 )
memory 2 gb

molecule MOL {
0 1

H	 -3.135461	 -1.215070	 0.001379
O	 -2.310168	 -0.871793	 -0.309793
C	 -2.026376	 0.340750	 0.341611
C	 -0.673256	 0.843270	 -0.132153
H	 -2.792215	 1.080697	 0.115987
H	 -2.013526	 0.200402	 1.421792
C	 0.486613	 -0.083066	 0.235839
H	 -0.715586	 0.970948	 -1.210718
H	 -0.508072	 1.829858	 0.297090
C	 0.020488	 -1.444884	 0.753520
H	 1.103760	 0.400582	 0.985991
H	 1.119571	 -0.229604	 -0.638651
C	 1.179621	 -2.372720	 1.115742
H	 -0.611151	 -1.300036	 1.627458
H	 -0.603961	 -1.924823	 0.002411
H	 1.803185	 -1.935342	 1.890182
H	 0.819402	 -3.329417	 1.481687
H	 1.811912	 -2.565332	 0.253408

	symmetry c1
}
set optking {
	frozen_dihedral = ("
		14 10 7 11,
		2 3 4 8,
		1 2 3 4
	")
}

ee = energy('scf')
oeprop('DIPOLE', 'QUADRUPOLE', 'MULLIKEN_CHARGES')
f=open( 'psi4out.xyz', 'w' )
f.write( "18  " )
f.write( str(ee) + "\n" )
f.write( MOL.save_string_xyz() )
f.close()
--------------------------------------------------------------------------

    Molecular point group: c1

    Geometry (in Angstrom), charge = 0, multiplicity = 1:

       Center              X                  Y                   Z               Mass
    ------------   -----------------  -----------------  -----------------  -----------------
           H         -2.535417421315    -0.594969412288    -0.328927927602     1.007825032070
           O         -1.710124421315    -0.251692412288    -0.640099927602    15.994914619560
           C         -1.426332421315     0.960850587712     0.011304072398    12.000000000000
           C         -0.073212421315     1.463370587712    -0.462459927602    12.000000000000
           H         -2.192171421315     1.700797587712    -0.214319927602     1.007825032070
           H         -1.413482421315     0.820502587712     1.091485072398     1.007825032070
           C          1.086656578685     0.537034587712    -0.094467927602    12.000000000000
           H         -0.115542421315     1.591048587712    -1.541024927602     1.007825032070
           H          0.091971578685     2.449958587712    -0.033216927602     1.007825032070
           C          0.620531578685    -0.824783412288     0.423213072398    12.000000000000
           H          1.703803578685     1.020682587712     0.655684072398     1.007825032070
           H          1.719614578685     0.390496587712    -0.968957927602     1.007825032070
           C          1.779664578685    -1.752619412288     0.785435072398    12.000000000000
           H         -0.011107421315    -0.679935412288     1.297151072398     1.007825032070
           H         -0.003917421315    -1.304722412288    -0.327895927602     1.007825032070
           H          2.403228578685    -1.315241412288     1.559875072398     1.007825032070
           H          1.419445578685    -2.709316412288     1.151380072398     1.007825032070
           H          2.411955578685    -1.945231412288    -0.076898927602     1.007825032070

  Charge       = 0
  Multiplicity = 1
  Basis Set: 6-31G*
  Basis Set:

    Orbital Energies (a.u.)
    -----------------------

    Doubly Occupied:

       1A    -20.554093     2A    -11.269087     3A    -11.211613
       4A    -11.205259     5A    -11.195754     6A    -11.193647
       7A     -1.364808     8A     -1.072718     9A     -1.001500
      10A     -0.910578    11A     -0.830575    12A     -0.764723
      13A     -0.708116    14A     -0.650606    15A     -0.617388
      16A     -0.579661    17A     -0.565656    18A     -0.551468
      19A     -0.533752    20A     -0.495370    21A     -0.486522
      22A     -0.469482    23A     -0.448664    24A     -0.439396
      25A     -0.413650

  @DF-RHF Final Energy:  -271.16011177270826

   => Energetics <=

    Nuclear Repulsion Energy =            261.1560916252742004
    One-Electron Energy =                -885.5641295464082532
    Two-Electron Energy =                 353.2479261484259041
    DFT Exchange-Correlation Energy =       0.0000000000000000
    Empirical Dispersion Energy =           0.0000000000000000
    PCM Polarization Energy =               0.0000000000000000
    EFP Energy =                            0.0000000000000000
    Total Energy =                       -271.1601117727082055

  Mulliken Charges: (a.u.)
   Center  Symbol    Alpha    Beta     Spin     Total
       1     H     0.28076  0.28076  0.00000  0.43849
       2     O     4.36734  4.36734  0.00000 -0.73468
       3     C     3.01227  3.01227  0.00000 -0.02454
       4     C     3.15869  3.15869  0.00000 -0.31737
       5     H     0.42530  0.42530  0.00000  0.14941
       6     H     0.42890  0.42890  0.00000  0.14221
       7     C     3.15470  3.15470  0.00000 -0.30940
       8     H     0.41305  0.41305  0.00000  0.17390
       9     H     0.42092  0.42092  0.00000  0.15816
      10     C     3.15836  3.15836  0.00000 -0.31673
      11     H     0.42419  0.42419  0.00000  0.15161
      12     H     0.42049  0.42049  0.00000  0.15901
      13     C     3.23633  3.23633  0.00000 -0.47267
      14     H     0.43110  0.43110  0.00000  0.13779
      15     H     0.39254  0.39254  0.00000  0.21491
      16     H     0.42755  0.42755  0.00000  0.14490
      17     H     0.42304  0.42304  0.00000  0.15393
      18     H     0.42447  0.42447  0.00000  0.15107

   Total alpha = 25.00000, Total beta = 25.00000, Total charge = -0.00000
