  ==> Input File <==

--------------------------------------------------------------------------
set {
	reference rhf
	basis 6-31G*
}

set_num_threads( 4 )
memory 2 gb

molecule MOL {
0 1

O	 -2.042549	 -1.228399	 -0.269030
C	 -1.653912	 -0.146171	 0.050137
C	 -0.332303	 0.024011	 0.778412
C	 -2.438579	 1.106236	 -0.272369
C	 -0.159886	 1.468844	 1.272987
H	 -0.267793	 -0.664007	 1.616775
H	 0.461512	 -0.217531	 0.080245
C	 1.174280	 1.691693	 1.986689
H	 -0.974581	 1.726609	 1.947459
H	 -0.237635	 2.137867	 0.421222
C	 1.352265	 3.129852	 2.471689
H	 1.249599	 1.012287	 2.832952
H	 1.987874	 1.433631	 1.312866
H	 0.571648	 3.406800	 3.174533
H	 1.314111	 3.830230	 1.642559
H	 2.307396	 3.259148	 2.970722
H	 -3.277823	 0.863061	 -0.908988
H	 -1.806773	 1.843019	 -0.759671
H	 -2.802853	 1.554979	 0.648059

	symmetry c1
}
set optking {
	frozen_dihedral = ("
		5 3 2 4
	")
}

ee = optimize('scf')
oeprop('DIPOLE', 'QUADRUPOLE', 'MULLIKEN_CHARGES')
f=open( 'psi4out.xyz', 'w' )
f.write( "19  " )
f.write( str(ee) + "\n" )
f.write( MOL.save_string_xyz() )
f.close()
--------------------------------------------------------------------------

    Molecular point group: c1
  Charge       = 0
  Multiplicity = 1
  Basis Set: 6-31G*
  Basis Set:
  @DF-RHF Final Energy:  -309.05740202816600
    Total Energy =                       -309.0574020281661092
    Molecular point group: c1
  Basis Set: 6-31G*
  Basis Set:
  Basis Set: 6-31G*
  Basis Set:
  @DF-RHF Final Energy:  -309.05996202676329
    Total Energy =                       -309.0599620267632304
  Basis Set: 6-31G*
  Basis Set:
  Basis Set: 6-31G*
  Basis Set:
  @DF-RHF Final Energy:  -309.06231264821071
    Total Energy =                       -309.0623126482110479
  Basis Set: 6-31G*
  Basis Set:
  Basis Set: 6-31G*
  Basis Set:
  @DF-RHF Final Energy:  -309.06263063837395
    Total Energy =                       -309.0626306383740030
  Basis Set: 6-31G*
  Basis Set:
  @DF-RHF Final Energy:  -309.06262881003312
    Total Energy =                       -309.0626288100331749
  @DF-RHF Final Energy:  -309.06267609661091
    Total Energy =                       -309.0626760966108009
  @DF-RHF Final Energy:  -309.06270686047407
    Total Energy =                       -309.0627068604741794
  @DF-RHF Final Energy:  -309.06271330791998
    Total Energy =                       -309.0627133079199211
  Basis Set: 6-31G*
  Basis Set:
  @DF-RHF Final Energy:  -309.06271520775999
    Total Energy =                       -309.0627152077597657
  Basis Set: 6-31G*
  Basis Set:
  Basis Set: 6-31G*
  Basis Set:
  @DF-RHF Final Energy:  -309.06270270707455
    Total Energy =                       -309.0627027070744361
  Basis Set: 6-31G*
  Basis Set:
  Basis Set: 6-31G*
  Basis Set:
  @DF-RHF Final Energy:  -309.06271669515411
    Total Energy =                       -309.0627166951543359
  Basis Set: 6-31G*
  Basis Set:
  Charge       = 0
  Multiplicity = 1
  Basis Set: 6-31G*
  Basis Set:

    Orbital Energies (a.u.)
    -----------------------

    Doubly Occupied:

       1A    -20.545194     2A    -11.326134     3A    -11.231392
       4A    -11.230766     5A    -11.227680     6A    -11.226954
       7A    -11.217341     8A     -1.392434     9A     -1.094093
      10A     -1.027342    11A     -0.982842    12A     -0.895548
      13A     -0.810409    14A     -0.731630    15A     -0.662870
      16A     -0.647424    17A     -0.626921    18A     -0.611623
      19A     -0.585900    20A     -0.572433    21A     -0.552579
      22A     -0.529168    23A     -0.526092    24A     -0.490333
      25A     -0.486041    26A     -0.482466    27A     -0.467410
      28A     -0.396570

  @DF-RHF Final Energy:  -309.06271671885253

   => Energetics <=

    Nuclear Repulsion Energy =            300.7184263669077495
    One-Electron Energy =               -1014.4071099137918281
    Two-Electron Energy =                 404.6259668280313235
    DFT Exchange-Correlation Energy =       0.0000000000000000
    Empirical Dispersion Energy =           0.0000000000000000
    PCM Polarization Energy =               0.0000000000000000
    EFP Energy =                            0.0000000000000000
    Total Energy =                       -309.0627167188526982
    Molecular point group: c1
  Basis Set: 6-31G*
  Basis Set:

  -Total Gradient:
     Atom            X                  Y                   Z
    ------   -----------------  -----------------  -----------------
       1        0.000012443346     0.000005352852     0.000004676243
       2        0.000653959485     0.000163942607    -0.001246104852
       3       -0.000618891365    -0.000300798574     0.001206080933
       4       -0.000345550558    -0.000052638153     0.000615249641
       5        0.000317730049     0.000192546155    -0.000616054681
       6        0.000002887181     0.000005895704     0.000006011882
       7       -0.000001944574    -0.000001501854    -0.000004502678
       8       -0.000006888428    -0.000007009119     0.000017190319
       9       -0.000006733768    -0.000008101950    -0.000000720452
      10        0.000003793074     0.000002392841     0.000012234055
      11        0.000001793389     0.000002068851    -0.000013809833
      12        0.000001366667     0.000003890448     0.000008772212
      13       -0.000002857015    -0.000006135387     0.000001523705
      14        0.000002450746    -0.000004523291     0.000000460363
      15       -0.000002580384     0.000004556480    -0.000000158167
      16        0.000001299984    -0.000001332636    -0.000005227281
      17        0.000000366986     0.000001513098     0.000004058178
      18       -0.000010788840    -0.000003501898     0.000002129653
      19       -0.000001855972     0.000003383826     0.000008190762

  **** Optimization is complete! (in 12 steps) ****
    Final optimized geometry and variables:
    Molecular point group: c1

    Geometry (in Angstrom), charge = 0, multiplicity = 1:

    O           -1.371372629367    -2.151924256169    -1.110983430936
    C           -1.090659212665    -1.024037249840    -0.839542779528
    C            0.209791206918    -0.738115690220    -0.095477524183
    C           -2.001137224676     0.117887471105    -1.236511438716
    C            0.441051107117     0.679145277325     0.431615102416
    H            0.260609979181    -1.459080621677     0.714479085274
    H            1.009638512007    -1.009472713201    -0.781582449816
    C            1.784796439060     0.813470652680     1.151615337842
    H           -0.356180017729     0.956129819274     1.117924558085
    H            0.405724953896     1.394437192792    -0.386253201321
    C            2.034370262162     2.223365539246     1.685026294289
    H            1.824681945491     0.103096266901     1.974133290736
    H            2.586619144928     0.537116654602     0.470575644265
    H            1.267180076510     2.515399517739     2.396429560117
    H            2.034163065691     2.953368607814     0.880571026974
    H            2.993520766737     2.287243942210     2.188804037469
    H           -2.857143606343    -0.281240329113    -1.762083694553
    H           -1.478565093248     0.821540385716    -1.877515422091
    H           -2.335711973434     0.666493338495    -0.361885759669

  Mulliken Charges: (a.u.)
   Center  Symbol    Alpha    Beta     Spin     Total
       1     O     4.26363  4.26363  0.00000 -0.52726
       2     C     2.73679  2.73679  0.00000  0.52641
       3     C     3.20517  3.20517  0.00000 -0.41034
       4     C     3.29170  3.29170  0.00000 -0.58340
       5     C     3.16065  3.16065  0.00000 -0.32129
       6     H     0.39916  0.39916  0.00000  0.20167
       7     H     0.40167  0.40167  0.00000  0.19667
       8     C     3.15228  3.15228  0.00000 -0.30456
       9     H     0.41986  0.41986  0.00000  0.16027
      10     H     0.42011  0.42011  0.00000  0.15979
      11     C     3.23987  3.23987  0.00000 -0.47973
      12     H     0.41972  0.41972  0.00000  0.16055
      13     H     0.42049  0.42049  0.00000  0.15903
      14     H     0.42065  0.42065  0.00000  0.15871
      15     H     0.42094  0.42094  0.00000  0.15812
      16     H     0.41660  0.41660  0.00000  0.16680
      17     H     0.39545  0.39545  0.00000  0.20909
      18     H     0.40809  0.40809  0.00000  0.18383
      19     H     0.40717  0.40717  0.00000  0.18566

   Total alpha = 28.00000, Total beta = 28.00000, Total charge =  0.00000
