  ==> Input File <==

--------------------------------------------------------------------------
set {
	reference rhf
	basis 6-31G*
}

set_num_threads( 4 )
memory 2 gb

molecule MOL {
0 1

O	 3.225979	 0.970355	 -0.599647
C	 2.701189	 0.057885	 -0.047330
C	 1.245376	 -0.013843	 0.345420
O	 3.347903	 -1.046386	 0.304773
C	 0.455112	 1.231400	 -0.050772
H	 0.838542	 -0.913825	 -0.103701
H	 1.208210	 -0.175333	 1.419774
C	 -0.998893	 1.219485	 0.433193
H	 0.482531	 1.345121	 -1.130325
H	 0.957290	 2.103070	 0.354729
C	 -1.883438	 0.145884	 -0.207175
H	 -1.431207	 2.195402	 0.224832
H	 -1.019646	 1.105716	 1.516076
C	 -2.215259	 0.443651	 -1.670811
H	 -1.380621	 -0.817792	 -0.141437
H	 -2.812184	 0.044480	 0.349709
C	 -3.103040	 -0.619898	 -2.319532
H	 -1.290504	 0.533489	 -2.238255
H	 -2.708485	 1.412081	 -1.738404
C	 -3.426579	 -0.317010	 -3.782161
H	 -2.612117	 -1.588439	 -2.251968
H	 -4.029730	 -0.708068	 -1.756281
H	 -4.056919	 -1.088295	 -4.213899
H	 -2.521239	 -0.257072	 -4.379624
H	 -3.949216	 0.630376	 -3.880065
C	 4.728119	 -1.109107	 -0.004993
H	 4.882018	 -1.033965	 -1.071845
H	 5.068212	 -2.067527	 0.355250
H	 5.265056	 -0.311663	 0.488280

	symmetry c1
}
set optking {
	frozen_dihedral = ("
		15 11 8 5
	")
}

ee = optimize('scf')
oeprop('DIPOLE', 'QUADRUPOLE', 'MULLIKEN_CHARGES')
f=open( 'psi4out.xyz', 'w' )
f.write( "29  " )
f.write( str(ee) + "\n" )
f.write( MOL.save_string_xyz() )
f.close()
--------------------------------------------------------------------------

    Molecular point group: c1
  Charge       = 0
  Multiplicity = 1
  Basis Set: 6-31G*
  Basis Set:
  @DF-RHF Final Energy:  -501.04176365078979
    Total Energy =                       -501.0417636507902444
    Molecular point group: c1
  Basis Set: 6-31G*
  Basis Set:
  Basis Set: 6-31G*
  Basis Set:
  @DF-RHF Final Energy:  -501.04204278542500
    Total Energy =                       -501.0420427854251102
  Basis Set: 6-31G*
  Basis Set:
  Basis Set: 6-31G*
  Basis Set:
  @DF-RHF Final Energy:  -501.04213728624336
    Total Energy =                       -501.0421372862426779
  Basis Set: 6-31G*
  Basis Set:
  Basis Set: 6-31G*
  Basis Set:
  @DF-RHF Final Energy:  -501.04217530299536
    Total Energy =                       -501.0421753029945648
  Basis Set: 6-31G*
  Basis Set:
  Basis Set: 6-31G*
  Basis Set:
  @DF-RHF Final Energy:  -501.04203080624927
    Total Energy =                       -501.0420308062494996
  Basis Set: 6-31G*
  Basis Set:
  Basis Set: 6-31G*
  Basis Set:
  @DF-RHF Final Energy:  -501.04218877398830
    Total Energy =                       -501.0421887739889826
  Basis Set: 6-31G*
  Basis Set:
  Charge       = 0
  Multiplicity = 1
  Basis Set: 6-31G*
  Basis Set:

    Orbital Energies (a.u.)
    -----------------------

    Doubly Occupied:

       1A    -20.603565     2A    -20.545407     3A    -11.372252
       4A    -11.280823     5A    -11.234967     6A    -11.218869
       7A    -11.217953     8A    -11.215972     9A    -11.215574
      10A    -11.213603    11A    -11.208530    12A     -1.469271
      13A     -1.362718    14A     -1.097829    15A     -1.065541
      16A     -1.018855    17A     -0.976293    18A     -0.928347
      19A     -0.865924    20A     -0.805263    21A     -0.783150
      22A     -0.760267    23A     -0.701422    24A     -0.682894
      25A     -0.671579    26A     -0.648340    27A     -0.631025
      28A     -0.604775    29A     -0.594310    30A     -0.576257
      31A     -0.562835    32A     -0.561780    33A     -0.532572
      34A     -0.527051    35A     -0.523455    36A     -0.509999
      37A     -0.491072    38A     -0.480366    39A     -0.472222
      40A     -0.458748    41A     -0.456635    42A     -0.452965
      43A     -0.440434    44A     -0.437235

  @DF-RHF Final Energy:  -501.04218820499807

   => Energetics <=

    Nuclear Repulsion Energy =            620.4237243801532031
    One-Electron Energy =               -1911.9739341702934325
    Two-Electron Energy =                 790.5080215851420462
    DFT Exchange-Correlation Energy =       0.0000000000000000
    Empirical Dispersion Energy =           0.0000000000000000
    PCM Polarization Energy =               0.0000000000000000
    EFP Energy =                            0.0000000000000000
    Total Energy =                       -501.0421882049982969
    Molecular point group: c1
  Basis Set: 6-31G*
  Basis Set:

  -Total Gradient:
     Atom            X                  Y                   Z
    ------   -----------------  -----------------  -----------------
       1        0.000008774670     0.000037566312     0.000087446452
       2       -0.000039490603    -0.000098672103    -0.000212611234
       3        0.000040984676     0.000045564659     0.000065040719
       4        0.000016655575     0.000016170124     0.000058639267
       5        0.000301874385    -0.000781265698     0.000849412298
       6        0.000033384089     0.000021580751     0.000000955992
       7       -0.000008022288    -0.000005756622     0.000016300509
       8       -0.000241820638     0.001211394381    -0.001554712038
       9       -0.000003888440     0.000004776545     0.000005998585
      10        0.000006652363    -0.000020501239    -0.000018484982
      11       -0.000738500096    -0.000723992561     0.002139660787
      12        0.000010077079     0.000017903115     0.000037625328
      13        0.000017077238     0.000009429138     0.000004430899
      14       -0.000062597174    -0.000006830358    -0.000017490189
      15        0.000640890109     0.000253432425    -0.001407793679
      16        0.000030467818     0.000014481955    -0.000013876371
      17        0.000019759854     0.000008089405    -0.000033707582
      18       -0.000027310336     0.000012446952    -0.000013423215
      19       -0.000028134602    -0.000012806425     0.000006620129
      20        0.000023342240    -0.000021582834    -0.000011644106
      21       -0.000008278384    -0.000007992095     0.000017057281
      22        0.000003793523     0.000026975224    -0.000008522694
      23        0.000005027275    -0.000003474027    -0.000002715839
      24        0.000001030232     0.000004220092    -0.000007755611
      25       -0.000000087474    -0.000004231688     0.000008812189
      26       -0.000002194243     0.000002151141     0.000002596052
      27       -0.000002075232     0.000000572131     0.000000628036
      28       -0.000000140745     0.000000474996     0.000001577632
      29        0.000002749134    -0.000000123696    -0.000000064617

  **** Optimization is complete! (in 7 steps) ****
    Final optimized geometry and variables:
    Molecular point group: c1

    Geometry (in Angstrom), charge = 0, multiplicity = 1:

    O            2.839769903491     0.896062731053     0.117933700200
    C            2.315772619856    -0.014637049660     0.673913520011
    C            0.855598623182    -0.094908596538     1.048611744394
    O            2.967615809862    -1.108579224428     1.048083869971
    C            0.062257593769     1.143204113327     0.636444019384
    H            0.462346745647    -1.000856890919     0.599364212089
    H            0.805697400754    -0.251735428737     2.123008477048
    C           -1.400527151056     1.117471297559     1.099158009086
    H            0.122194547199     1.265995991379    -0.439504038178
    H            0.545976613110     2.017160279868     1.059314509412
    C           -2.299557041326     0.060371667099     0.441298960248
    H           -1.834205758113     2.099569394794     0.926361192587
    H           -1.417067791338     0.969763420676     2.177479857970
    C           -2.665388090878     0.368459367610    -1.014032309008
    H           -1.825142676433    -0.917231320266     0.484532239737
    H           -3.216141364061    -0.022235277027     1.020599175930
    C           -3.587351553531    -0.682817746531    -1.635232402994
    H           -1.763525059665     0.447281967752    -1.616879660956
    H           -3.149274723954     1.342639989706    -1.062427256349
    C           -3.952869062835    -0.374539439184    -3.086799915041
    H           -3.107862609503    -1.658241185642    -1.583906898879
    H           -4.496655927250    -0.759280815329    -1.042766794951
    H           -4.606635932673    -1.137184803669    -3.498642056925
    H           -3.066275428849    -0.325764798066    -3.712720667344
    H           -4.465891000122     0.579633489602    -3.167561275174
    C            4.352439567639    -1.162365018782     0.757711014290
    H            4.520134167673    -1.098895356195    -0.307826074656
    H            4.696230896844    -2.113113484069     1.134363476634
    H            4.875358523239    -0.354013439313     1.248269818563

  Mulliken Charges: (a.u.)
   Center  Symbol    Alpha    Beta     Spin     Total
       1     O     4.28586  4.28586  0.00000 -0.57173
       2     C     2.60521  2.60521  0.00000  0.78958
       3     C     3.20887  3.20887  0.00000 -0.41774
       4     O     4.30734  4.30734  0.00000 -0.61469
       5     C     3.15556  3.15556  0.00000 -0.31112
       6     H     0.39970  0.39970  0.00000  0.20060
       7     H     0.40098  0.40098  0.00000  0.19804
       8     C     3.15892  3.15892  0.00000 -0.31784
       9     H     0.41092  0.41092  0.00000  0.17815
      10     H     0.40902  0.40902  0.00000  0.18196
      11     C     3.15617  3.15617  0.00000 -0.31233
      12     H     0.41804  0.41804  0.00000  0.16393
      13     H     0.42239  0.42239  0.00000  0.15522
      14     C     3.15229  3.15229  0.00000 -0.30457
      15     H     0.42411  0.42411  0.00000  0.15179
      16     H     0.42031  0.42031  0.00000  0.15938
      17     C     3.15115  3.15115  0.00000 -0.30230
      18     H     0.42220  0.42220  0.00000  0.15561
      19     H     0.42338  0.42338  0.00000  0.15323
      20     C     3.23926  3.23926  0.00000 -0.47851
      21     H     0.42381  0.42381  0.00000  0.15238
      22     H     0.42308  0.42308  0.00000  0.15383
      23     H     0.41941  0.41941  0.00000  0.16118
      24     H     0.42147  0.42147  0.00000  0.15706
      25     H     0.42149  0.42149  0.00000  0.15702
      26     C     3.09241  3.09241  0.00000 -0.18481
      27     H     0.40913  0.40913  0.00000  0.18174
      28     H     0.40847  0.40847  0.00000  0.18306
      29     H     0.40907  0.40907  0.00000  0.18186

   Total alpha = 44.00000, Total beta = 44.00000, Total charge = -0.00000
