  ==> Input File <==

--------------------------------------------------------------------------
set {
	reference rhf
	basis 6-31G*
}

set_num_threads( 1 )
memory 2 gb

molecule MOL {
0 1

H	 -1.099309	 3.248080	 -2.497859
C	 -0.103206	 3.701148	 -2.419560
C	 0.389436	 3.917818	 -1.011381
O	 0.503339	 3.983464	 -3.401472
C	 0.308719	 2.644995	 -0.157179
H	 1.401531	 4.302731	 -1.058453
H	 -0.240273	 4.687739	 -0.567147
C	 1.263743	 1.540246	 -0.616263
H	 0.529635	 2.907689	 0.873098
H	 -0.714072	 2.271314	 -0.161454
C	 1.180775	 0.282413	 0.250794
H	 2.282253	 1.922804	 -0.604752
H	 1.053169	 1.276832	 -1.651064
C	 2.148627	 -0.814315	 -0.201312
H	 1.381660	 0.553304	 1.284232
H	 0.163014	 -0.104901	 0.227680
C	 3.580890	 -0.659131	 0.322722
H	 2.166869	 -0.852443	 -1.289387
H	 1.762857	 -1.776509	 0.128956
C	 4.324889	 0.564933	 -0.213704
H	 4.142010	 -1.551473	 0.056605
H	 3.564836	 -0.624694	 1.410140
H	 4.342616	 0.565491	 -1.300421
H	 3.866655	 1.493402	 0.110242
H	 5.353900	 0.572371	 0.132816

	symmetry c1
}
set optking {
	frozen_dihedral = ("
		6 3 5 8,
		6 3 2 4,
		3 5 8 12,
		12 8 11 14,
		20 17 14 18
	")
}

ee = energy('scf')
oeprop('DIPOLE', 'QUADRUPOLE', 'MULLIKEN_CHARGES')
f=open( 'psi4out.xyz', 'w' )
f.write( "25  " )
f.write( str(ee) + "\n" )
f.write( MOL.save_string_xyz() )
f.close()
--------------------------------------------------------------------------

    Molecular point group: c1

    Geometry (in Angstrom), charge = 0, multiplicity = 1:

       Center              X                  Y                   Z               Mass
    ------------   -----------------  -----------------  -----------------  -----------------
           H         -2.624199204475     1.555199722821    -1.655664831457     1.007825032070
           C         -1.628096204475     2.008267722821    -1.577365831457    12.000000000000
           C         -1.135454204475     2.224937722821    -0.169186831457    12.000000000000
           O         -1.021551204475     2.290583722821    -2.559277831457    15.994914619560
           C         -1.216171204475     0.952114722821     0.685015168543    12.000000000000
           H         -0.123359204475     2.609850722821    -0.216258831457     1.007825032070
           H         -1.765163204475     2.994858722821     0.275047168543     1.007825032070
           C         -0.261147204475    -0.152634277179     0.225931168543    12.000000000000
           H         -0.995255204475     1.214808722821     1.715292168543     1.007825032070
           H         -2.238962204475     0.578433722821     0.680740168543     1.007825032070
           C         -0.344115204475    -1.410467277179     1.092988168543    12.000000000000
           H          0.757362795525     0.229923722821     0.237442168543     1.007825032070
           H         -0.471721204475    -0.416048277179    -0.808869831457     1.007825032070
           C          0.623736795525    -2.507195277179     0.640882168543    12.000000000000
           H         -0.143230204475    -1.139576277179     2.126426168543     1.007825032070
           H         -1.361876204475    -1.797781277179     1.069874168543     1.007825032070
           C          2.055999795525    -2.352011277179     1.164916168543    12.000000000000
           H          0.641978795525    -2.545323277179    -0.447192831457     1.007825032070
           H          0.237966795525    -3.469389277179     0.971150168543     1.007825032070
           C          2.799998795525    -1.127947277179     0.628490168543    12.000000000000
           H          2.617119795525    -3.244353277179     0.898799168543     1.007825032070
           H          2.039945795525    -2.317574277179     2.252334168543     1.007825032070
           H          2.817725795525    -1.127389277179    -0.458226831457     1.007825032070
           H          2.341764795525    -0.199478277179     0.952436168543     1.007825032070
           H          3.829009795525    -1.120509277179     0.975010168543     1.007825032070

  Charge       = 0
  Multiplicity = 1
  Basis Set: 6-31G*
  Basis Set:

    Orbital Energies (a.u.)
    -----------------------

    Doubly Occupied:

       1A    -20.561577     2A    -11.325737     3A    -11.234412
       4A    -11.233737     5A    -11.220494     6A    -11.219485
       7A    -11.218079     8A    -11.216567     9A    -11.209999
      10A     -1.401587    11A     -1.104897    12A     -1.069159
      13A     -1.009793    14A     -0.947018    15A     -0.875875
      16A     -0.818919    17A     -0.787522    18A     -0.781024
      19A     -0.665303    20A     -0.662750    21A     -0.632653
      22A     -0.623096    23A     -0.607093    24A     -0.593650
      25A     -0.566222    26A     -0.554365    27A     -0.536935
      28A     -0.523944    29A     -0.517529    30A     -0.498006
      31A     -0.486210    32A     -0.481427    33A     -0.465937
      34A     -0.447866    35A     -0.438810    36A     -0.409084

  @DF-RHF Final Energy:  -387.11379201997011

   => Energetics <=

    Nuclear Repulsion Energy =            452.0974546962893328
    One-Electron Energy =               -1420.5288143105317431
    Two-Electron Energy =                 581.3175675942704856
    DFT Exchange-Correlation Energy =       0.0000000000000000
    Empirical Dispersion Energy =           0.0000000000000000
    PCM Polarization Energy =               0.0000000000000000
    EFP Energy =                            0.0000000000000000
    Total Energy =                       -387.1137920199719247

  Mulliken Charges: (a.u.)
   Center  Symbol    Alpha    Beta     Spin     Total
       1     H     0.43262  0.43262  0.00000  0.13476
       2     C     2.83066  2.83066  0.00000  0.33868
       3     C     3.20794  3.20794  0.00000 -0.41587
       4     O     4.23802  4.23802  0.00000 -0.47605
       5     C     3.16597  3.16597  0.00000 -0.33195
       6     H     0.40007  0.40007  0.00000  0.19986
       7     H     0.40692  0.40692  0.00000  0.18616
       8     C     3.15818  3.15818  0.00000 -0.31636
       9     H     0.41367  0.41367  0.00000  0.17266
      10     H     0.42003  0.42003  0.00000  0.15993
      11     C     3.15555  3.15555  0.00000 -0.31110
      12     H     0.41421  0.41421  0.00000  0.17158
      13     H     0.41885  0.41885  0.00000  0.16231
      14     C     3.15678  3.15678  0.00000 -0.31356
      15     H     0.42249  0.42249  0.00000  0.15503
      16     H     0.42062  0.42062  0.00000  0.15875
      17     C     3.15114  3.15114  0.00000 -0.30229
      18     H     0.42163  0.42163  0.00000  0.15674
      19     H     0.41934  0.41934  0.00000  0.16132
      20     C     3.24390  3.24390  0.00000 -0.48780
      21     H     0.41999  0.41999  0.00000  0.16003
      22     H     0.42314  0.42314  0.00000  0.15372
      23     H     0.41940  0.41940  0.00000  0.16119
      24     H     0.42073  0.42073  0.00000  0.15854
      25     H     0.41814  0.41814  0.00000  0.16372

   Total alpha = 36.00000, Total beta = 36.00000, Total charge =  0.00000
