                              Psi4 1.0.54 Driver

  ==> Input File <==

--------------------------------------------------------------------------
set {
	reference rhf
	basis cc-pvtz
}

set_num_threads( 4 )
memory 2 gb

molecule MOL {
0 1

O	 -0.180963	 1.034962	 -1.120377
C	 -0.388186	 -0.005400	 -0.596367
C	 -1.727918	 -0.679963	 -0.520615
O	 0.550743	 -0.719877	 0.000412
H	 -1.670679	 -1.654265	 -0.988445
H	 -2.466997	 -0.072133	 -1.016435
H	 -2.001145	 -0.828634	 0.516052
C	 1.863204	 -0.194033	 0.000410
H	 2.031502	 0.409177	 -0.879273
H	 2.524488	 -1.045142	 0.000793
H	 2.031291	 0.409823	 0.879686

	symmetry c1
}
set optking {
	frozen_dihedral = ("
		2 4 8 9
	")
}

ee,wfn = optimize('scf', return_wfn=True)
oeprop( wfn, 'DIPOLE', 'QUADRUPOLE', 'MULLIKEN_CHARGES')
f=open( 'psi4out.xyz', 'w' )
f.write( "11  " )
f.write( str(ee) + "\n" )
f.write( MOL.save_string_xyz() )
f.close()
--------------------------------------------------------------------------

    Molecular point group: c1
  Charge       = 0
  Multiplicity = 1
  Basis Set: CC-PVTZ
  Basis Set:
  @DF-RHF Final Energy:  -266.93787597590710
    Total Energy =                       -266.9378759759068771
    Molecular point group: c1
  Basis Set: CC-PVTZ
  Basis Set:
  Basis Set: CC-PVTZ
  Basis Set:
  @DF-RHF Final Energy:  -266.93798288745995
    Total Energy =                       -266.9379828874599525
  Basis Set: CC-PVTZ
  Basis Set:
  Basis Set: CC-PVTZ
  Basis Set:
  @DF-RHF Final Energy:  -266.93795928187848
    Total Energy =                       -266.9379592818784772
  Basis Set: CC-PVTZ
  Basis Set:
  Basis Set: CC-PVTZ
  Basis Set:
  @DF-RHF Final Energy:  -266.93813163921016
    Total Energy =                       -266.9381316392100416
  Basis Set: CC-PVTZ
  Basis Set:
  Charge       = 0
  Multiplicity = 1
  Basis Set: CC-PVTZ
  Basis Set:

    Orbital Energies (a.u.)
    -----------------------

    Doubly Occupied:

       1A    -20.598216     2A    -20.534909     3A    -11.369538
       4A    -11.279236     5A    -11.232884     6A     -1.472906
       7A     -1.368000     8A     -1.037028     9A     -0.953963
      10A     -0.779756    11A     -0.698942    12A     -0.683085
      13A     -0.681093    14A     -0.597235    15A     -0.592903
      16A     -0.561898    17A     -0.529106    18A     -0.522757
      19A     -0.460451    20A     -0.445809

  @DF-RHF Final Energy:  -266.93813250999830

   => Energetics <=

    Nuclear Repulsion Energy =            183.4590982668184438
    One-Electron Energy =                -727.9950333297709903
    Two-Electron Energy =                 277.5978025529541924
    DFT Exchange-Correlation Energy =       0.0000000000000000
    Empirical Dispersion Energy =           0.0000000000000000
    PCM Polarization Energy =               0.0000000000000000
    EFP Energy =                            0.0000000000000000
    Total Energy =                       -266.9381325099984110
    Molecular point group: c1
  Basis Set: CC-PVTZ
  Basis Set:

  -Total Gradient:
     Atom            X                  Y                   Z
    ------   -----------------  -----------------  -----------------
       1        0.000008004878    -0.000009406614     0.000015520330
       2        0.000240232357    -0.000572485643    -0.001252109003
       3        0.000034021313    -0.000028252563     0.000003819349
       4       -0.000484852275     0.001229728576     0.002039406455
       5        0.000000086969     0.000000045456     0.000006531154
       6        0.000017816516     0.000010274345    -0.000001056140
       7        0.000001189619     0.000006021571     0.000003353569
       8        0.000752983472    -0.001887652689    -0.001641393872
       9       -0.000519014879     0.001273438412     0.000826010598
      10       -0.000001698589    -0.000006274792    -0.000006237321
      11       -0.000048769380    -0.000015436056     0.000006154881

  **** Optimization is complete! (in 5 steps) ****
    Final optimized geometry and variables:
    Molecular point group: c1

    Geometry (in Angstrom), charge = 0, multiplicity = 1:

    O           -0.284106887946     1.181302088169    -0.616654134450
    C           -0.441073106309     0.110337899700    -0.139369283183
    C           -1.755250544123    -0.613925434213    -0.071115681692
    O            0.529174896465    -0.602733637354     0.408301535471
    H           -1.674516566560    -1.562222344726    -0.586391348635
    H           -2.524752346502    -0.009104684629    -0.522317222216
    H           -2.001203257210    -0.821178236401     0.962313216078
    C            1.842842449775    -0.077861627216     0.398210060547
    H            1.998954236072     0.552497388790    -0.461156208057
    H            2.512689010813    -0.922600187830     0.384008012574
    H            2.008261885852     0.503522450564     1.295039940017

  Mulliken Charges: (a.u.)
   Center  Symbol    Alpha    Beta     Spin     Total
       1     O     4.19712  4.19712  0.00000 -0.39423
       2     C     2.79965  2.79965  0.00000  0.40071
       3     C     3.13907  3.13907  0.00000 -0.27814
       4     O     4.14889  4.14889  0.00000 -0.29779
       5     H     0.44577  0.44577  0.00000  0.10846
       6     H     0.43792  0.43792  0.00000  0.12415
       7     H     0.44525  0.44525  0.00000  0.10951
       8     C     3.03461  3.03461  0.00000 -0.06921
       9     H     0.44735  0.44735  0.00000  0.10529
      10     H     0.44780  0.44780  0.00000  0.10440
      11     H     0.45657  0.45657  0.00000  0.08686

   Total alpha = 20.00000, Total beta = 20.00000, Total charge =  0.00000

*** Psi4 exiting successfully. Buy a developer a beer!
