  ==> Input File <==

--------------------------------------------------------------------------
set {
	reference rhf
	basis 6-31G*
}

set_num_threads( 1 )
memory 2 gb

molecule MOL {
0 1

H	 1.161285	 -0.862427	 1.086619
O	 1.333058	 -0.590205	 0.195416
C	 0.709265	 0.639550	 -0.033818
C	 -0.793441	 0.596080	 0.058728
H	 1.003949	 0.946916	 -1.030758
H	 1.087364	 1.398714	 0.650095
C	 -1.530462	 -0.493172	 -0.025500
H	 -1.268471	 1.554324	 0.202247
H	 -1.092586	 -1.461565	 -0.186463
H	 -2.602122	 -0.450675	 0.050101

	symmetry c1
}
set optking {
	frozen_dihedral = ("
		5 3 2 1,
		3 4 7 9
	")
}

ee = energy('scf')
oeprop('DIPOLE', 'QUADRUPOLE', 'MULLIKEN_CHARGES')
f=open( 'psi4out.xyz', 'w' )
f.write( "10  " )
f.write( str(ee) + "\n" )
f.write( MOL.save_string_xyz() )
f.close()
--------------------------------------------------------------------------

    Molecular point group: c1

    Geometry (in Angstrom), charge = 0, multiplicity = 1:

       Center              X                  Y                   Z               Mass
    ------------   -----------------  -----------------  -----------------  -----------------
           H          1.157451102821    -0.872821390769     1.019487061209     1.007825032070
           O          1.329224102821    -0.600599390769     0.128284061209    15.994914619560
           C          0.705431102821     0.629155609231    -0.100949938791    12.000000000000
           C         -0.797274897179     0.585685609231    -0.008403938791    12.000000000000
           H          1.000115102821     0.936521609231    -1.097889938791     1.007825032070
           H          1.083530102821     1.388319609231     0.582963061209     1.007825032070
           C         -1.534295897179    -0.503566390769    -0.092631938791    12.000000000000
           H         -1.272304897179     1.543929609231     0.135115061209     1.007825032070
           H         -1.096419897179    -1.471959390769    -0.253594938791     1.007825032070
           H         -2.605955897179    -0.461069390769    -0.017030938791     1.007825032070

  Charge       = 0
  Multiplicity = 1
  Basis Set: 6-31G*
  Basis Set:

    Orbital Energies (a.u.)
    -----------------------

    Doubly Occupied:

       1A    -20.559807     2A    -11.277553     3A    -11.230068
       4A    -11.219402     5A     -1.368372     6A     -1.057563
       7A     -0.927233     8A     -0.769820     9A     -0.685730
      10A     -0.660059    11A     -0.613162    12A     -0.573487
      13A     -0.540196    14A     -0.487704    15A     -0.447454
      16A     -0.364544

  @DF-RHF Final Energy:  -191.91678563763799

   => Energetics <=

    Nuclear Repulsion Energy =            119.2584988308345970
    One-Electron Energy =                -496.7862571499965156
    Two-Electron Energy =                 185.6109726815239469
    DFT Exchange-Correlation Energy =       0.0000000000000000
    Empirical Dispersion Energy =           0.0000000000000000
    PCM Polarization Energy =               0.0000000000000000
    EFP Energy =                            0.0000000000000000
    Total Energy =                       -191.9167856376379859

  Mulliken Charges: (a.u.)
   Center  Symbol    Alpha    Beta     Spin     Total
       1     H     0.28118  0.28118  0.00000  0.43763
       2     O     4.36679  4.36679  0.00000 -0.73359
       3     C     2.99948  2.99948  0.00000  0.00104
       4     C     3.09879  3.09879  0.00000 -0.19758
       5     H     0.40769  0.40769  0.00000  0.18463
       6     H     0.42660  0.42660  0.00000  0.14680
       7     C     3.19439  3.19439  0.00000 -0.38879
       8     H     0.41027  0.41027  0.00000  0.17947
       9     H     0.40350  0.40350  0.00000  0.19300
      10     H     0.41131  0.41131  0.00000  0.17738

   Total alpha = 16.00000, Total beta = 16.00000, Total charge =  0.00000
