  ==> Input File <==

--------------------------------------------------------------------------
set {
	reference rhf
	basis 6-31G*
}

set_num_threads( 4 )
memory 2 gb

molecule MOL {
0 1

H	 1.471823	 1.122424	 -0.591305
C	 0.850167	 0.441173	 0.000644
C	 -0.623425	 0.760064	 0.000248
O	 1.346603	 -0.469565	 0.580172
C	 -1.518387	 -0.473136	 -0.000101
H	 -0.818289	 1.390622	 -0.866171
H	 -0.818694	 1.390413	 0.866696
H	 -1.333417	 -1.085530	 -0.874338
H	 -2.563510	 -0.183466	 -0.000351
H	 -1.333864	 -1.085676	 0.874123

	symmetry c1
}
set optking {
	frozen_dihedral = ("
		4 2 3 6
	")
}

ee = optimize('scf')
oeprop('DIPOLE', 'QUADRUPOLE', 'MULLIKEN_CHARGES')
f=open( 'psi4out.xyz', 'w' )
f.write( "10  " )
f.write( str(ee) + "\n" )
f.write( MOL.save_string_xyz() )
f.close()
--------------------------------------------------------------------------

    Molecular point group: c1
  Charge       = 0
  Multiplicity = 1
  Basis Set: 6-31G*
  Basis Set:
  @DF-RHF Final Energy:  -191.94972034284746
    Total Energy =                       -191.9497203428475132
    Molecular point group: c1
  Basis Set: 6-31G*
  Basis Set:
  Basis Set: 6-31G*
  Basis Set:
  @DF-RHF Final Energy:  -191.94835397513756
    Total Energy =                       -191.9483539751376782
  Basis Set: 6-31G*
  Basis Set:
  Basis Set: 6-31G*
  Basis Set:
  @DF-RHF Final Energy:  -191.95003283278871
    Total Energy =                       -191.9500328327886791
  Basis Set: 6-31G*
  Basis Set:
  Basis Set: 6-31G*
  Basis Set:
  @DF-RHF Final Energy:  -191.95013935759908
    Total Energy =                       -191.9501393575990278
  Basis Set: 6-31G*
  Basis Set:
  Charge       = 0
  Multiplicity = 1
  Basis Set: 6-31G*
  Basis Set:

    Orbital Energies (a.u.)
    -----------------------

    Doubly Occupied:

       1A    -20.564195     2A    -11.329171     3A    -11.239858
       4A    -11.222008     5A     -1.404682     6A     -1.059570
       7A     -0.908630     8A     -0.777255     9A     -0.683381
      10A     -0.636942    11A     -0.620681    12A     -0.552156
      13A     -0.534159    14A     -0.515857    15A     -0.490609
      16A     -0.413285

  @DF-RHF Final Energy:  -191.95013968986063

   => Energetics <=

    Nuclear Repulsion Energy =            118.9069692796753515
    One-Electron Energy =                -495.8093409184115785
    Two-Electron Energy =                 184.9522319488756352
    DFT Exchange-Correlation Energy =       0.0000000000000000
    Empirical Dispersion Energy =           0.0000000000000000
    PCM Polarization Energy =               0.0000000000000000
    EFP Energy =                            0.0000000000000000
    Total Energy =                       -191.9501396898605776
    Molecular point group: c1
  Basis Set: 6-31G*
  Basis Set:

  -Total Gradient:
     Atom            X                  Y                   Z
    ------   -----------------  -----------------  -----------------
       1       -0.000015375799    -0.000005114580     0.000004828384
       2       -0.000325046841    -0.001619770603    -0.002581995124
       3       -0.000383654963    -0.001826479046    -0.000801203057
       4        0.000300823841     0.001432543466     0.002018192012
       5        0.000027403171     0.000035879265     0.000017276935
       6        0.000395201626     0.001970307556     0.001316237492
       7       -0.000014366691    -0.000008968635     0.000006534002
       8        0.000017762918     0.000032665721     0.000011502650
       9        0.000001056789     0.000009413732    -0.000003637988
      10       -0.000003804049    -0.000020476874     0.000012264694

  **** Optimization is complete! (in 5 steps) ****
    Final optimized geometry and variables:
    Molecular point group: c1

    Geometry (in Angstrom), charge = 0, multiplicity = 1:

    H            1.502537586663     1.097678369755    -0.676520052457
    C            0.848464295005     0.395020615062    -0.149067055603
    C           -0.628289218575     0.716480479843    -0.178456252604
    O            1.315915076347    -0.524298340850     0.441594958257
    C           -1.521479913013    -0.521002849025    -0.142290506083
    H           -0.839658756252     1.351079383955    -1.034092969731
    H           -0.815509059827     1.336902846231     0.698027500357
    H           -1.374453382720    -1.133574178020    -1.025368461126
    H           -2.566482940459    -0.234311041454    -0.101577887955
    H           -1.296546890617    -1.127741688968     0.725092025796

  Mulliken Charges: (a.u.)
   Center  Symbol    Alpha    Beta     Spin     Total
       1     H     0.42639  0.42639  0.00000  0.14722
       2     C     2.84130  2.84130  0.00000  0.31741
       3     C     3.20651  3.20651  0.00000 -0.41302
       4     O     4.23649  4.23649  0.00000 -0.47298
       5     C     3.24021  3.24021  0.00000 -0.48041
       6     H     0.41314  0.41314  0.00000  0.17372
       7     H     0.40193  0.40193  0.00000  0.19614
       8     H     0.41520  0.41520  0.00000  0.16961
       9     H     0.41623  0.41623  0.00000  0.16754
      10     H     0.40261  0.40261  0.00000  0.19477

   Total alpha = 16.00000, Total beta = 16.00000, Total charge = -0.00000
