  ==> Input File <==

--------------------------------------------------------------------------
set {
	reference rhf
	basis cc-pvtz
}

set_num_threads( 4 )
memory 2 gb

molecule MOL {
0 1

H	 -0.237847	 -0.971826	 0.855838
N	 -0.625934	 -0.663929	 -0.000707
C	 -1.978635	 -0.158664	 0.001017
C	 0.143068	 -0.738410	 -1.109613
H	 -2.519057	 -0.493535	 -0.876362
H	 -1.938890	 0.917202	 -0.004137
H	 -2.514266	 -0.485137	 0.884506
C	 1.530083	 -1.296475	 -0.878154
O	 -0.229003	 -0.388858	 -2.190562
H	 1.471269	 -2.304099	 -0.483397
H	 2.063029	 -1.308368	 -1.814581
H	 2.069697	 -0.686369	 -0.163167

	symmetry c1
}
set optking {
	frozen_dihedral = ("
		4 2 3 5
	")
}

ee = optimize('scf')
oeprop('DIPOLE', 'QUADRUPOLE', 'MULLIKEN_CHARGES')
f=open( 'psi4out.xyz', 'w' )
f.write( "12  " )
f.write( str(ee) + "\n" )
f.write( MOL.save_string_xyz() )
f.close()
--------------------------------------------------------------------------

    Molecular point group: c1
  Charge       = 0
  Multiplicity = 1
  Basis Set: CC-PVTZ
  Basis Set:
  @DF-RHF Final Energy:  -247.10038230701053
    Total Energy =                       -247.1003823070102499
    Molecular point group: c1
  Basis Set: CC-PVTZ
  Basis Set:
  Basis Set: CC-PVTZ
  Basis Set:
  @DF-RHF Final Energy:  -247.10104747850747
    Total Energy =                       -247.1010474785076667
  Basis Set: CC-PVTZ
  Basis Set:
  Basis Set: CC-PVTZ
  Basis Set:
  @DF-RHF Final Energy:  -247.10105569276706
    Total Energy =                       -247.1010556927672042
  Basis Set: CC-PVTZ
  Basis Set:
  Basis Set: CC-PVTZ
  Basis Set:
  @DF-RHF Final Energy:  -247.10118856255977
    Total Energy =                       -247.1011885625597415
  Basis Set: CC-PVTZ
  Basis Set:
  @DF-RHF Final Energy:  -247.10120172307862
    Total Energy =                       -247.1012017230785318
  @DF-RHF Final Energy:  -247.10122122665479
    Total Energy =                       -247.1012212266547294
  @DF-RHF Final Energy:  -247.10123329168243
    Total Energy =                       -247.1012332916824334
  @DF-RHF Final Energy:  -247.10123634172277
    Total Energy =                       -247.1012363417227675
  @DF-RHF Final Energy:  -247.10123746558023
    Total Energy =                       -247.1012374655801977
  @DF-RHF Final Energy:  -247.10124175340928
    Total Energy =                       -247.1012417534092265
  @DF-RHF Final Energy:  -247.10124457240414
    Total Energy =                       -247.1012445724041982
  @DF-RHF Final Energy:  -247.10124034065160
    Total Energy =                       -247.1012403406516569
  @DF-RHF Final Energy:  -247.10124344103278
    Total Energy =                       -247.1012434410328069
  @DF-RHF Final Energy:  -247.10124588433803
    Total Energy =                       -247.1012458843383115
  @DF-RHF Final Energy:  -247.10124587363731
    Total Energy =                       -247.1012458736374811
  @DF-RHF Final Energy:  -247.10124571907460
    Total Energy =                       -247.1012457190746545
  @DF-RHF Final Energy:  -247.10124561644315
    Total Energy =                       -247.1012456164431228
  @DF-RHF Final Energy:  -247.10124352773261
    Total Energy =                       -247.1012435277330042
  @DF-RHF Final Energy:  -247.10124551863515
    Total Energy =                       -247.1012455186353236
  @DF-RHF Final Energy:  -247.10123401149829
    Total Energy =                       -247.1012340114982067
  @DF-RHF Final Energy:  -247.10124594929269
    Total Energy =                       -247.1012459492926041
  @DF-RHF Final Energy:  -247.10124590919440
    Total Energy =                       -247.1012459091944038
  @DF-RHF Final Energy:  -247.10124587535586
    Total Energy =                       -247.1012458753558576
  @DF-RHF Final Energy:  -247.10124591664967
    Total Energy =                       -247.1012459166498729
  @DF-RHF Final Energy:  -247.10124587380528
    Total Energy =                       -247.1012458738052828
  @DF-RHF Final Energy:  -247.10124578783766
    Total Energy =                       -247.1012457878376836
  @DF-RHF Final Energy:  -247.10124588381549
    Total Energy =                       -247.1012458838154657
  @DF-RHF Final Energy:  -247.10124585743560
    Total Energy =                       -247.1012458574355719
  @DF-RHF Final Energy:  -247.10124574889304
    Total Energy =                       -247.1012457488930067
  @DF-RHF Final Energy:  -247.10124573085304
    Total Energy =                       -247.1012457308528383
  @DF-RHF Final Energy:  -247.10124574677405
    Total Energy =                       -247.1012457467741115
  @DF-RHF Final Energy:  -247.10124566931648
    Total Energy =                       -247.1012456693163131
  @DF-RHF Final Energy:  -247.10124586265729
    Total Energy =                       -247.1012458626571515
  @DF-RHF Final Energy:  -247.10124587526496
    Total Energy =                       -247.1012458752651355
  @DF-RHF Final Energy:  -247.10124583450502
    Total Energy =                       -247.1012458345049367
  @DF-RHF Final Energy:  -247.10124588724980
    Total Energy =                       -247.1012458872498883
  Basis Set: CC-PVTZ
  Basis Set:
  @DF-RHF Final Energy:  -247.10124588038266
    Total Energy =                       -247.1012458803825211
  Basis Set: CC-PVTZ
  Basis Set:
  Basis Set: CC-PVTZ
  Basis Set:
  @DF-RHF Final Energy:  -247.10124587299921
    Total Energy =                       -247.1012458729991863
  Basis Set: CC-PVTZ
  Basis Set:
  Basis Set: CC-PVTZ
  Basis Set:
  @DF-RHF Final Energy:  -247.10124586623624
    Total Energy =                       -247.1012458662361269
  Basis Set: CC-PVTZ
  Basis Set:
  Charge       = 0
  Multiplicity = 1
  Basis Set: CC-PVTZ
  Basis Set:

    Orbital Energies (a.u.)
    -----------------------

    Doubly Occupied:

       1A    -20.507811     2A    -15.574404     3A    -11.335961
       4A    -11.253258     5A    -11.228182     6A     -1.389695
       7A     -1.230298     8A     -1.016478     9A     -0.932472
      10A     -0.788361    11A     -0.690643    12A     -0.651431
      13A     -0.635747    14A     -0.585281    15A     -0.583289
      16A     -0.557246    17A     -0.546314    18A     -0.508785
      19A     -0.418076    20A     -0.390191

  @DF-RHF Final Energy:  -247.10124585907471

   => Energetics <=

    Nuclear Repulsion Energy =            181.7818052085762019
    One-Electron Energy =                -696.1182541280620626
    Two-Electron Energy =                 267.2352030604110951
    DFT Exchange-Correlation Energy =       0.0000000000000000
    Empirical Dispersion Energy =           0.0000000000000000
    PCM Polarization Energy =               0.0000000000000000
    EFP Energy =                            0.0000000000000000
    Total Energy =                       -247.1012458590747656
    Molecular point group: c1
  Basis Set: CC-PVTZ
  Basis Set:

  -Total Gradient:
     Atom            X                  Y                   Z
    ------   -----------------  -----------------  -----------------
       1       -0.000002283524     0.000024757345     0.000339614375
       2       -0.000798046958     0.000242715611     0.001335758947
       3        0.000272691817    -0.001267431443    -0.000714661877
       4       -0.000045552053     0.000154662464    -0.002371519846
       5        0.000326762750     0.000406326248     0.000332851152
       6       -0.000382595187     0.000844123024     0.000032375362
       7        0.000090751886    -0.000037477978     0.000146725083
       8        0.000327603654     0.000220896493     0.000153303523
       9        0.000503019420    -0.000298981936     0.000969859430
      10       -0.000057588056    -0.000126251506    -0.000081114638
      11        0.000014672582    -0.000080461219    -0.000075567308
      12       -0.000249436331    -0.000082877102    -0.000067624202

    Molecular point group: c1

    Geometry (in Angstrom), charge = 0, multiplicity = 1:

    H            0.008463088772    -0.305902364285     1.698529190273
    N           -0.395260529733    -0.065389950511     0.827809956192
    C           -1.724037149395     0.499345882501     0.815446555470
    C            0.386218109167    -0.094462308981    -0.276356919369
    H           -2.221795952850     0.228877350844    -0.101205123540
    H           -1.711892344287     1.582632587768     0.886073259152
    H           -2.283301455918     0.102805907985     1.651692970098
    C            1.777333342845    -0.647628105083    -0.060083564319
    O            0.007144184493     0.285026934238    -1.343584125126
    H            1.736368180504    -1.618970251164     0.418123587184
    H            2.272589054785    -0.733432009047    -1.013592007712
    H            2.344852778746     0.019272920230     0.578708483162

  Mulliken Charges: (a.u.)
   Center  Symbol    Alpha    Beta     Spin     Total
       1     H     0.41178  0.41178  0.00000  0.17645
       2     N     3.61942  3.61942  0.00000 -0.23884
       3     C     3.07957  3.07957  0.00000 -0.15914
       4     C     2.83741  2.83741  0.00000  0.32517
       5     H     0.43847  0.43847  0.00000  0.12306
       6     H     0.45713  0.45713  0.00000  0.08574
       7     H     0.45521  0.45521  0.00000  0.08957
       8     C     3.15368  3.15368  0.00000 -0.30736
       9     O     4.21409  4.21409  0.00000 -0.42818
      10     H     0.45061  0.45061  0.00000  0.09877
      11     H     0.43370  0.43370  0.00000  0.13260
      12     H     0.44892  0.44892  0.00000  0.10217

   Total alpha = 20.00000, Total beta = 20.00000, Total charge = -0.00000
