  ==> Input File <==

--------------------------------------------------------------------------
set {
	reference rhf
	basis 6-31G*
}

set_num_threads( 1 )
memory 2 gb

molecule MOL {
0 1

H	 0.991677	 4.312876	 -1.604731
N	 0.219342	 3.679949	 -1.685024
C	 0.412953	 2.518385	 -0.828980
H	 0.171104	 3.402844	 -2.647166
C	 -0.807362	 1.605117	 -0.879264
H	 0.550944	 2.876766	 0.186589
H	 1.306981	 1.943003	 -1.082057
C	 -0.679275	 0.379305	 0.025956
H	 -1.682322	 2.186323	 -0.602717
H	 -0.965803	 1.279226	 -1.906896
C	 -1.903357	 -0.536963	 -0.023547
H	 -0.517940	 0.704319	 1.052692
H	 0.205052	 -0.190592	 -0.255166
C	 -3.225172	 0.228290	 0.028445
H	 -1.867824	 -1.134999	 -0.931459
H	 -1.860449	 -1.239604	 0.805977
H	 -3.313397	 0.915643	 -0.808262
H	 -4.073500	 -0.448134	 -0.008893
H	 -3.306061	 0.809945	 0.942516

	symmetry c1
}
set optking {
	frozen_dihedral = ("
		6 3 5 9,
		12 8 5 9,
		1 2 3 6
	")
}

ee = energy('scf')
oeprop('DIPOLE', 'QUADRUPOLE', 'MULLIKEN_CHARGES')
f=open( 'psi4out.xyz', 'w' )
f.write( "19  " )
f.write( str(ee) + "\n" )
f.write( MOL.save_string_xyz() )
f.close()
--------------------------------------------------------------------------

    Molecular point group: c1

    Geometry (in Angstrom), charge = 0, multiplicity = 1:

       Center              X                  Y                   Z               Mass
    ------------   -----------------  -----------------  -----------------  -----------------
           H          1.977030411143     2.965091879034    -1.023391676717     1.007825032070
           N          1.204695411143     2.332164879034    -1.103684676717    14.003074004780
           C          1.398306411143     1.170600879034    -0.247640676717    12.000000000000
           H          1.156457411143     2.055059879034    -2.065826676717     1.007825032070
           C          0.177991411143     0.257332879034    -0.297924676717    12.000000000000
           H          1.536297411143     1.528981879034     0.767928323283     1.007825032070
           H          2.292334411143     0.595218879034    -0.500717676717     1.007825032070
           C          0.306078411143    -0.968479120966     0.607295323283    12.000000000000
           H         -0.696968588857     0.838538879034    -0.021377676717     1.007825032070
           H          0.019550411143    -0.068558120966    -1.325556676717     1.007825032070
           C         -0.918003588857    -1.884747120966     0.557792323283    12.000000000000
           H          0.467413411143    -0.643465120966     1.634031323283     1.007825032070
           H          1.190405411143    -1.538376120966     0.326173323283     1.007825032070
           C         -2.239818588857    -1.119494120966     0.609784323283    12.000000000000
           H         -0.882470588857    -2.482783120966    -0.350119676717     1.007825032070
           H         -0.875095588857    -2.587388120966     1.387316323283     1.007825032070
           H         -2.328043588857    -0.432141120966    -0.226922676717     1.007825032070
           H         -3.088146588857    -1.795918120966     0.572446323283     1.007825032070
           H         -2.320707588857    -0.537839120966     1.523855323283     1.007825032070

  Charge       = 0
  Multiplicity = 1
  Basis Set: 6-31G*
  Basis Set:

    Orbital Energies (a.u.)
    -----------------------

    Doubly Occupied:

       1A    -15.532319     2A    -11.239338     3A    -11.213562
       4A    -11.212389     5A    -11.208415     6A    -11.204886
       7A     -1.176404     8A     -1.075115     9A     -0.991964
      10A     -0.904087    11A     -0.825935    12A     -0.772518
      13A     -0.663447    14A     -0.641780    15A     -0.606316
      16A     -0.597607    17A     -0.584675    18A     -0.534876
      19A     -0.526296    20A     -0.500646    21A     -0.487004
      22A     -0.457921    23A     -0.454443    24A     -0.451026
      25A     -0.380862

  @DF-RHF Final Energy:  -251.34693574995893

   => Energetics <=

    Nuclear Repulsion Energy =            250.8957789691983464
    One-Electron Energy =                -835.9977401055679138
    Two-Electron Energy =                 333.7550253864106935
    DFT Exchange-Correlation Energy =       0.0000000000000000
    Empirical Dispersion Energy =           0.0000000000000000
    PCM Polarization Energy =               0.0000000000000000
    EFP Energy =                            0.0000000000000000
    Total Energy =                       -251.3469357499589023

  Mulliken Charges: (a.u.)
   Center  Symbol    Alpha    Beta     Spin     Total
       1     H     0.33251  0.33251  0.00000  0.33498
       2     N     3.92190  3.92190  0.00000 -0.84381
       3     C     3.05884  3.05884  0.00000 -0.11769
       4     H     0.33548  0.33548  0.00000  0.32904
       5     C     3.15799  3.15799  0.00000 -0.31598
       6     H     0.42100  0.42100  0.00000  0.15799
       7     H     0.43509  0.43509  0.00000  0.12983
       8     C     3.15598  3.15598  0.00000 -0.31195
       9     H     0.40858  0.40858  0.00000  0.18285
      10     H     0.42816  0.42816  0.00000  0.14367
      11     C     3.15094  3.15094  0.00000 -0.30188
      12     H     0.42357  0.42357  0.00000  0.15285
      13     H     0.42259  0.42259  0.00000  0.15482
      14     C     3.24531  3.24531  0.00000 -0.49062
      15     H     0.42335  0.42335  0.00000  0.15329
      16     H     0.42093  0.42093  0.00000  0.15815
      17     H     0.41654  0.41654  0.00000  0.16692
      18     H     0.41952  0.41952  0.00000  0.16095
      19     H     0.42170  0.42170  0.00000  0.15659

   Total alpha = 25.00000, Total beta = 25.00000, Total charge = -0.00000
