  ==> Input File <==

--------------------------------------------------------------------------
set {
	reference rhf
	basis 6-31G*
}

set_num_threads( 4 )
memory 2 gb

molecule MOL {
0 1

H	 4.594763	 3.345665	 -0.838398
C	 4.395796	 2.282338	 -0.747455
C	 3.032673	 2.028412	 -0.105120
H	 4.443626	 1.850596	 -1.742770
H	 5.196930	 1.845087	 -0.157713
C	 2.723125	 0.537233	 0.044475
H	 2.260668	 2.499768	 -0.704648
H	 3.003304	 2.501961	 0.874973
C	 1.372407	 0.251744	 0.701227
H	 2.749047	 0.060934	 -0.929235
H	 3.500720	 0.071560	 0.645753
C	 0.169600	 0.576866	 -0.172154
H	 1.299770	 -0.806576	 0.947098
H	 1.280948	 0.780172	 1.647575
C	 -1.181045	 0.701995	 0.511084
O	 0.272932	 0.711811	 -1.354321
C	 -2.285934	 -0.139295	 -0.145128
H	 -1.449051	 1.751551	 0.493206
H	 -1.071135	 0.403303	 1.551943
C	 -3.651768	 0.085446	 0.506485
H	 -2.346596	 0.110469	 -1.202272
H	 -2.034737	 -1.195320	 -0.088721
C	 -4.759797	 -0.746382	 -0.137905
H	 -3.908762	 1.140117	 0.445781
H	 -3.588286	 -0.154158	 1.565709
H	 -4.868882	 -0.505166	 -1.191300
H	 -4.548009	 -1.809175	 -0.062213
H	 -5.715422	 -0.564821	 0.343442

	symmetry c1
}
set optking {
	frozen_dihedral = ("
		16 12 15 17
	")
}

ee = optimize('scf')
oeprop('DIPOLE', 'QUADRUPOLE', 'MULLIKEN_CHARGES')
f=open( 'psi4out.xyz', 'w' )
f.write( "28  " )
f.write( str(ee) + "\n" )
f.write( MOL.save_string_xyz() )
f.close()
--------------------------------------------------------------------------

    Molecular point group: c1
  Charge       = 0
  Multiplicity = 1
  Basis Set: 6-31G*
  Basis Set:
  @DF-RHF Final Energy:  -426.16944696979476
    Total Energy =                       -426.1694469697953309
    Molecular point group: c1
  Basis Set: 6-31G*
  Basis Set:
  Basis Set: 6-31G*
  Basis Set:
  @DF-RHF Final Energy:  -426.16967134987647
    Total Energy =                       -426.1696713498760118
  Basis Set: 6-31G*
  Basis Set:
  Basis Set: 6-31G*
  Basis Set:
  @DF-RHF Final Energy:  -426.16934119375469
    Total Energy =                       -426.1693411937549172
  Basis Set: 6-31G*
  Basis Set:
  Basis Set: 6-31G*
  Basis Set:
  @DF-RHF Final Energy:  -426.17013712425990
    Total Energy =                       -426.1701371242596679
  Basis Set: 6-31G*
  Basis Set:
  Basis Set: 6-31G*
  Basis Set:
  @DF-RHF Final Energy:  -426.17014746227437
    Total Energy =                       -426.1701474622741443
  Basis Set: 6-31G*
  Basis Set:
  Basis Set: 6-31G*
  Basis Set:
  @DF-RHF Final Energy:  -426.17015126607828
    Total Energy =                       -426.1701512660781646
  Basis Set: 6-31G*
  Basis Set:
  Basis Set: 6-31G*
  Basis Set:
  @DF-RHF Final Energy:  -426.17015924265684
    Total Energy =                       -426.1701592426572915
  Basis Set: 6-31G*
  Basis Set:
  Charge       = 0
  Multiplicity = 1
  Basis Set: 6-31G*
  Basis Set:

    Orbital Energies (a.u.)
    -----------------------

    Doubly Occupied:

       1A    -20.548294     2A    -11.323684     3A    -11.231429
       4A    -11.229644     5A    -11.222751     6A    -11.221103
       7A    -11.216437     8A    -11.211796     9A    -11.211160
      10A    -11.205117    11A     -1.394335    12A     -1.089397
      13A     -1.077566    14A     -1.021792    15A     -0.990844
      16A     -0.909637    17A     -0.867052    18A     -0.806333
      19A     -0.793764    20A     -0.724450    21A     -0.670169
      22A     -0.650729    23A     -0.627807    24A     -0.616636
      25A     -0.607414    26A     -0.587813    27A     -0.576443
      28A     -0.570911    29A     -0.539879    30A     -0.529953
      31A     -0.521632    32A     -0.509493    33A     -0.494021
      34A     -0.478082    35A     -0.476043    36A     -0.472482
      37A     -0.468407    38A     -0.465034    39A     -0.455089
      40A     -0.392585

  @DF-RHF Final Energy:  -426.17016012311728

   => Energetics <=

    Nuclear Repulsion Energy =            528.9938809936370490
    One-Electron Energy =               -1626.3136668948538954
    Two-Electron Energy =                 671.1496257780996757
    DFT Exchange-Correlation Energy =       0.0000000000000000
    Empirical Dispersion Energy =           0.0000000000000000
    PCM Polarization Energy =               0.0000000000000000
    EFP Energy =                            0.0000000000000000
    Total Energy =                       -426.1701601231171708
    Molecular point group: c1
  Basis Set: 6-31G*
  Basis Set:

  -Total Gradient:
     Atom            X                  Y                   Z
    ------   -----------------  -----------------  -----------------
       1       -0.000010068073    -0.000002346787     0.000005092431
       2       -0.000013610815    -0.000028284598     0.000009835822
       3       -0.000073723369     0.000032767367     0.000003229071
       4        0.000000996012    -0.000000241023    -0.000000055494
       5        0.000001388378     0.000001182710     0.000000064704
       6       -0.000080712495    -0.000039727093    -0.000011659016
       7        0.000037470047    -0.000015867183     0.000011775365
       8        0.000004439310     0.000008726692     0.000010898302
       9        0.000012888896     0.000069276216    -0.000073056445
      10        0.000019239114    -0.000026339996    -0.000052181387
      11       -0.000027829493    -0.000016499884    -0.000005369803
      12        0.000021804818    -0.001653261590    -0.000173530106
      13        0.000044262280     0.000035924986    -0.000027328910
      14       -0.000045712589     0.000023735357     0.000052098076
      15       -0.000268162303     0.001381725258    -0.000453873769
      16        0.000206085083     0.000979544670     0.000295989104
      17        0.000157626583    -0.000624800038     0.000434296670
      18        0.000016878302    -0.000045150780    -0.000004022941
      19        0.000029756587    -0.000054631042    -0.000004742609
      20        0.000001423774    -0.000034098966    -0.000021263873
      21       -0.000006124420     0.000016219191    -0.000027110290
      22       -0.000026462632     0.000011124615     0.000023537983
      23       -0.000011297343    -0.000006873528     0.000009078786
      24        0.000017603514    -0.000008440850    -0.000006943853
      25       -0.000005885763    -0.000000743263     0.000006475702
      26        0.000002694969     0.000003519093     0.000002357001
      27       -0.000002556871    -0.000003697252    -0.000000581677
      28       -0.000002411499    -0.000002742281    -0.000003008844

  **** Optimization is complete! (in 8 steps) ****
    Final optimized geometry and variables:
    Molecular point group: c1

    Geometry (in Angstrom), charge = 0, multiplicity = 1:

    H            4.738288124221     2.512847160444    -0.880565755438
    C            4.456565333672     1.472292137067    -0.752506144548
    C            3.101272762091     1.348938930084    -0.057568866926
    H            4.433088315962     1.012830284386    -1.736269800328
    H            5.240303009815     0.985692486288    -0.178099979658
    C            2.678408716475    -0.107547447927     0.147771504918
    H            2.348167380101     1.864471453378    -0.643304695435
    H            3.146526771121     1.848569850668     0.908918843672
    C            1.332376856098    -0.264321754013     0.852383889379
    H            2.636754533607    -0.612495482632    -0.811572245671
    H            3.435903003218    -0.616560963607     0.739520015727
    C            0.121507263504     0.074054035886     0.003462798346
    H            1.193645631707    -1.292840471808     1.185797260205
    H            1.292668346136     0.338124934394     1.758698518017
    C           -1.231107670145     0.076982439633     0.701238413016
    O            0.207139563180     0.327907981346    -1.160300309458
    C           -2.281003847914    -0.746402669444    -0.051886271319
    H           -1.550937047277     1.115102920289     0.761375567022
    H           -1.129849351095    -0.281386044475     1.721526303252
    C           -3.661539715780    -0.684180663532     0.602847954266
    H           -2.337767190208    -0.387666247907    -1.073562296042
    H           -1.953838731552    -1.783050760401    -0.105046541866
    C           -4.707381197029    -1.510653512202    -0.144528345243
    H           -3.988861499041     0.352108390580     0.652882436796
    H           -3.593438056898    -1.033150535948     1.631221677338
    H           -4.822048071605    -1.163806376738    -1.167272830107
    H           -4.425705082424    -2.559148932466    -0.181205602137
    H           -5.677323826561    -1.445473604100     0.338423770277

  Mulliken Charges: (a.u.)
   Center  Symbol    Alpha    Beta     Spin     Total
       1     H     0.41939  0.41939  0.00000  0.16121
       2     C     3.24023  3.24023  0.00000 -0.48045
       3     C     3.15626  3.15626  0.00000 -0.31253
       4     H     0.41861  0.41861  0.00000  0.16279
       5     H     0.42394  0.42394  0.00000  0.15213
       6     C     3.14935  3.14935  0.00000 -0.29870
       7     H     0.40779  0.40779  0.00000  0.18442
       8     H     0.42794  0.42794  0.00000  0.14411
       9     C     3.21313  3.21313  0.00000 -0.42626
      10     H     0.40845  0.40845  0.00000  0.18310
      11     H     0.42183  0.42183  0.00000  0.15634
      12     C     2.73035  2.73035  0.00000  0.53929
      13     H     0.40591  0.40591  0.00000  0.18817
      14     H     0.40953  0.40953  0.00000  0.18093
      15     C     3.20309  3.20309  0.00000 -0.40618
      16     O     4.27011  4.27011  0.00000 -0.54023
      17     C     3.15521  3.15521  0.00000 -0.31043
      18     H     0.40326  0.40326  0.00000  0.19348
      19     H     0.41489  0.41489  0.00000  0.17022
      20     C     3.15281  3.15281  0.00000 -0.30562
      21     H     0.40321  0.40321  0.00000  0.19357
      22     H     0.42119  0.42119  0.00000  0.15763
      23     C     3.23981  3.23981  0.00000 -0.47961
      24     H     0.42142  0.42142  0.00000  0.15716
      25     H     0.42362  0.42362  0.00000  0.15276
      26     H     0.41903  0.41903  0.00000  0.16193
      27     H     0.42112  0.42112  0.00000  0.15777
      28     H     0.41850  0.41850  0.00000  0.16300

   Total alpha = 40.00000, Total beta = 40.00000, Total charge = -0.00000
