  ==> Input File <==

--------------------------------------------------------------------------
set {
	reference rhf
	basis 6-31G*
}

set_num_threads( 4 )
memory 2 gb

molecule MOL {
0 1

H	 -0.367348	 2.047014	 -0.308205
C	 0.352277	 1.337084	 0.083769
N	 -0.000016	 0.000074	 -0.335546
H	 1.328359	 1.600444	 -0.307950
H	 0.381933	 1.450534	 1.172486
C	 0.785995	 -1.003775	 0.344707
C	 -1.418036	 -0.248881	 -0.211462
H	 0.545255	 -1.986124	 -0.045660
H	 1.841099	 -0.824921	 0.170841
H	 0.618279	 -1.018339	 1.426623
H	 -1.971803	 0.480813	 -0.791343
H	 -1.654182	 -1.232928	 -0.600467
H	 -1.772632	 -0.199135	 0.823291

	symmetry c1
}
set optking {
	frozen_dihedral = ("
		6 3 2 1
	")
}

ee = optimize('scf')
oeprop('DIPOLE', 'QUADRUPOLE', 'MULLIKEN_CHARGES')
f=open( 'psi4out.xyz', 'w' )
f.write( "13  " )
f.write( str(ee) + "\n" )
f.write( MOL.save_string_xyz() )
f.close()
--------------------------------------------------------------------------

    Molecular point group: c1
  Charge       = 0
  Multiplicity = 1
  Basis Set: 6-31G*
  Basis Set:
  @DF-RHF Final Energy:  -173.26826869760907
    Total Energy =                       -173.2682686976090736
    Molecular point group: c1
  Basis Set: 6-31G*
  Basis Set:
  Basis Set: 6-31G*
  Basis Set:
  @DF-RHF Final Energy:  -173.26839116667068
    Total Energy =                       -173.2683911666707104
  Basis Set: 6-31G*
  Basis Set:
  Basis Set: 6-31G*
  Basis Set:
  @DF-RHF Final Energy:  -173.26840546154537
    Total Energy =                       -173.2684054615453420
  Basis Set: 6-31G*
  Basis Set:
  Charge       = 0
  Multiplicity = 1
  Basis Set: 6-31G*
  Basis Set:

    Orbital Energies (a.u.)
    -----------------------

    Doubly Occupied:

       1A    -15.544223     2A    -11.235925     3A    -11.235892
       4A    -11.235718     5A     -1.225299     6A     -0.951518
       7A     -0.950977     8A     -0.807143     9A     -0.641523
      10A     -0.630699    11A     -0.629820    12A     -0.545749
      13A     -0.543457    14A     -0.517281    15A     -0.500710
      16A     -0.500251    17A     -0.347899

  @DF-RHF Final Energy:  -173.26840606581806

   => Energetics <=

    Nuclear Repulsion Energy =            139.3087611294000681
    One-Electron Energy =                -509.0661626106916628
    Two-Electron Energy =                 196.4889954154734824
    DFT Exchange-Correlation Energy =       0.0000000000000000
    Empirical Dispersion Energy =           0.0000000000000000
    PCM Polarization Energy =               0.0000000000000000
    EFP Energy =                            0.0000000000000000
    Total Energy =                       -173.2684060658181124
    Molecular point group: c1
  Basis Set: 6-31G*
  Basis Set:

  -Total Gradient:
     Atom            X                  Y                   Z
    ------   -----------------  -----------------  -----------------
       1       -0.001903334604    -0.000368293693     0.002760599731
       2        0.001773721326     0.000400307388    -0.002834885135
       3        0.001872630495     0.000099038761    -0.001760984774
       4       -0.000008612931    -0.000008837618     0.000009864046
       5       -0.000004399735     0.000024263137     0.000030982555
       6       -0.001796565005    -0.000078371259     0.001793553863
       7        0.000069252616    -0.000047832804    -0.000039471160
       8        0.000007172491    -0.000012385318     0.000002201824
       9        0.000001752104    -0.000001396218     0.000001194552
      10        0.000006216803    -0.000008426931     0.000021043251
      11        0.000014582722     0.000005643354     0.000007267689
      12       -0.000038133276    -0.000015538170    -0.000000129627
      13        0.000005716994     0.000011829370     0.000008763184

  **** Optimization is complete! (in 4 steps) ****
    Final optimized geometry and variables:
    Molecular point group: c1

    Geometry (in Angstrom), charge = 0, multiplicity = 1:

    H           -0.278525897330     2.031022478309    -0.299795352411
    C            0.432973011993     1.313587832596     0.091408090137
    N            0.073637286907    -0.021479392968    -0.336908827033
    H            1.423005411589     1.569924346111    -0.268802858085
    H            0.429157777779     1.421003888749     1.181076642484
    C            0.856822216334    -1.023860352715     0.350216917471
    C           -1.343534581346    -0.273536692863    -0.191062226422
    H            0.626694827100    -2.007473315936    -0.043371334086
    H            1.913507731189    -0.839578889999     0.189834963343
    H            0.675800475832    -1.036824447708     1.429693420114
    H           -1.908118880713     0.445374135677    -0.773543867313
    H           -1.579377291428    -1.263573832496    -0.564744073978
    H           -1.685421141137    -0.214213080547     0.847373601134

  Mulliken Charges: (a.u.)
   Center  Symbol    Alpha    Beta     Spin     Total
       1     H     0.41775  0.41775  0.00000  0.16450
       2     C     3.14347  3.14347  0.00000 -0.28694
       3     N     3.76493  3.76493  0.00000 -0.52987
       4     H     0.41522  0.41522  0.00000  0.16957
       5     H     0.43474  0.43474  0.00000  0.13052
       6     C     3.14398  3.14398  0.00000 -0.28796
       7     C     3.14381  3.14381  0.00000 -0.28762
       8     H     0.41644  0.41644  0.00000  0.16711
       9     H     0.41667  0.41667  0.00000  0.16666
      10     H     0.43469  0.43469  0.00000  0.13062
      11     H     0.41635  0.41635  0.00000  0.16729
      12     H     0.41677  0.41677  0.00000  0.16646
      13     H     0.43517  0.43517  0.00000  0.12965

   Total alpha = 17.00000, Total beta = 17.00000, Total charge = -0.00000
