  ==> Input File <==

--------------------------------------------------------------------------
set {
	reference rhf
	basis cc-pvtz
}

set_num_threads( 4 )
memory 2 gb

molecule MOL {
0 1

H	 1.714000	 -0.798000	 -0.000000
O	 0.786000	 -1.015000	 0.000000
C	 0.095000	 0.123000	 0.000000
C	 -1.387000	 -0.123000	 0.000000
O	 0.622000	 1.187000	 0.000000
H	 -1.660000	 -0.701000	 -0.875000
H	 -1.910000	 0.821000	 -0.000000
H	 -1.660000	 -0.701000	 0.875000

	symmetry c1
}
ee = optimize('scf')
oeprop('DIPOLE', 'QUADRUPOLE', 'MULLIKEN_CHARGES')
f=open( 'psi4out.xyz', 'w' )
f.write( "8  " )
f.write( str(ee) + "\n" )
f.write( MOL.save_string_xyz() )
f.close()
--------------------------------------------------------------------------

    Molecular point group: c1
  Charge       = 0
  Multiplicity = 1
  Basis Set: CC-PVTZ
  Basis Set:
  @DF-RHF Final Energy:  -227.90456660314453
    Total Energy =                       -227.9045666031445876
    Molecular point group: c1
  Basis Set: CC-PVTZ
  Basis Set:
  Basis Set: CC-PVTZ
  Basis Set:
  @DF-RHF Final Energy:  -227.90470763987435
    Total Energy =                       -227.9047076398742888
  Basis Set: CC-PVTZ
  Basis Set:
  Charge       = 0
  Multiplicity = 1
  Basis Set: CC-PVTZ
  Basis Set:

    Orbital Energies (a.u.)
    -----------------------

    Doubly Occupied:

       1A    -20.607074     2A    -20.542309     3A    -11.378405
       4A    -11.239251     5A     -1.480361     6A     -1.371695
       7A     -1.028539     8A     -0.834786     9A     -0.707026
      10A     -0.686382    11A     -0.657649    12A     -0.584766
      13A     -0.574064    14A     -0.563588    15A     -0.485940
      16A     -0.452487

  @DF-RHF Final Energy:  -227.90470989500835

   => Energetics <=

    Nuclear Repulsion Energy =            122.7987392022507578
    One-Electron Energy =                -555.0182549761686914
    Two-Electron Energy =                 204.3148058789095103
    DFT Exchange-Correlation Energy =       0.0000000000000000
    Empirical Dispersion Energy =           0.0000000000000000
    PCM Polarization Energy =               0.0000000000000000
    EFP Energy =                            0.0000000000000000
    Total Energy =                       -227.9047098950084091
    Molecular point group: c1
  Basis Set: CC-PVTZ
  Basis Set:

  -Total Gradient:
     Atom            X                  Y                   Z
    ------   -----------------  -----------------  -----------------
       1       -0.000127319993     0.000006449602    -0.000000000002
       2        0.000023938442     0.000022901356     0.000000000202
       3       -0.000039225663    -0.000246068039    -0.000000000670
       4        0.000067416740     0.000025747031     0.000000000262
       5        0.000046733922     0.000223249586     0.000000000246
       6       -0.000009049475     0.000002782777     0.000002591463
       7        0.000046555572    -0.000037845107     0.000000000012
       8       -0.000009049543     0.000002782796    -0.000002591514

  **** Optimization is complete! (in 3 steps) ****
    Final optimized geometry and variables:
    Molecular point group: c1

    Geometry (in Angstrom), charge = 0, multiplicity = 1:

    H            1.651321905047    -0.822464862945     0.000000001048
    O            0.729993332185    -1.034363755580     0.000000000448
    C            0.037305381373     0.100060930286    -0.000000001186
    C           -1.441963309791    -0.144562231498     0.000000000019
    O            0.559332416818     1.160383184146     0.000000000310
    H           -1.712515359568    -0.722838312016    -0.873994621815
    H           -1.963805151808     0.797991075747     0.000000000698
    H           -1.712515358112    -0.722838312436     0.873994621945

  Mulliken Charges: (a.u.)
   Center  Symbol    Alpha    Beta     Spin     Total
       1     H     0.38080  0.38080  0.00000  0.23841
       2     O     4.16075  4.16075  0.00000 -0.32151
       3     C     2.80234  2.80234  0.00000  0.39533
       4     C     3.14019  3.14019  0.00000 -0.28038
       5     O     4.19099  4.19099  0.00000 -0.38197
       6     H     0.44393  0.44393  0.00000  0.11214
       7     H     0.43708  0.43708  0.00000  0.12584
       8     H     0.44393  0.44393  0.00000  0.11214

   Total alpha = 16.00000, Total beta = 16.00000, Total charge = -0.00000
