  ==> Input File <==

--------------------------------------------------------------------------
set {
	reference rhf
	basis 6-31G*
}

set_num_threads( 1 )
memory 2 gb

molecule MOL {
0 1

H	 2.176868	 -0.646004	 -0.217325
O	 1.337496	 -0.537251	 0.205931
C	 0.702312	 0.627605	 -0.264544
C	 -0.714990	 0.596302	 0.266387
H	 0.682322	 0.642550	 -1.350929
H	 1.215941	 1.520383	 0.085680
O	 -1.405996	 -0.526611	 -0.195820
H	 -1.257453	 1.468809	 -0.075599
H	 -0.688972	 0.618407	 1.353696
H	 -1.828889	 -0.289931	 -1.011392

	symmetry c1
}
set optking {
	frozen_dihedral = ("
		5 3 4 7
	")
}

ee = energy('scf')
oeprop('DIPOLE', 'QUADRUPOLE', 'MULLIKEN_CHARGES')
f=open( 'psi4out.xyz', 'w' )
f.write( "10  " )
f.write( str(ee) + "\n" )
f.write( MOL.save_string_xyz() )
f.close()
--------------------------------------------------------------------------

    Molecular point group: c1

    Geometry (in Angstrom), charge = 0, multiplicity = 1:

       Center              X                  Y                   Z               Mass
    ------------   -----------------  -----------------  -----------------  -----------------
           H          2.192110966873    -0.662295141853    -0.200535884870     1.007825032070
           O          1.352738966873    -0.553542141853     0.222720115130    15.994914619560
           C          0.717554966873     0.611313858147    -0.247754884870    12.000000000000
           C         -0.699747033127     0.580010858147     0.283176115130    12.000000000000
           H          0.697564966873     0.626258858147    -1.334139884870     1.007825032070
           H          1.231183966873     1.504091858147     0.102469115130     1.007825032070
           O         -1.390753033127    -0.542902141853    -0.179030884870    15.994914619560
           H         -1.242210033127     1.452517858147    -0.058809884870     1.007825032070
           H         -0.673729033127     0.602115858147     1.370485115130     1.007825032070
           H         -1.813646033127    -0.306222141853    -0.994602884870     1.007825032070

  Charge       = 0
  Multiplicity = 1
  Basis Set: 6-31G*
  Basis Set:

    Orbital Energies (a.u.)
    -----------------------

    Doubly Occupied:

       1A    -20.552491     2A    -20.551987     3A    -11.271743
       4A    -11.270277     5A     -1.372070     6A     -1.348640
       7A     -0.999952     8A     -0.838391     9A     -0.721310
      10A     -0.673913    11A     -0.655077    12A     -0.594386
      13A     -0.571307    14A     -0.523829    15A     -0.484559
      16A     -0.442991    17A     -0.432623

  @DF-RHF Final Energy:  -228.91573569376004

   => Energetics <=

    Nuclear Repulsion Energy =            133.9443667850532051
    One-Electron Energy =                -579.1092232418083086
    Two-Electron Energy =                 216.2491207629947780
    DFT Exchange-Correlation Energy =       0.0000000000000000
    Empirical Dispersion Energy =           0.0000000000000000
    PCM Polarization Energy =               0.0000000000000000
    EFP Energy =                            0.0000000000000000
    Total Energy =                       -228.9157356937603254

  Mulliken Charges: (a.u.)
   Center  Symbol    Alpha    Beta     Spin     Total
       1     H     0.28045  0.28045  0.00000  0.43910
       2     O     4.36446  4.36446  0.00000 -0.72892
       3     C     2.99958  2.99958  0.00000  0.00083
       4     C     3.00522  3.00522  0.00000 -0.01043
       5     H     0.43486  0.43486  0.00000  0.13028
       6     H     0.43136  0.43136  0.00000  0.13728
       7     O     4.35987  4.35987  0.00000 -0.71974
       8     H     0.43253  0.43253  0.00000  0.13494
       9     H     0.40961  0.40961  0.00000  0.18079
      10     H     0.28206  0.28206  0.00000  0.43588

   Total alpha = 17.00000, Total beta = 17.00000, Total charge =  0.00000
