  ==> Input File <==

--------------------------------------------------------------------------
set {
	reference rhf
	basis cc-pvtz
}

set_num_threads( 4 )
memory 2 gb

molecule MOL {
0 1

H	 -3.643020	 -1.988537	 1.106922
O	 -3.161408	 -1.540200	 0.436669
C	 -1.921016	 -1.114995	 0.935717
C	 -1.175688	 -0.398187	 -0.171891
H	 -2.060397	 -0.445617	 1.782050
H	 -1.338758	 -1.965749	 1.283599
C	 0.196029	 0.106276	 0.266738
H	 -1.785348	 0.431651	 -0.515259
H	 -1.072380	 -1.077305	 -1.012155
C	 1.330220	 -0.826136	 -0.155230
H	 0.359542	 1.097229	 -0.145561
H	 0.212134	 0.218135	 1.348778
C	 2.719700	 -0.407669	 0.328325
H	 1.339388	 -0.911200	 -1.239363
H	 1.119001	 -1.821953	 0.224128
C	 3.241564	 0.893452	 -0.276737
H	 3.418299	 -1.204729	 0.093035
H	 2.711776	 -0.323368	 1.411960
H	 3.254204	 0.841071	 -1.360784
H	 2.634460	 1.745075	 0.005842
H	 4.254264	 1.092401	 0.054971

	symmetry c1
}
set optking {
	frozen_dihedral = ("
		8 4 7 10
	")
}

ee = optimize('scf')
oeprop('DIPOLE', 'QUADRUPOLE', 'MULLIKEN_CHARGES')
f=open( 'psi4out.xyz', 'w' )
f.write( "21  " )
f.write( str(ee) + "\n" )
f.write( MOL.save_string_xyz() )
f.close()
--------------------------------------------------------------------------

    Molecular point group: c1
  Charge       = 0
  Multiplicity = 1
  Basis Set: CC-PVTZ
  Basis Set:
  @DF-RHF Final Energy:  -310.32903627946268
    Total Energy =                       -310.3290362794631960
    Molecular point group: c1
  Basis Set: CC-PVTZ
  Basis Set:
  Basis Set: CC-PVTZ
  Basis Set:
  @DF-RHF Final Energy:  -310.32928979587643
    Total Energy =                       -310.3292897958763206
  Basis Set: CC-PVTZ
  Basis Set:
  Basis Set: CC-PVTZ
  Basis Set:
  @DF-RHF Final Energy:  -310.32932562394103
    Total Energy =                       -310.3293256239405764
  Basis Set: CC-PVTZ
  Basis Set:
  Basis Set: CC-PVTZ
  Basis Set:
  @DF-RHF Final Energy:  -310.32933100141781
    Total Energy =                       -310.3293310014179838
  Basis Set: CC-PVTZ
  Basis Set:
  Basis Set: CC-PVTZ
  Basis Set:
  @DF-RHF Final Energy:  -310.32933946035524
    Total Energy =                       -310.3293394603549586
  Basis Set: CC-PVTZ
  Basis Set:
  Charge       = 0
  Multiplicity = 1
  Basis Set: CC-PVTZ
  Basis Set:

    Orbital Energies (a.u.)
    -----------------------

    Doubly Occupied:

       1A    -20.545618     2A    -11.265461     3A    -11.213440
       4A    -11.213157     5A    -11.211854     6A    -11.208728
       7A    -11.206112     8A     -1.363667     9A     -1.086794
      10A     -1.033203    11A     -0.953849    12A     -0.879815
      13A     -0.809712    14A     -0.777792    15A     -0.698094
      16A     -0.652243    17A     -0.629583    18A     -0.609587
      19A     -0.590806    20A     -0.561705    21A     -0.547160
      22A     -0.518055    23A     -0.510542    24A     -0.495147
      25A     -0.475790    26A     -0.460463    27A     -0.452808
      28A     -0.448937    29A     -0.432788

  @DF-RHF Final Energy:  -310.32933956141756

   => Energetics <=

    Nuclear Repulsion Energy =            314.8323284210767952
    One-Electron Energy =               -1044.6175162734048172
    Two-Electron Energy =                 419.4558482909109216
    DFT Exchange-Correlation Energy =       0.0000000000000000
    Empirical Dispersion Energy =           0.0000000000000000
    PCM Polarization Energy =               0.0000000000000000
    EFP Energy =                            0.0000000000000000
    Total Energy =                       -310.3293395614171004
    Molecular point group: c1
  Basis Set: CC-PVTZ
  Basis Set:

  -Total Gradient:
     Atom            X                  Y                   Z
    ------   -----------------  -----------------  -----------------
       1        0.000013511081    -0.000000790331     0.000001411151
       2        0.000004850040     0.000011823234    -0.000010092134
       3        0.000003879693     0.000000713926     0.000007715981
       4       -0.001063554591     0.000883712848     0.002468402591
       5       -0.000001561008     0.000002114060    -0.000002149341
       6       -0.000005067052    -0.000001485768    -0.000002145663
       7       -0.000000912316    -0.001412038838     0.001743347739
       8        0.000878041980    -0.000417398070    -0.002510892177
       9       -0.000001968133    -0.000001242280    -0.000001488105
      10        0.000169499197     0.000941013739    -0.001694571155
      11       -0.000001780340    -0.000005277164     0.000001487630
      12        0.000003291921     0.000001774573    -0.000000360045
      13        0.000001781348    -0.000002805812     0.000002561826
      14       -0.000003168234     0.000000238559    -0.000000829201
      15        0.000004181770     0.000003529785     0.000001770189
      16       -0.000000571139    -0.000001642305    -0.000004641490
      17        0.000002090327     0.000000360330     0.000000724756
      18       -0.000003696985    -0.000000126252     0.000000178288
      19       -0.000000425489     0.000001854017    -0.000001532995
      20        0.000001667629    -0.000001649467     0.000001761291
      21       -0.000000089705    -0.000002678785    -0.000000659135

  **** Optimization is complete! (in 6 steps) ****
    Final optimized geometry and variables:
    Molecular point group: c1

    Geometry (in Angstrom), charge = 0, multiplicity = 1:

    H           -3.721060684324    -1.542655732814     0.930794021685
    O           -3.249117347628    -1.104112605615     0.247337981946
    C           -2.035026293824    -0.605609164415     0.741172951689
    C           -1.311583339624     0.109338459962    -0.382353098320
    H           -2.212244000312     0.085911430708     1.562078379042
    H           -1.417769739555    -1.415881404872     1.124140881959
    C            0.080946230577     0.615637287492     0.026310061127
    H           -1.929864596248     0.925969290174    -0.736162084667
    H           -1.224904066429    -0.577019951584    -1.218285955869
    C            1.211541051883    -0.327412186370    -0.387366039375
    H            0.248388526399     1.588134617323    -0.420303382264
    H            0.115953840266     0.772764649860     1.102124610536
    C            2.599183099738     0.071430451020     0.116755592812
    H            1.230314820538    -0.398339516600    -1.472004764578
    H            0.988749127053    -1.327319683005    -0.024387342437
    C            3.132333488121     1.383561487711    -0.453793281729
    H            3.295564335880    -0.723773009583    -0.131239926206
    H            2.582925495182     0.131184289577     1.201972656398
    H            3.149673557811     1.357748589115    -1.538713440672
    H            2.529286889029     2.231740871234    -0.153062207912
    H            4.144733447101     1.567427452982    -0.112709529521

  Mulliken Charges: (a.u.)
   Center  Symbol    Alpha    Beta     Spin     Total
       1     H     0.39734  0.39734  0.00000  0.20533
       2     O     4.19437  4.19437  0.00000 -0.38874
       3     C     2.95974  2.95974  0.00000  0.08052
       4     C     3.09179  3.09179  0.00000 -0.18358
       5     H     0.47421  0.47421  0.00000  0.05159
       6     H     0.47505  0.47505  0.00000  0.04991
       7     C     3.11431  3.11431  0.00000 -0.22861
       8     H     0.44580  0.44580  0.00000  0.10841
       9     H     0.45183  0.45183  0.00000  0.09635
      10     C     3.09310  3.09310  0.00000 -0.18619
      11     H     0.44332  0.44332  0.00000  0.11336
      12     H     0.45608  0.45608  0.00000  0.08783
      13     C     3.09024  3.09024  0.00000 -0.18047
      14     H     0.45225  0.45225  0.00000  0.09550
      15     H     0.44931  0.44931  0.00000  0.10137
      16     C     3.15276  3.15276  0.00000 -0.30551
      17     H     0.44869  0.44869  0.00000  0.10261
      18     H     0.45516  0.45516  0.00000  0.08969
      19     H     0.45453  0.45453  0.00000  0.09094
      20     H     0.45365  0.45365  0.00000  0.09271
      21     H     0.44650  0.44650  0.00000  0.10700

   Total alpha = 29.00000, Total beta = 29.00000, Total charge =  0.00000
