  ==> Input File <==

--------------------------------------------------------------------------
set {
	reference rhf
	basis 6-31G*
}

set_num_threads( 4 )
memory 2 gb

molecule MOL {
0 1

H	 3.729471	 -0.928294	 -0.070608
O	 2.826016	 -1.159218	 0.122261
C	 2.077727	 -0.067559	 -0.035091
C	 0.624473	 -0.343591	 0.253101
O	 2.542965	 0.974826	 -0.363729
C	 -0.265902	 0.883932	 0.072916
H	 0.324016	 -1.163849	 -0.390541
H	 0.565024	 -0.726111	 1.268924
C	 -1.728698	 0.646073	 0.462102
H	 -0.209144	 1.219470	 -0.958188
H	 0.135059	 1.692851	 0.673903
C	 -2.482460	 -0.343073	 -0.431425
H	 -2.245265	 1.602650	 0.432430
H	 -1.779332	 0.308348	 1.496285
C	 -1.613293	 -1.523794	 -0.863772
H	 -3.355533	 -0.713782	 0.101832
H	 -2.856776	 0.161841	 -1.318178
H	 -2.168017	 -2.209334	 -1.496725
H	 -1.255583	 -2.082680	 -0.003819
H	 -0.744714	 -1.186984	 -1.422669

	symmetry c1
}
set optking {
	frozen_dihedral = ("
		16 12 9 6
	")
}

ee = optimize('scf')
oeprop('DIPOLE', 'QUADRUPOLE', 'MULLIKEN_CHARGES')
f=open( 'psi4out.xyz', 'w' )
f.write( "20  " )
f.write( str(ee) + "\n" )
f.write( MOL.save_string_xyz() )
f.close()
--------------------------------------------------------------------------

    Molecular point group: c1
  Charge       = 0
  Multiplicity = 1
  Basis Set: 6-31G*
  Basis Set:
  @DF-RHF Final Energy:  -383.91810096563927
    Total Energy =                       -383.9181009656393826
    Molecular point group: c1
  Basis Set: 6-31G*
  Basis Set:
  Basis Set: 6-31G*
  Basis Set:
  @DF-RHF Final Energy:  -383.93522976018147
    Total Energy =                       -383.9352297601819828
  Basis Set: 6-31G*
  Basis Set:
  Basis Set: 6-31G*
  Basis Set:
  @DF-RHF Final Energy:  -383.93946631506043
    Total Energy =                       -383.9394663150603719
  Basis Set: 6-31G*
  Basis Set:
  Basis Set: 6-31G*
  Basis Set:
  @DF-RHF Final Energy:  -383.93859946033660
    Total Energy =                       -383.9385994603364907
  Basis Set: 6-31G*
  Basis Set:
  @DF-RHF Final Energy:  -383.94106860960403
    Total Energy =                       -383.9410686096039171
  @DF-RHF Final Energy:  -383.94147021563543
    Total Energy =                       -383.9414702156353769
  @DF-RHF Final Energy:  -383.94153222382562
    Total Energy =                       -383.9415322238256749
  Basis Set: 6-31G*
  Basis Set:
  @DF-RHF Final Energy:  -383.94156671640542
    Total Energy =                       -383.9415667164053048
  Basis Set: 6-31G*
  Basis Set:
  Basis Set: 6-31G*
  Basis Set:
  @DF-RHF Final Energy:  -383.94156058226361
    Total Energy =                       -383.9415605822636053
  Basis Set: 6-31G*
  Basis Set:
  Basis Set: 6-31G*
  Basis Set:
  @DF-RHF Final Energy:  -383.94157665199509
    Total Energy =                       -383.9415766519946374
  Basis Set: 6-31G*
  Basis Set:
  Charge       = 0
  Multiplicity = 1
  Basis Set: 6-31G*
  Basis Set:

    Orbital Energies (a.u.)
    -----------------------

    Doubly Occupied:

       1A    -20.612207     2A    -20.551302     3A    -11.380678
       4A    -11.239237     5A    -11.222808     6A    -11.221108
       7A    -11.220511     8A    -11.213656     9A     -1.474238
      10A     -1.365281    11A     -1.093640    12A     -1.037922
      13A     -0.961365    14A     -0.880305    15A     -0.807327
      16A     -0.774085    17A     -0.699049    18A     -0.686519
      19A     -0.666813    20A     -0.629959    21A     -0.618143
      22A     -0.590124    23A     -0.570246    24A     -0.558246
      25A     -0.532530    26A     -0.514647    27A     -0.507215
      28A     -0.478638    29A     -0.468586    30A     -0.460667
      31A     -0.455287    32A     -0.441318

  @DF-RHF Final Energy:  -383.94157696905461

   => Energetics <=

    Nuclear Repulsion Energy =            383.2908103466428429
    One-Electron Energy =               -1282.5974588082262926
    Two-Electron Energy =                 515.3650714925287275
    DFT Exchange-Correlation Energy =       0.0000000000000000
    Empirical Dispersion Energy =           0.0000000000000000
    PCM Polarization Energy =               0.0000000000000000
    EFP Energy =                            0.0000000000000000
    Total Energy =                       -383.9415769690547222
    Molecular point group: c1
  Basis Set: 6-31G*
  Basis Set:

  -Total Gradient:
     Atom            X                  Y                   Z
    ------   -----------------  -----------------  -----------------
       1       -0.000008851484     0.000006965784     0.000001367006
       2       -0.000013250142    -0.000017395180     0.000000341248
       3        0.000020933795    -0.000015280715     0.000002030017
       4        0.000005161060    -0.000033239439    -0.000049267852
       5       -0.000016165039     0.000023045332     0.000008631804
       6        0.001306021339    -0.003599501782     0.002041839355
       7       -0.000002318270     0.000006042425     0.000021725576
       8        0.000004679639     0.000015603575     0.000016790810
       9       -0.001227505316     0.004277835107    -0.002707671231
      10       -0.000009724651     0.000008437083     0.000014010073
      11        0.000010063600     0.000004455767    -0.000003566171
      12       -0.003162293728     0.004023345137    -0.000605804163
      13       -0.000001702217    -0.000004048500     0.000004428261
      14        0.000007942993     0.000002312576    -0.000002217413
      15        0.000001605369     0.000006719754    -0.000000893038
      16        0.003093786054    -0.004689433359     0.001259158642
      17       -0.000000589001    -0.000005424602    -0.000004230114
      18       -0.000000104459    -0.000002756304    -0.000003078462
      19       -0.000005432973    -0.000001866713    -0.000000465445
      20       -0.000002256571    -0.000005815941     0.000006871098

  **** Optimization is complete! (in 11 steps) ****
    Final optimized geometry and variables:
    Molecular point group: c1

    Geometry (in Angstrom), charge = 0, multiplicity = 1:

    H            3.584278230191    -0.579199166940     0.221177432974
    O            2.711924359283    -0.818580411706     0.518558643562
    C            1.864243126007     0.128659919729     0.117596748059
    C            0.451852200163    -0.170875198894     0.550109470058
    O            2.223734090892     1.076079402168    -0.502417419209
    C           -0.547044151201     0.897023119979     0.107467490342
    H            0.204578938328    -1.155673308877     0.172555435088
    H            0.462440495903    -0.263912368813     1.632915733117
    C           -1.989984680744     0.646504890627     0.582170894621
    H           -0.512276763178     1.004922151753    -0.971825457189
    H           -0.208210301937     1.847801615795     0.504204386642
    C           -2.900090081325    -0.200130296599    -0.331042781055
    H           -2.477899002536     1.604951733123     0.730663420013
    H           -1.951583236589     0.183803618512     1.566920896433
    C           -2.259392184599    -1.417205031712    -1.004861145338
    H           -3.719011377923    -0.577444801398     0.275590712261
    H           -3.330783469922     0.435748401656    -1.099429393786
    H           -2.996822890310    -1.937476259077    -1.608202155918
    H           -1.882203706013    -2.126241926842    -0.273715751112
    H           -1.441299398715    -1.142514345589    -1.662318666567

  Mulliken Charges: (a.u.)
   Center  Symbol    Alpha    Beta     Spin     Total
       1     H     0.26794  0.26794  0.00000  0.46413
       2     O     4.35158  4.35158  0.00000 -0.70316
       3     C     2.62308  2.62308  0.00000  0.75384
       4     C     3.21283  3.21283  0.00000 -0.42567
       5     O     4.27951  4.27951  0.00000 -0.55902
       6     C     3.15895  3.15895  0.00000 -0.31790
       7     H     0.39454  0.39454  0.00000  0.21091
       8     H     0.39896  0.39896  0.00000  0.20207
       9     C     3.15884  3.15884  0.00000 -0.31767
      10     H     0.40961  0.40961  0.00000  0.18078
      11     H     0.40868  0.40868  0.00000  0.18264
      12     C     3.15135  3.15135  0.00000 -0.30270
      13     H     0.41544  0.41544  0.00000  0.16913
      14     H     0.42383  0.42383  0.00000  0.15235
      15     C     3.24522  3.24522  0.00000 -0.49044
      16     H     0.42019  0.42019  0.00000  0.15961
      17     H     0.41997  0.41997  0.00000  0.16006
      18     H     0.41691  0.41691  0.00000  0.16619
      19     H     0.42269  0.42269  0.00000  0.15462
      20     H     0.41988  0.41988  0.00000  0.16023

   Total alpha = 32.00000, Total beta = 32.00000, Total charge = -0.00000
