  ==> Input File <==

--------------------------------------------------------------------------
set {
	reference rhf
	basis 6-31G*
}

set_num_threads( 4 )
memory 2 gb

molecule MOL {
0 1

O	 -0.682937	 1.318834	 -0.186099
C	 -0.860635	 0.152188	 -0.042321
C	 -2.173363	 -0.477127	 0.338347
O	 0.083258	 -0.765189	 -0.202595
H	 -2.477673	 -1.180929	 -0.427595
H	 -2.923125	 0.290956	 0.455536
H	 -2.058825	 -1.029004	 1.264191
C	 1.395325	 -0.479096	 0.276393
C	 1.527638	 -0.789717	 1.755803
H	 1.631170	 0.553766	 0.069719
H	 2.042814	 -1.113262	 -0.311901
H	 2.554246	 -0.634549	 2.073182
H	 0.888497	 -0.143633	 2.344398
H	 1.262169	 -1.822519	 1.953947

	symmetry c1
}
set optking {
	frozen_dihedral = ("
		8 4 2 1
	")
}

ee = optimize('scf')
oeprop('DIPOLE', 'QUADRUPOLE', 'MULLIKEN_CHARGES')
f=open( 'psi4out.xyz', 'w' )
f.write( "14  " )
f.write( str(ee) + "\n" )
f.write( MOL.save_string_xyz() )
f.close()
--------------------------------------------------------------------------

    Molecular point group: c1
  Charge       = 0
  Multiplicity = 1
  Basis Set: 6-31G*
  Basis Set:
  @DF-RHF Final Energy:  -305.86738707458670
    Total Energy =                       -305.8673870745868726
    Molecular point group: c1
  Basis Set: 6-31G*
  Basis Set:
  Basis Set: 6-31G*
  Basis Set:
  @DF-RHF Final Energy:  -305.86478712959820
    Total Energy =                       -305.8647871295982554
  Basis Set: 6-31G*
  Basis Set:
  Basis Set: 6-31G*
  Basis Set:
  @DF-RHF Final Energy:  -305.86811954612722
    Total Energy =                       -305.8681195461272182
  Basis Set: 6-31G*
  Basis Set:
  Basis Set: 6-31G*
  Basis Set:
  @DF-RHF Final Energy:  -305.86818061386180
    Total Energy =                       -305.8681806138616821
  Basis Set: 6-31G*
  Basis Set:
  @DF-RHF Final Energy:  -305.86818516388576
    Total Energy =                       -305.8681851638856983
  Basis Set: 6-31G*
  Basis Set:
  @DF-RHF Final Energy:  -305.86818932851372
    Total Energy =                       -305.8681893285136084
  Basis Set: 6-31G*
  Basis Set:
  Basis Set: 6-31G*
  Basis Set:
  @DF-RHF Final Energy:  -305.86818684542510
    Total Energy =                       -305.8681868454248729
  Basis Set: 6-31G*
  Basis Set:
  Basis Set: 6-31G*
  Basis Set:
  @DF-RHF Final Energy:  -305.86819075617120
    Total Energy =                       -305.8681907561712592
  Basis Set: 6-31G*
  Basis Set:
  Charge       = 0
  Multiplicity = 1
  Basis Set: 6-31G*
  Basis Set:

    Orbital Energies (a.u.)
    -----------------------

    Doubly Occupied:

       1A    -20.594498     2A    -20.548557     3A    -11.376394
       4A    -11.288125     5A    -11.233857     6A    -11.226053
       7A     -1.463058     8A     -1.363870     9A     -1.053472
      10A     -1.003657    11A     -0.884687    12A     -0.762921
      13A     -0.697184    14A     -0.682152    15A     -0.662405
      16A     -0.613983    17A     -0.590048    18A     -0.571088
      19A     -0.557664    20A     -0.537148    21A     -0.517472
      22A     -0.494487    23A     -0.450297    24A     -0.437911

  @DF-RHF Final Energy:  -305.86819078395791

   => Energetics <=

    Nuclear Repulsion Energy =            248.7469525845422709
    One-Electron Energy =                -910.0083069501648652
    Two-Electron Energy =                 355.3931635816649077
    DFT Exchange-Correlation Energy =       0.0000000000000000
    Empirical Dispersion Energy =           0.0000000000000000
    PCM Polarization Energy =               0.0000000000000000
    EFP Energy =                            0.0000000000000000
    Total Energy =                       -305.8681907839576297
    Molecular point group: c1
  Basis Set: 6-31G*
  Basis Set:

  -Total Gradient:
     Atom            X                  Y                   Z
    ------   -----------------  -----------------  -----------------
       1       -0.002577159760    -0.000093875279    -0.009364554497
       2        0.003068071783    -0.001542437072     0.017408657211
       3       -0.000020500620    -0.000089247788    -0.000168665503
       4        0.001060952205     0.005248730749    -0.014297568892
       5       -0.000000201008    -0.000004395217     0.000007815916
       6        0.000042423485     0.000008309688     0.000004681101
       7       -0.000006314443    -0.000016240317     0.000024075472
       8       -0.001516038852    -0.003439882014     0.006391450176
       9       -0.000085781178    -0.000075922953    -0.000029316433
      10        0.000007345215    -0.000034743886    -0.000028202503
      11        0.000023390757     0.000011745778     0.000026839852
      12        0.000052172612    -0.000001359833    -0.000003506382
      13       -0.000037035097    -0.000012081566    -0.000000509273
      14       -0.000011325098     0.000041399711     0.000028803756

  **** Optimization is complete! (in 9 steps) ****
    Final optimized geometry and variables:
    Molecular point group: c1

    Geometry (in Angstrom), charge = 0, multiplicity = 1:

    O           -0.563362087819     1.497684963457    -0.374741776246
    C           -0.747836988047     0.327637276439    -0.308834385036
    C           -2.080995088510    -0.316363676283    -0.044444563224
    O            0.194962102274    -0.582285357296    -0.570986942954
    H           -2.320233910622    -1.000481012287    -0.850211298994
    H           -2.845178079245     0.441749496298     0.041350677056
    H           -2.029197477797    -0.896340864480     0.870708329199
    C            1.520934794702    -0.329181994197    -0.116922646349
    C            1.647385957456    -0.588592171782     1.373375627836
    H            1.798141488486     0.684096040466    -0.368140750497
    H            2.142597229933    -1.008514133569    -0.681496641113
    H            2.679174591211    -0.459064499424     1.684616756227
    H            1.038293959876     0.104532837221     1.944472856496
    H            1.340943809614    -1.600486964206     1.614162658558

  Mulliken Charges: (a.u.)
   Center  Symbol    Alpha    Beta     Spin     Total
       1     O     4.27353  4.27353  0.00000 -0.54705
       2     C     2.61971  2.61971  0.00000  0.76058
       3     C     3.28316  3.28316  0.00000 -0.56631
       4     O     4.31183  4.31183  0.00000 -0.62366
       5     H     0.39824  0.39824  0.00000  0.20351
       6     H     0.39765  0.39765  0.00000  0.20471
       7     H     0.40367  0.40367  0.00000  0.19266
       8     C     3.00874  3.00874  0.00000 -0.01747
       9     C     3.25652  3.25652  0.00000 -0.51305
      10     H     0.40060  0.40060  0.00000  0.19881
      11     H     0.40845  0.40845  0.00000  0.18310
      12     H     0.41432  0.41432  0.00000  0.17135
      13     H     0.41145  0.41145  0.00000  0.17710
      14     H     0.41214  0.41214  0.00000  0.17572

   Total alpha = 24.00000, Total beta = 24.00000, Total charge =  0.00000
