  ==> Input File <==

--------------------------------------------------------------------------
set {
	reference rhf
	basis 6-31G*
}

set_num_threads( 1 )
memory 2 gb

molecule MOL {
0 1

H	 -0.529872	 3.938557	 2.434916
O	 0.151810	 3.342908	 2.158480
C	 -0.417540	 2.263394	 1.463441
C	 0.702084	 1.331011	 1.035829
H	 -1.125263	 1.730362	 2.096934
H	 -0.963571	 2.615696	 0.589329
C	 0.198102	 0.111031	 0.262842
H	 1.241611	 1.014619	 1.924387
H	 1.404298	 1.895812	 0.428892
C	 1.331804	 -0.827780	 -0.158768
H	 -0.520611	 -0.428114	 0.875172
H	 -0.340688	 0.440147	 -0.624799
C	 2.723619	 -0.410569	 0.329459
H	 1.342964	 -0.912588	 -1.244120
H	 1.116806	 -1.824343	 0.220779
C	 3.243875	 0.895854	 -0.272975
H	 3.424222	 -1.207124	 0.091250
H	 2.714788	 -0.329854	 1.414619
H	 3.251977	 0.848779	 -1.358681
H	 2.637085	 1.747371	 0.016682
H	 4.259473	 1.094070	 0.055697

	symmetry c1
}
set optking {
	frozen_dihedral = ("
		2 3 4 8,
		8 4 7 10,
		16 13 10 14,
		1 2 3 5
	")
}

ee = energy('scf')
oeprop('DIPOLE', 'QUADRUPOLE', 'MULLIKEN_CHARGES')
f=open( 'psi4out.xyz', 'w' )
f.write( "21  " )
f.write( str(ee) + "\n" )
f.write( MOL.save_string_xyz() )
f.close()
--------------------------------------------------------------------------

    Molecular point group: c1

    Geometry (in Angstrom), charge = 0, multiplicity = 1:

       Center              X                  Y                   Z               Mass
    ------------   -----------------  -----------------  -----------------  -----------------
           H         -1.645052481335     2.914788467073     1.715869543494     1.007825032070
           O         -0.963370481335     2.319139467073     1.439433543494    15.994914619560
           C         -1.532720481335     1.239625467073     0.744394543494    12.000000000000
           C         -0.413096481335     0.307242467073     0.316782543494    12.000000000000
           H         -2.240443481335     0.706593467073     1.377887543494     1.007825032070
           H         -2.078751481335     1.591927467073    -0.129717456506     1.007825032070
           C         -0.917078481335    -0.912737532927    -0.456204456506    12.000000000000
           H          0.126430518665    -0.009149532927     1.205340543494     1.007825032070
           H          0.289117518665     0.872043467073    -0.290154456506     1.007825032070
           C          0.216623518665    -1.851548532927    -0.877814456506    12.000000000000
           H         -1.635791481335    -1.451882532927     0.156125543494     1.007825032070
           H         -1.455868481335    -0.583621532927    -1.343845456506     1.007825032070
           C          1.608438518665    -1.434337532927    -0.389587456506    12.000000000000
           H          0.227783518665    -1.936356532927    -1.963166456506     1.007825032070
           H          0.001625518665    -2.848111532927    -0.498267456506     1.007825032070
           C          2.128694518665    -0.127914532927    -0.992021456506    12.000000000000
           H          2.309041518665    -2.230892532927    -0.627796456506     1.007825032070
           H          1.599607518665    -1.353622532927     0.695572543494     1.007825032070
           H          2.136796518665    -0.174989532927    -2.077727456506     1.007825032070
           H          1.521904518665     0.723602467073    -0.702364456506     1.007825032070
           H          3.144292518665     0.070301467073    -0.663349456506     1.007825032070

  Charge       = 0
  Multiplicity = 1
  Basis Set: 6-31G*
  Basis Set:

    Orbital Energies (a.u.)
    -----------------------

    Doubly Occupied:

       1A    -20.550978     2A    -11.264272     3A    -11.214307
       4A    -11.212618     5A    -11.211863     6A    -11.204013
       7A    -11.199252     8A     -1.357596     9A     -1.092666
      10A     -1.021055    11A     -0.961131    12A     -0.877056
      13A     -0.815377    14A     -0.769701    15A     -0.688722
      16A     -0.661649    17A     -0.635370    18A     -0.615246
      19A     -0.579044    20A     -0.558478    21A     -0.550494
      22A     -0.529188    23A     -0.499206    24A     -0.490053
      25A     -0.481865    26A     -0.448589    27A     -0.445129
      28A     -0.438268    29A     -0.420411

  @DF-RHF Final Energy:  -310.17495671028524

   => Energetics <=

    Nuclear Repulsion Energy =            327.7582518279036208
    One-Electron Energy =               -1070.2791660558998501
    Two-Electron Energy =                 432.3459575177106444
    DFT Exchange-Correlation Energy =       0.0000000000000000
    Empirical Dispersion Energy =           0.0000000000000000
    PCM Polarization Energy =               0.0000000000000000
    EFP Energy =                            0.0000000000000000
    Total Energy =                       -310.1749567102855281

  Mulliken Charges: (a.u.)
   Center  Symbol    Alpha    Beta     Spin     Total
       1     H     0.28123  0.28123  0.00000  0.43753
       2     O     4.37262  4.37262  0.00000 -0.74523
       3     C     2.98530  2.98530  0.00000  0.02941
       4     C     3.17133  3.17133  0.00000 -0.34266
       5     H     0.43412  0.43412  0.00000  0.13176
       6     H     0.43424  0.43424  0.00000  0.13152
       7     C     3.16108  3.16108  0.00000 -0.32217
       8     H     0.41260  0.41260  0.00000  0.17480
       9     H     0.41316  0.41316  0.00000  0.17367
      10     C     3.15511  3.15511  0.00000 -0.31022
      11     H     0.42013  0.42013  0.00000  0.15973
      12     H     0.42100  0.42100  0.00000  0.15801
      13     C     3.16113  3.16113  0.00000 -0.32225
      14     H     0.42123  0.42123  0.00000  0.15754
      15     H     0.41950  0.41950  0.00000  0.16100
      16     C     3.24187  3.24187  0.00000 -0.48373
      17     H     0.41821  0.41821  0.00000  0.16358
      18     H     0.41969  0.41969  0.00000  0.16062
      19     H     0.42376  0.42376  0.00000  0.15248
      20     H     0.41325  0.41325  0.00000  0.17350
      21     H     0.41944  0.41944  0.00000  0.16113

   Total alpha = 29.00000, Total beta = 29.00000, Total charge = -0.00000
