  ==> Input File <==

--------------------------------------------------------------------------
set {
	reference rhf
	basis cc-pvtz
}

set_num_threads( 4 )
memory 2 gb

molecule MOL {
0 1

H	 -3.162190	 0.493205	 -0.000107
C	 -2.363908	 -0.234727	 0.000005
O	 -1.158738	 0.454634	 -0.000087
H	 -2.464314	 -0.863616	 -0.882153
H	 -2.464327	 -0.863359	 0.882345
C	 -0.180584	 -0.094120	 -0.826163
C	 1.077413	 0.745986	 -0.736392
H	 -0.536955	 -0.128162	 -1.855958
H	 0.030638	 -1.120368	 -0.524761
C	 2.200644	 0.208388	 -1.615991
H	 0.834254	 1.763620	 -1.021382
H	 1.397356	 0.779254	 0.299215
H	 1.909812	 0.189357	 -2.661046
H	 3.085980	 0.826678	 -1.532823
H	 2.476879	 -0.801460	 -1.331438

	symmetry c1
}
set optking {
	frozen_dihedral = ("
		6 3 2 4
	")
}

ee = optimize('scf')
oeprop('DIPOLE', 'QUADRUPOLE', 'MULLIKEN_CHARGES')
f=open( 'psi4out.xyz', 'w' )
f.write( "15  " )
f.write( str(ee) + "\n" )
f.write( MOL.save_string_xyz() )
f.close()
--------------------------------------------------------------------------

    Molecular point group: c1
  Charge       = 0
  Multiplicity = 1
  Basis Set: CC-PVTZ
  Basis Set:
  @DF-RHF Final Energy:  -232.22522902439397
    Total Energy =                       -232.2252290243940820
    Molecular point group: c1
  Basis Set: CC-PVTZ
  Basis Set:
  Basis Set: CC-PVTZ
  Basis Set:
  @DF-RHF Final Energy:  -232.22540878728068
    Total Energy =                       -232.2254087872805144
  Basis Set: CC-PVTZ
  Basis Set:
  Basis Set: CC-PVTZ
  Basis Set:
  @DF-RHF Final Energy:  -232.22547113559136
    Total Energy =                       -232.2254711355914765
  Basis Set: CC-PVTZ
  Basis Set:
  Charge       = 0
  Multiplicity = 1
  Basis Set: CC-PVTZ
  Basis Set:

    Orbital Energies (a.u.)
    -----------------------

    Doubly Occupied:

       1A    -20.544806     2A    -11.264834     3A    -11.261408
       4A    -11.212360     5A    -11.210535     6A     -1.378037
       7A     -1.058133     8A     -0.956113     9A     -0.877436
      10A     -0.809329    11A     -0.673928    12A     -0.654477
      13A     -0.632001    14A     -0.608117    15A     -0.564249
      16A     -0.544237    17A     -0.503087    18A     -0.490091
      19A     -0.478958    20A     -0.462288    21A     -0.412152

  @DF-RHF Final Energy:  -232.22547153486593

   => Energetics <=

    Nuclear Repulsion Energy =            189.7465920614537538
    One-Electron Energy =                -690.7509767814499355
    Two-Electron Energy =                 268.7789131851301363
    DFT Exchange-Correlation Energy =       0.0000000000000000
    Empirical Dispersion Energy =           0.0000000000000000
    PCM Polarization Energy =               0.0000000000000000
    EFP Energy =                            0.0000000000000000
    Total Energy =                       -232.2254715348660739
    Molecular point group: c1
  Basis Set: CC-PVTZ
  Basis Set:

  -Total Gradient:
     Atom            X                  Y                   Z
    ------   -----------------  -----------------  -----------------
       1       -0.000029694779    -0.000000123794    -0.000005479292
       2       -0.001619402237     0.002939305286    -0.002202980121
       3        0.001105524167    -0.002181310668     0.002520828607
       4        0.001081042568    -0.001852640751     0.001215444535
       5        0.000015485558    -0.000002075921    -0.000001928248
       6       -0.000577229397     0.001087222307    -0.001487542948
       7       -0.000010744024    -0.000014166274    -0.000018468041
       8       -0.000004898865     0.000009320110     0.000019923612
       9       -0.000006965206     0.000009002416    -0.000010995049
      10        0.000038549380     0.000016017571    -0.000010329810
      11        0.000004324470    -0.000001354065     0.000001680709
      12       -0.000012576471    -0.000006823505    -0.000009284196
      13        0.000001825129    -0.000000705603     0.000001926112
      14        0.000018151596    -0.000006083273    -0.000012917773
      15       -0.000003391887     0.000004416163     0.000000121901

  **** Optimization is complete! (in 4 steps) ****
    Final optimized geometry and variables:
    Molecular point group: c1

    Geometry (in Angstrom), charge = 0, multiplicity = 1:

    H           -3.065118226747     0.296457625670     0.658201207600
    C           -2.262091300754    -0.428207377016     0.638239724690
    O           -1.043436387603     0.245917368002     0.619928963665
    H           -2.383713090200    -1.067379954671    -0.231043239507
    H           -2.339137501346    -1.056382756782     1.521564649085
    C           -0.058454214976    -0.304365179919    -0.198502223545
    C            1.195616276490     0.540681297930    -0.100975069602
    H           -0.407314531690    -0.339622921477    -1.230030611525
    H            0.158221489366    -1.329013538451     0.104445050751
    C            2.324828209924     0.010209618197    -0.977545827451
    H            0.948952691648     1.558059740265    -0.384194238939
    H            1.511339199045     0.572854277310     0.935977852294
    H            2.038397535247    -0.006984617674    -2.023905652572
    H            3.207477222955     0.631761730887    -0.889086653281
    H            2.603996404429    -0.999384501050    -0.694766427574

  Mulliken Charges: (a.u.)
   Center  Symbol    Alpha    Beta     Spin     Total
       1     H     0.45278  0.45278  0.00000  0.09445
       2     C     3.03005  3.03005  0.00000 -0.06009
       3     O     4.17548  4.17548  0.00000 -0.35097
       4     H     0.47381  0.47381  0.00000  0.05239
       5     H     0.46296  0.46296  0.00000  0.07409
       6     C     2.95551  2.95551  0.00000  0.08897
       7     C     3.08173  3.08173  0.00000 -0.16347
       8     H     0.47503  0.47503  0.00000  0.04993
       9     H     0.47647  0.47647  0.00000  0.04707
      10     C     3.15587  3.15587  0.00000 -0.31174
      11     H     0.45123  0.45123  0.00000  0.09754
      12     H     0.45105  0.45105  0.00000  0.09790
      13     H     0.45592  0.45592  0.00000  0.08816
      14     H     0.44627  0.44627  0.00000  0.10746
      15     H     0.45584  0.45584  0.00000  0.08832

   Total alpha = 21.00000, Total beta = 21.00000, Total charge =  0.00000
