  ==> Input File <==

--------------------------------------------------------------------------
set {
	reference rhf
	basis 6-31G*
}

set_num_threads( 1 )
memory 2 gb

molecule MOL {
0 1

O	 -0.444208	 -1.384404	 -0.679987
C	 0.581260	 -1.299399	 -0.084798
C	 1.245376	 -0.013843	 0.345420
O	 1.293736	 -2.355376	 0.287922
C	 0.455112	 1.231400	 -0.050772
H	 1.395026	 -0.076448	 1.418209
H	 2.240101	 -0.001727	 -0.092839
C	 -0.998893	 1.219485	 0.433193
H	 0.482531	 1.345121	 -1.130325
H	 0.957290	 2.103070	 0.354729
C	 -1.883438	 0.145884	 -0.207175
H	 -1.431207	 2.195402	 0.224832
H	 -1.019646	 1.105716	 1.516076
C	 -3.347647	 0.245583	 0.225435
H	 -1.822183	 0.231698	 -1.291012
H	 -1.510341	 -0.844814	 0.042401
C	 -4.239992	 -0.825570	 -0.404234
H	 -3.732888	 1.230466	 -0.033079
H	 -3.408585	 0.170602	 1.310038
C	 -5.701275	 -0.716658	 0.029921
H	 -4.179496	 -0.752714	 -1.488058
H	 -3.859041	 -1.810759	 -0.143352
H	 -6.308102	 -1.488908	 -0.432678
H	 -6.122175	 0.245478	 -0.248167
H	 -5.799072	 -0.820114	 1.106957
C	 0.781720	 -3.629871	 -0.056148
H	 -0.187703	 -3.784553	 0.395291
H	 1.491355	 -4.346390	 0.327294
H	 0.693612	 -3.727275	 -1.128662

	symmetry c1
}
set optking {
	frozen_dihedral = ("
		21 17 14 11,
		17 14 11 15,
		15 11 8 5,
		11 8 5 9,
		2 4 26 27,
		1 2 4 26,
		6 3 2 1
	")
}

ee = energy('scf')
oeprop('DIPOLE', 'QUADRUPOLE', 'MULLIKEN_CHARGES')
f=open( 'psi4out.xyz', 'w' )
f.write( "29  " )
f.write( str(ee) + "\n" )
f.write( MOL.save_string_xyz() )
f.close()
--------------------------------------------------------------------------

    Molecular point group: c1

    Geometry (in Angstrom), charge = 0, multiplicity = 1:

       Center              X                  Y                   Z               Mass
    ------------   -----------------  -----------------  -----------------  -----------------
           O          0.669282845091    -0.672144311797    -0.662357595127    15.994914619560
           C          1.694750845091    -0.587139311797    -0.067168595127    12.000000000000
           C          2.358866845091     0.698416688203     0.363049404873    12.000000000000
           O          2.407226845091    -1.643116311797     0.305551404873    15.994914619560
           C          1.568602845091     1.943659688203    -0.033142595127    12.000000000000
           H          2.508516845091     0.635811688203     1.435838404873     1.007825032070
           H          3.353591845091     0.710532688203    -0.075209595127     1.007825032070
           C          0.114597845091     1.931744688203     0.450822404873    12.000000000000
           H          1.596021845091     2.057380688203    -1.112695595127     1.007825032070
           H          2.070780845091     2.815329688203     0.372358404873     1.007825032070
           C         -0.769947154909     0.858143688203    -0.189545595127    12.000000000000
           H         -0.317716154909     2.907661688203     0.242461404873     1.007825032070
           H          0.093844845091     1.817975688203     1.533705404873     1.007825032070
           C         -2.234156154909     0.957842688203     0.243064404873    12.000000000000
           H         -0.708692154909     0.943957688203    -1.273382595127     1.007825032070
           H         -0.396850154909    -0.132554311797     0.060030404873     1.007825032070
           C         -3.126501154909    -0.113310311797    -0.386604595127    12.000000000000
           H         -2.619397154909     1.942725688203    -0.015449595127     1.007825032070
           H         -2.295094154909     0.882861688203     1.327667404873     1.007825032070
           C         -4.587784154909    -0.004398311797     0.047550404873    12.000000000000
           H         -3.066005154909    -0.040454311797    -1.470428595127     1.007825032070
           H         -2.745550154909    -1.098499311797    -0.125722595127     1.007825032070
           H         -5.194611154909    -0.776648311797    -0.415048595127     1.007825032070
           H         -5.008684154909     0.957737688203    -0.230537595127     1.007825032070
           H         -4.685581154909    -0.107854311797     1.124586404873     1.007825032070
           C          1.895210845091    -2.917611311797    -0.038518595127    12.000000000000
           H          0.925787845091    -3.072293311797     0.412920404873     1.007825032070
           H          2.604845845091    -3.634130311797     0.344923404873     1.007825032070
           H          1.807102845091    -3.015015311797    -1.111032595127     1.007825032070

  Charge       = 0
  Multiplicity = 1
  Basis Set: 6-31G*
  Basis Set:

    Orbital Energies (a.u.)
    -----------------------

    Doubly Occupied:

       1A    -20.610577     2A    -20.551730     3A    -11.380049
       4A    -11.286757     5A    -11.240862     6A    -11.221868
       7A    -11.204146     8A    -11.197129     9A    -11.195139
      10A    -11.185625    11A    -11.162521    12A     -1.483529
      13A     -1.385416    14A     -1.089196    15A     -1.055074
      16A     -1.014528    17A     -0.971535    18A     -0.919753
      19A     -0.854718    20A     -0.820163    21A     -0.781738
      22A     -0.750517    23A     -0.712850    24A     -0.695150
      25A     -0.684591    26A     -0.641640    27A     -0.616176
      28A     -0.613213    29A     -0.581433    30A     -0.569639
      31A     -0.562687    32A     -0.558693    33A     -0.532912
      34A     -0.522891    35A     -0.520497    36A     -0.501842
      37A     -0.487156    38A     -0.479119    39A     -0.464042
      40A     -0.462001    41A     -0.452685    42A     -0.431958
      43A     -0.416656    44A     -0.359958

  @DF-RHF Final Energy:  -500.95355703906387

   => Energetics <=

    Nuclear Repulsion Energy =            660.3874735081075187
    One-Electron Energy =               -1992.2212394663083614
    Two-Electron Energy =                 830.8802089191398181
    DFT Exchange-Correlation Energy =       0.0000000000000000
    Empirical Dispersion Energy =           0.0000000000000000
    PCM Polarization Energy =               0.0000000000000000
    EFP Energy =                            0.0000000000000000
    Total Energy =                       -500.9535570390609109

  Mulliken Charges: (a.u.)
   Center  Symbol    Alpha    Beta     Spin     Total
       1     O     4.28633  4.28633  0.00000 -0.57266
       2     C     2.60402  2.60402  0.00000  0.79195
       3     C     3.20835  3.20835  0.00000 -0.41670
       4     O     4.30541  4.30541  0.00000 -0.61082
       5     C     3.15735  3.15735  0.00000 -0.31470
       6     H     0.39842  0.39842  0.00000  0.20315
       7     H     0.39649  0.39649  0.00000  0.20702
       8     C     3.16056  3.16056  0.00000 -0.32113
       9     H     0.41463  0.41463  0.00000  0.17075
      10     H     0.41534  0.41534  0.00000  0.16932
      11     C     3.14720  3.14720  0.00000 -0.29441
      12     H     0.42164  0.42164  0.00000  0.15672
      13     H     0.42864  0.42864  0.00000  0.14271
      14     C     3.14565  3.14565  0.00000 -0.29131
      15     H     0.42981  0.42981  0.00000  0.14038
      16     H     0.38306  0.38306  0.00000  0.23387
      17     C     3.14791  3.14791  0.00000 -0.29581
      18     H     0.43581  0.43581  0.00000  0.12837
      19     H     0.43439  0.43439  0.00000  0.13122
      20     C     3.23760  3.23760  0.00000 -0.47520
      21     H     0.42500  0.42500  0.00000  0.15001
      22     H     0.42689  0.42689  0.00000  0.14621
      23     H     0.42325  0.42325  0.00000  0.15349
      24     H     0.42342  0.42342  0.00000  0.15316
      25     H     0.42462  0.42462  0.00000  0.15075
      26     C     3.09377  3.09377  0.00000 -0.18754
      27     H     0.40974  0.40974  0.00000  0.18052
      28     H     0.40639  0.40639  0.00000  0.18723
      29     H     0.40828  0.40828  0.00000  0.18344

   Total alpha = 44.00000, Total beta = 44.00000, Total charge = -0.00000
