  ==> Input File <==

--------------------------------------------------------------------------
set {
	reference rhf
	basis 6-31G*
}

set_num_threads( 1 )
memory 2 gb

molecule MOL {
0 1

O	 1.857517	 0.241204	 0.926034
C	 1.122059	 0.121804	 -0.000188
C	 -0.170150	 -0.657997	 -0.000612
O	 1.350319	 0.674359	 -1.184906
C	 -1.412532	 0.227344	 -0.000452
H	 -0.153702	 -1.313099	 -0.867402
H	 -0.153924	 -1.313811	 0.865644
C	 -2.706999	 -0.587347	 -0.000541
H	 -1.388000	 0.879466	 -0.868000
H	 -1.387972	 0.879138	 0.867341
C	 -3.956778	 0.291888	 0.000910
H	 -2.726114	 -1.239230	 -0.871609
H	 -2.725217	 -1.240844	 0.869333
H	 -3.985213	 0.933254	 -0.875158
H	 -4.860123	 -0.309979	 0.000519
H	 -3.984618	 0.931166	 0.878514
C	 2.535489	 1.437324	 -1.320542
H	 2.533444	 2.268521	 -0.630184
H	 2.540589	 1.796239	 -2.337942
H	 3.405567	 0.823975	 -1.135408

	symmetry c1
}
set optking {
	frozen_dihedral = ("
		9 5 8 12,
		9 5 3 6,
		1 2 4 17
	")
}

ee = energy('scf')
oeprop('DIPOLE', 'QUADRUPOLE', 'MULLIKEN_CHARGES')
f=open( 'psi4out.xyz', 'w' )
f.write( "20  " )
f.write( str(ee) + "\n" )
f.write( MOL.save_string_xyz() )
f.close()
--------------------------------------------------------------------------

    Molecular point group: c1

    Geometry (in Angstrom), charge = 0, multiplicity = 1:

       Center              X                  Y                   Z               Mass
    ------------   -----------------  -----------------  -----------------  -----------------
           O          2.001757539767     0.002070083630     1.133937418520    15.994914619560
           C          1.266299539767    -0.117329916370     0.207715418520    12.000000000000
           C         -0.025909460233    -0.897130916370     0.207291418520    12.000000000000
           O          1.494559539767     0.435225083630    -0.977002581480    15.994914619560
           C         -1.268291460233    -0.011789916370     0.207451418520    12.000000000000
           H         -0.009461460233    -1.552232916370    -0.659498581480     1.007825032070
           H         -0.009683460233    -1.552944916370     1.073547418520     1.007825032070
           C         -2.562758460233    -0.826480916370     0.207362418520    12.000000000000
           H         -1.243759460233     0.640332083630    -0.660096581480     1.007825032070
           H         -1.243731460233     0.640004083630     1.075244418520     1.007825032070
           C         -3.812537460233     0.052754083630     0.208813418520    12.000000000000
           H         -2.581873460233    -1.478363916370    -0.663705581480     1.007825032070
           H         -2.580976460233    -1.479977916370     1.077236418520     1.007825032070
           H         -3.840972460233     0.694120083630    -0.667254581480     1.007825032070
           H         -4.715882460233    -0.549112916370     0.208422418520     1.007825032070
           H         -3.840377460233     0.692032083630     1.086417418520     1.007825032070
           C          2.679729539767     1.198190083630    -1.112638581480    12.000000000000
           H          2.677684539767     2.029387083630    -0.422280581480     1.007825032070
           H          2.684829539767     1.557105083630    -2.130038581480     1.007825032070
           H          3.549807539767     0.584841083630    -0.927504581480     1.007825032070

  Charge       = 0
  Multiplicity = 1
  Basis Set: 6-31G*
  Basis Set:

    Orbital Energies (a.u.)
    -----------------------

    Doubly Occupied:

       1A    -20.604074     2A    -20.544010     3A    -11.371023
       4A    -11.280704     5A    -11.233819     6A    -11.229272
       7A    -11.224723     8A    -11.214526     9A     -1.468865
      10A     -1.361563    11A     -1.093714    12A     -1.025487
      13A     -0.967447    14A     -0.890844    15A     -0.808569
      16A     -0.773782    17A     -0.693535    18A     -0.679701
      19A     -0.673475    20A     -0.646526    21A     -0.598776
      22A     -0.591442    23A     -0.574590    24A     -0.553439
      25A     -0.533682    26A     -0.520071    27A     -0.508970
      28A     -0.485767    29A     -0.482706    30A     -0.475122
      31A     -0.454064    32A     -0.429243

  @DF-RHF Final Energy:  -383.93991341253735

   => Energetics <=

    Nuclear Repulsion Energy =            383.0925188530972605
    One-Electron Energy =               -1282.0779489860467493
    Two-Electron Energy =                 515.0455167204127065
    DFT Exchange-Correlation Energy =       0.0000000000000000
    Empirical Dispersion Energy =           0.0000000000000000
    PCM Polarization Energy =               0.0000000000000000
    EFP Energy =                            0.0000000000000000
    Total Energy =                       -383.9399134125367254

  Mulliken Charges: (a.u.)
   Center  Symbol    Alpha    Beta     Spin     Total
       1     O     4.28452  4.28452  0.00000 -0.56904
       2     C     2.61767  2.61767  0.00000  0.76467
       3     C     3.19493  3.19493  0.00000 -0.38987
       4     O     4.30206  4.30206  0.00000 -0.60412
       5     C     3.16288  3.16288  0.00000 -0.32576
       6     H     0.40498  0.40498  0.00000  0.19005
       7     H     0.40040  0.40040  0.00000  0.19920
       8     C     3.15352  3.15352  0.00000 -0.30703
       9     H     0.40972  0.40972  0.00000  0.18055
      10     H     0.41246  0.41246  0.00000  0.17508
      11     C     3.24032  3.24032  0.00000 -0.48065
      12     H     0.42041  0.42041  0.00000  0.15918
      13     H     0.41966  0.41966  0.00000  0.16068
      14     H     0.42027  0.42027  0.00000  0.15946
      15     H     0.41733  0.41733  0.00000  0.16533
      16     H     0.41979  0.41979  0.00000  0.16042
      17     C     3.09246  3.09246  0.00000 -0.18493
      18     H     0.40905  0.40905  0.00000  0.18191
      19     H     0.40884  0.40884  0.00000  0.18233
      20     H     0.40873  0.40873  0.00000  0.18253

   Total alpha = 32.00000, Total beta = 32.00000, Total charge = -0.00000
