                              Psi4 1.0.54 Driver

  ==> Input File <==

--------------------------------------------------------------------------
set {
	reference rhf
	basis cc-pvtz
}

set_num_threads( 4 )
memory 2 gb

molecule MOL {
0 1

H	 -0.366580	 2.045936	 -0.305741
C	 0.351829	 1.335402	 0.083179
N	 -0.000018	 0.000080	 -0.334836
H	 1.327156	 1.599860	 -0.305475
H	 0.380566	 1.445403	 1.171445
C	 1.161359	 -0.844466	 -0.477406
C	 -0.994793	 -0.591115	 0.527227
H	 0.868412	 -1.814639	 -0.858245
H	 1.854457	 -0.404066	 -1.182990
H	 1.692361	 -0.998252	 0.466764
H	 -1.878058	 0.034341	 0.556037
H	 -1.285281	 -1.561681	 0.145463
H	 -0.641302	 -0.723758	 1.554144

	symmetry c1
}
set optking {
	frozen_dihedral = ("
		6 3 2 1
	")
}

ee,wfn = optimize('scf', return_wfn=True)
oeprop( wfn, 'DIPOLE', 'QUADRUPOLE', 'MULLIKEN_CHARGES')
f=open( 'psi4out.xyz', 'w' )
f.write( "13  " )
f.write( str(ee) + "\n" )
f.write( MOL.save_string_xyz() )
f.close()
--------------------------------------------------------------------------

    Molecular point group: c1
  Charge       = 0
  Multiplicity = 1
  Basis Set: CC-PVTZ
  Basis Set:
  @DF-RHF Final Energy:  -173.33127816692812
    Total Energy =                       -173.3312781669280866
    Molecular point group: c1
  Basis Set: CC-PVTZ
  Basis Set:
  Basis Set: CC-PVTZ
  Basis Set:
  @DF-RHF Final Energy:  -173.32676922909630
    Total Energy =                       -173.3267692290962145
  Basis Set: CC-PVTZ
  Basis Set:
  Basis Set: CC-PVTZ
  Basis Set:
  @DF-RHF Final Energy:  -173.33173002388264
    Total Energy =                       -173.3317300238826988
  Basis Set: CC-PVTZ
  Basis Set:
  Basis Set: CC-PVTZ
  Basis Set:
  @DF-RHF Final Energy:  -173.33176185679207
    Total Energy =                       -173.3317618567920988
  Basis Set: CC-PVTZ
  Basis Set:
  Charge       = 0
  Multiplicity = 1
  Basis Set: CC-PVTZ
  Basis Set:

    Orbital Energies (a.u.)
    -----------------------

    Doubly Occupied:

       1A    -15.536637     2A    -11.234370     3A    -11.234136
       4A    -11.233927     5A     -1.224475     6A     -0.953067
       7A     -0.952452     8A     -0.805701     9A     -0.641415
      10A     -0.631534    11A     -0.629641    12A     -0.548535
      13A     -0.543052    14A     -0.515477    15A     -0.503392
      16A     -0.502289    17A     -0.343643

  @DF-RHF Final Energy:  -173.33176414110815

   => Energetics <=

    Nuclear Repulsion Energy =            139.1649647926576279
    One-Electron Energy =                -508.9259723981961656
    Two-Electron Energy =                 196.4292434644303285
    DFT Exchange-Correlation Energy =       0.0000000000000000
    Empirical Dispersion Energy =           0.0000000000000000
    PCM Polarization Energy =               0.0000000000000000
    EFP Energy =                            0.0000000000000000
    Total Energy =                       -173.3317641411082377
    Molecular point group: c1
  Basis Set: CC-PVTZ
  Basis Set:

  -Total Gradient:
     Atom            X                  Y                   Z
    ------   -----------------  -----------------  -----------------
       1        0.002670419828    -0.000196591914    -0.003715461030
       2       -0.003187659484     0.000355516817     0.003382100041
       3        0.000093415874    -0.000347965640     0.003817655874
       4        0.000063781016     0.000037224285    -0.000057135410
       5        0.000003372415    -0.000058219044    -0.000025883588
       6        0.000510506080     0.000239073775    -0.003418088836
       7       -0.000060605941    -0.000040558191     0.000096284790
       8       -0.000028454906    -0.000006535172    -0.000001115814
       9        0.000007208443     0.000015960038    -0.000020434033
      10       -0.000036163071     0.000013808252    -0.000023754779
      11       -0.000018226635     0.000017370052    -0.000004878193
      12       -0.000027106020    -0.000035326516    -0.000003079621
      13        0.000009512401     0.000006243259    -0.000026209401

  **** Optimization is complete! (in 5 steps) ****
    Final optimized geometry and variables:
    Molecular point group: c1

    Geometry (in Angstrom), charge = 0, multiplicity = 1:

    H           -0.606736552163     1.934402486295    -0.723568427515
    C            0.136007385062     1.376779522349    -0.164282826089
    N           -0.102194664563    -0.043093179953    -0.284563684201
    H            1.096552318252     1.623699970325    -0.598481130763
    H            0.142166559653     1.725932038576     0.870152412887
    C            1.095120347427    -0.841031466647    -0.202005969048
    C           -1.156827867817    -0.503392429793     0.580837754338
    H            0.853810211748    -1.881468987875    -0.381475799734
    H            1.801183396349    -0.528382594010    -0.960201263816
    H            1.592949364920    -0.777716608272     0.771091422871
    H           -2.052754146851     0.081994516377     0.412808242463
    H           -1.391247426330    -1.538746813140     0.366684308941
    H           -0.900671020456    -0.426215166483     1.642220035136

  Mulliken Charges: (a.u.)
   Center  Symbol    Alpha    Beta     Spin     Total
       1     H     0.45133  0.45133  0.00000  0.09735
       2     C     3.08776  3.08776  0.00000 -0.17553
       3     N     3.59691  3.59691  0.00000 -0.19383
       4     H     0.45602  0.45602  0.00000  0.08795
       5     H     0.47104  0.47104  0.00000  0.05792
       6     C     3.08790  3.08790  0.00000 -0.17580
       7     C     3.08933  3.08933  0.00000 -0.17865
       8     H     0.45336  0.45336  0.00000  0.09329
       9     H     0.45249  0.45249  0.00000  0.09502
      10     H     0.47448  0.47448  0.00000  0.05105
      11     H     0.45283  0.45283  0.00000  0.09434
      12     H     0.45322  0.45322  0.00000  0.09356
      13     H     0.47333  0.47333  0.00000  0.05334

   Total alpha = 17.00000, Total beta = 17.00000, Total charge =  0.00000

*** Psi4 exiting successfully. Buy a developer a beer!
