  ==> Input File <==

--------------------------------------------------------------------------
set {
	reference rhf
	basis cc-pvtz
}

set_num_threads( 4 )
memory 2 gb

molecule MOL {
0 1

H	 -0.000342	 -0.223902	 -3.352295
C	 -0.027146	 0.371068	 -2.446756
C	 0.024493	 -0.518541	 -1.216015
H	 -0.932586	 0.964979	 -2.449855
H	 0.819708	 1.049865	 -2.473332
N	 -0.042516	 0.263377	 -0.000000
H	 -0.822211	 -1.197105	 -1.225584
H	 0.921114	 -1.142847	 -1.255206
C	 0.024493	 -0.518541	 1.216015
H	 0.682568	 0.950412	 -0.000000
C	 1.032797	 -1.648236	 1.089901
H	 0.322114	 0.142159	 2.023694
H	 -0.949384	 -0.929081	 1.495735
H	 2.015771	 -1.257488	 0.858301
H	 1.093648	 -2.213706	 2.012532
H	 0.750432	 -2.336799	 0.299468

	symmetry c1
}
set optking {
	frozen_dihedral = ("
		12 9 6 3
	")
}

ee = optimize('scf')
oeprop('DIPOLE', 'QUADRUPOLE', 'MULLIKEN_CHARGES')
f=open( 'psi4out.xyz', 'w' )
f.write( "16  " )
f.write( str(ee) + "\n" )
f.write( MOL.save_string_xyz() )
f.close()
--------------------------------------------------------------------------

    Molecular point group: c1
  Charge       = 0
  Multiplicity = 1
  Basis Set: CC-PVTZ
  Basis Set:
  @DF-RHF Final Energy:  -212.38449848419617
    Total Energy =                       -212.3844984841963424
    Molecular point group: c1
  Basis Set: CC-PVTZ
  Basis Set:
  Basis Set: CC-PVTZ
  Basis Set:
  @DF-RHF Final Energy:  -212.38565947278730
    Total Energy =                       -212.3856594727873244
  Basis Set: CC-PVTZ
  Basis Set:
  Basis Set: CC-PVTZ
  Basis Set:
  @DF-RHF Final Energy:  -212.38901876854197
    Total Energy =                       -212.3890187685420301
  Basis Set: CC-PVTZ
  Basis Set:
  Basis Set: CC-PVTZ
  Basis Set:
  @DF-RHF Final Energy:  -212.38950348336022
    Total Energy =                       -212.3895034833602153
  Basis Set: CC-PVTZ
  Basis Set:
  Basis Set: CC-PVTZ
  Basis Set:
  @DF-RHF Final Energy:  -212.38956908234539
    Total Energy =                       -212.3895690823454174
  Basis Set: CC-PVTZ
  Basis Set:
  Basis Set: CC-PVTZ
  Basis Set:
  @DF-RHF Final Energy:  -212.38958041416575
    Total Energy =                       -212.3895804141658346
  Basis Set: CC-PVTZ
  Basis Set:
  Charge       = 0
  Multiplicity = 1
  Basis Set: CC-PVTZ
  Basis Set:

    Orbital Energies (a.u.)
    -----------------------

    Doubly Occupied:

       1A    -15.527546     2A    -11.239939     3A    -11.238098
       4A    -11.206205     5A    -11.204969     6A     -1.203097
       7A     -1.024527     8A     -0.967717     9A     -0.852072
      10A     -0.801148    11A     -0.662395    12A     -0.627662
      13A     -0.607393    14A     -0.580877    15A     -0.544077
      16A     -0.534273    17A     -0.511518    18A     -0.490668
      19A     -0.480558    20A     -0.473037    21A     -0.357830

  @DF-RHF Final Energy:  -212.38958128886586

   => Energetics <=

    Nuclear Repulsion Energy =            191.7234057926197295
    One-Electron Energy =                -665.9547613380264011
    Two-Electron Energy =                 261.8417742565408162
    DFT Exchange-Correlation Energy =       0.0000000000000000
    Empirical Dispersion Energy =           0.0000000000000000
    PCM Polarization Energy =               0.0000000000000000
    EFP Energy =                            0.0000000000000000
    Total Energy =                       -212.3895812888658838
    Molecular point group: c1
  Basis Set: CC-PVTZ
  Basis Set:

  -Total Gradient:
     Atom            X                  Y                   Z
    ------   -----------------  -----------------  -----------------
       1        0.000001395468    -0.000001123790     0.000008205792
       2        0.000003276595    -0.000004817995    -0.000003179486
       3        0.004029158984     0.000308701329     0.000079031668
       4       -0.000001764576     0.000002129430    -0.000000494374
       5        0.000002648607     0.000003731713    -0.000001223511
       6       -0.004901517324    -0.000730871650    -0.000220981718
       7       -0.000003616923    -0.000006584117    -0.000010937472
       8        0.000010690318    -0.000017850000    -0.000005534452
       9       -0.003946250171     0.001613174614     0.001047175780
      10       -0.000024002665    -0.000016541668     0.000040063547
      11        0.000008475452    -0.000042852903     0.000002872469
      12        0.004815162987    -0.001124834497    -0.000874621932
      13        0.000002608475     0.000030223555    -0.000047120070
      14       -0.000005573351     0.000004310807     0.000001135776
      15        0.000000886811    -0.000007345733    -0.000000101423
      16        0.000008421313    -0.000009449095    -0.000014290592

  **** Optimization is complete! (in 7 steps) ****
    Final optimized geometry and variables:
    Molecular point group: c1

    Geometry (in Angstrom), charge = 0, multiplicity = 1:

    H           -0.304490509261     0.308069218674    -3.125369007167
    C           -0.333579673385     0.857463990997    -2.191216871305
    C           -0.155208853168    -0.080119285749    -1.008073605047
    H           -1.279058671327     1.380641273688    -2.124738334595
    H            0.458252631373     1.599779053748    -2.220878424734
    N           -0.212203563273     0.656028295141     0.238297078613
    H           -0.957723476097    -0.811688650449    -1.007178032527
    H            0.772474387038    -0.638096715876    -1.131426027588
    C           -0.166860800942    -0.112813221053     1.472283207990
    H            0.513238908922     1.340723051103     0.246339562260
    C            0.794714867418    -1.302192194514     1.514784147607
    H            0.137927057251     0.570203785998     2.256449342549
    H           -1.168201717977    -0.457777106771     1.709294371980
    H            1.811473384255    -0.994888291468     1.291326383446
    H            0.790102655555    -1.738830656799     2.507619116074
    H            0.518606426898    -2.080705044384     0.814482313693

  Mulliken Charges: (a.u.)
   Center  Symbol    Alpha    Beta     Spin     Total
       1     H     0.45506  0.45506  0.00000  0.08988
       2     C     3.14186  3.14186  0.00000 -0.28373
       3     C     3.02470  3.02470  0.00000 -0.04939
       4     H     0.44939  0.44939  0.00000  0.10121
       5     H     0.45969  0.45969  0.00000  0.08062
       6     N     3.63899  3.63899  0.00000 -0.27799
       7     H     0.45826  0.45826  0.00000  0.08349
       8     H     0.46895  0.46895  0.00000  0.06209
       9     C     3.03965  3.03965  0.00000 -0.07931
      10     H     0.44406  0.44406  0.00000  0.11188
      11     C     3.15416  3.15416  0.00000 -0.30832
      12     H     0.45486  0.45486  0.00000  0.09027
      13     H     0.45344  0.45344  0.00000  0.09311
      14     H     0.45679  0.45679  0.00000  0.08643
      15     H     0.44798  0.44798  0.00000  0.10403
      16     H     0.45214  0.45214  0.00000  0.09572

   Total alpha = 21.00000, Total beta = 21.00000, Total charge = -0.00000
