  ==> Input File <==

--------------------------------------------------------------------------
set {
	reference rhf
	basis 6-31G*
}

set_num_threads( 1 )
memory 2 gb

molecule MOL {
0 1

O	 0.749854	 1.307668	 -0.000040
C	 0.576249	 0.131685	 -0.000108
C	 -0.766779	 -0.556801	 -0.000461
O	 1.568443	 -0.749345	 -0.000005
C	 -1.945214	 0.412366	 0.000161
H	 -0.796911	 -1.211249	 -0.867467
H	 -0.796854	 -1.212390	 0.865687
C	 -3.287791	 -0.317055	 0.000105
H	 -1.876087	 1.060580	 -0.866812
H	 -1.875822	 1.059691	 0.867761
H	 -3.394745	 -0.949193	 -0.877058
H	 -4.111778	 0.388953	 0.000015
H	 -3.394954	 -0.949187	 0.877259
C	 1.323348	 -1.993207	 0.630822
H	 1.088343	 -1.849554	 1.675656
H	 2.234676	 -2.561185	 0.527140
H	 0.504200	 -2.508303	 0.150009

	symmetry c1
}
set optking {
	frozen_dihedral = ("
		1 2 3 6,
		9 5 3 6
	")
}

ee = energy('scf')
oeprop('DIPOLE', 'QUADRUPOLE', 'MULLIKEN_CHARGES')
f=open( 'psi4out.xyz', 'w' )
f.write( "17  " )
f.write( str(ee) + "\n" )
f.write( MOL.save_string_xyz() )
f.close()
--------------------------------------------------------------------------

    Molecular point group: c1

    Geometry (in Angstrom), charge = 0, multiplicity = 1:

       Center              X                  Y                   Z               Mass
    ------------   -----------------  -----------------  -----------------  -----------------
           O          0.991245822935     1.579505966474    -0.097387811714    15.994914619560
           C          0.817640822935     0.403522966474    -0.097455811714    12.000000000000
           C         -0.525387177065    -0.284963033526    -0.097808811714    12.000000000000
           O          1.809834822935    -0.477507033526    -0.097352811714    15.994914619560
           C         -1.703822177065     0.684203966474    -0.097186811714    12.000000000000
           H         -0.555519177065    -0.939411033526    -0.964814811714     1.007825032070
           H         -0.555462177065    -0.940552033526     0.768339188286     1.007825032070
           C         -3.046399177065    -0.045217033526    -0.097242811714    12.000000000000
           H         -1.634695177065     1.332417966474    -0.964159811714     1.007825032070
           H         -1.634430177065     1.331528966474     0.770413188286     1.007825032070
           H         -3.153353177065    -0.677355033526    -0.974405811714     1.007825032070
           H         -3.870386177065     0.660790966474    -0.097332811714     1.007825032070
           H         -3.153562177065    -0.677349033526     0.779911188286     1.007825032070
           C          1.564739822935    -1.721369033526     0.533474188286    12.000000000000
           H          1.329734822935    -1.577716033526     1.578308188286     1.007825032070
           H          2.476067822935    -2.289347033526     0.429792188286     1.007825032070
           H          0.745591822935    -2.236465033526     0.052661188286     1.007825032070

  Charge       = 0
  Multiplicity = 1
  Basis Set: 6-31G*
  Basis Set:

    Orbital Energies (a.u.)
    -----------------------

    Doubly Occupied:

       1A    -20.603334     2A    -20.547410     3A    -11.375122
       4A    -11.297748     5A    -11.242046     6A    -11.225745
       7A    -11.218711     8A     -1.467662     9A     -1.369921
      10A     -1.083730    11A     -0.989788    12A     -0.975557
      13A     -0.843165    14A     -0.764747    15A     -0.705534
      16A     -0.692523    17A     -0.678940    18A     -0.640420
      19A     -0.608452    20A     -0.579390    21A     -0.570450
      22A     -0.554523    23A     -0.527864    24A     -0.497906
      25A     -0.490663    26A     -0.483678    27A     -0.453904
      28A     -0.431306

  @DF-RHF Final Energy:  -344.88106666170864

   => Energetics <=

    Nuclear Repulsion Energy =            316.9798601058360532
    One-Electron Energy =               -1097.8814300248836844
    Two-Electron Energy =                 436.0205032573388735
    DFT Exchange-Correlation Energy =       0.0000000000000000
    Empirical Dispersion Energy =           0.0000000000000000
    PCM Polarization Energy =               0.0000000000000000
    EFP Energy =                            0.0000000000000000
    Total Energy =                       -344.8810666617088145

  Mulliken Charges: (a.u.)
   Center  Symbol    Alpha    Beta     Spin     Total
       1     O     4.26902  4.26902  0.00000 -0.53803
       2     C     2.59362  2.59362  0.00000  0.81276
       3     C     3.24176  3.24176  0.00000 -0.48352
       4     O     4.30077  4.30077  0.00000 -0.60155
       5     C     3.14830  3.14830  0.00000 -0.29661
       6     H     0.39907  0.39907  0.00000  0.20187
       7     H     0.40294  0.40294  0.00000  0.19412
       8     C     3.24283  3.24283  0.00000 -0.48566
       9     H     0.40858  0.40858  0.00000  0.18283
      10     H     0.40995  0.40995  0.00000  0.18010
      11     H     0.42186  0.42186  0.00000  0.15628
      12     H     0.41382  0.41382  0.00000  0.17235
      13     H     0.42290  0.42290  0.00000  0.15420
      14     C     3.10470  3.10470  0.00000 -0.20941
      15     H     0.41106  0.41106  0.00000  0.17789
      16     H     0.39680  0.39680  0.00000  0.20640
      17     H     0.41201  0.41201  0.00000  0.17598

   Total alpha = 28.00000, Total beta = 28.00000, Total charge =  0.00000
