  ==> Input File <==

--------------------------------------------------------------------------
set {
	reference rhf
	basis 6-31G*
}

set_num_threads( 1 )
memory 2 gb

molecule MOL {
0 1

O	 2.365542	 0.349728	 0.962147
C	 1.705091	 0.115954	 0.001797
C	 0.381791	 -0.609817	 0.001258
O	 2.055550	 0.477372	 -1.226084
C	 -0.823008	 0.326187	 0.001381
H	 0.371250	 -1.265087	 -0.865474
H	 0.370908	 -1.265746	 0.867490
C	 -2.149452	 -0.435131	 -0.000098
H	 -0.770201	 0.977095	 -0.865636
H	 -0.771220	 0.975655	 0.869608
C	 -3.368779	 0.488503	 -0.000883
H	 -2.193746	 -1.087250	 -0.871175
H	 -2.195311	 -1.087803	 0.870418
C	 -4.693822	 -0.272754	 -0.001129
H	 -3.325798	 1.139422	 -0.871284
H	 -3.326423	 1.139959	 0.869145
H	 -4.781274	 -0.907928	 -0.878124
H	 -5.538651	 0.408946	 -0.001420
H	 -4.781694	 -0.907783	 0.875984
C	 3.281689	 1.171533	 -1.366366
H	 3.261191	 2.095915	 -0.807235
H	 3.386997	 1.374437	 -2.420697
H	 4.104452	 0.563952	 -1.017924

	symmetry c1
}
set optking {
	frozen_dihedral = ("
		15 11 8 12,
		9 5 8 12,
		9 5 3 6,
		1 2 4 20
	")
}

ee = energy('scf')
oeprop('DIPOLE', 'QUADRUPOLE', 'MULLIKEN_CHARGES')
f=open( 'psi4out.xyz', 'w' )
f.write( "23  " )
f.write( str(ee) + "\n" )
f.write( MOL.save_string_xyz() )
f.close()
--------------------------------------------------------------------------

    Molecular point group: c1

    Geometry (in Angstrom), charge = 0, multiplicity = 1:

       Center              X                  Y                   Z               Mass
    ------------   -----------------  -----------------  -----------------  -----------------
           O          2.470070511055     0.158998948330     1.153306108222    15.994914619560
           C          1.809619511055    -0.074775051670     0.192956108222    12.000000000000
           C          0.486319511055    -0.800546051670     0.192417108222    12.000000000000
           O          2.160078511055     0.286642948330    -1.034924891778    15.994914619560
           C         -0.718479488945     0.135457948330     0.192540108222    12.000000000000
           H          0.475778511055    -1.455816051670    -0.674314891778     1.007825032070
           H          0.475436511055    -1.456475051670     1.058649108222     1.007825032070
           C         -2.044923488945    -0.625860051670     0.191061108222    12.000000000000
           H         -0.665672488945     0.786365948330    -0.674476891778     1.007825032070
           H         -0.666691488945     0.784925948330     1.060767108222     1.007825032070
           C         -3.264250488945     0.297773948330     0.190276108222    12.000000000000
           H         -2.089217488945    -1.277979051670    -0.680015891778     1.007825032070
           H         -2.090782488945    -1.278532051670     1.061577108222     1.007825032070
           C         -4.589293488945    -0.463483051670     0.190030108222    12.000000000000
           H         -3.221269488945     0.948692948330    -0.680124891778     1.007825032070
           H         -3.221894488945     0.949229948330     1.060304108222     1.007825032070
           H         -4.676745488945    -1.098657051670    -0.686964891778     1.007825032070
           H         -5.434122488945     0.218216948330     0.189739108222     1.007825032070
           H         -4.677165488945    -1.098512051670     1.067143108222     1.007825032070
           C          3.386217511055     0.980803948330    -1.175206891778    12.000000000000
           H          3.365719511055     1.905185948330    -0.616075891778     1.007825032070
           H          3.491525511055     1.183707948330    -2.229537891778     1.007825032070
           H          4.208980511055     0.373222948330    -0.826764891778     1.007825032070

  Charge       = 0
  Multiplicity = 1
  Basis Set: 6-31G*
  Basis Set:

    Orbital Energies (a.u.)
    -----------------------

    Doubly Occupied:

       1A    -20.603928     2A    -20.543516     3A    -11.370741
       4A    -11.280330     5A    -11.233356     6A    -11.229569
       7A    -11.222496     8A    -11.220252     9A    -11.212354
      10A     -1.468545    11A     -1.361223    12A     -1.097956
      13A     -1.045904    14A     -0.985442    15A     -0.934260
      16A     -0.848233    17A     -0.799499    18A     -0.772763
      19A     -0.693358    20A     -0.679613    21A     -0.672728
      22A     -0.653114    23A     -0.606232    24A     -0.594985
      25A     -0.581096    26A     -0.572011    27A     -0.539330
      28A     -0.535461    29A     -0.523802    30A     -0.507787
      31A     -0.490743    32A     -0.477387    33A     -0.470606
      34A     -0.468174    35A     -0.453506    36A     -0.427679

  @DF-RHF Final Energy:  -422.97438090919013

   => Energetics <=

    Nuclear Repulsion Energy =            453.9712044285143975
    One-Electron Energy =               -1475.5352919674355689
    Two-Electron Energy =                 598.5897066297271749
    DFT Exchange-Correlation Energy =       0.0000000000000000
    Empirical Dispersion Energy =           0.0000000000000000
    PCM Polarization Energy =               0.0000000000000000
    EFP Energy =                            0.0000000000000000
    Total Energy =                       -422.9743809091939966

  Mulliken Charges: (a.u.)
   Center  Symbol    Alpha    Beta     Spin     Total
       1     O     4.28453  4.28453  0.00000 -0.56906
       2     C     2.61817  2.61817  0.00000  0.76366
       3     C     3.19431  3.19431  0.00000 -0.38861
       4     O     4.30220  4.30220  0.00000 -0.60440
       5     C     3.16390  3.16390  0.00000 -0.32779
       6     H     0.40473  0.40473  0.00000  0.19055
       7     H     0.40107  0.40107  0.00000  0.19786
       8     C     3.15263  3.15263  0.00000 -0.30527
       9     H     0.41123  0.41123  0.00000  0.17753
      10     H     0.41043  0.41043  0.00000  0.17913
      11     C     3.15258  3.15258  0.00000 -0.30517
      12     H     0.42141  0.42141  0.00000  0.15718
      13     H     0.42060  0.42060  0.00000  0.15879
      14     C     3.23992  3.23992  0.00000 -0.47983
      15     H     0.42176  0.42176  0.00000  0.15649
      16     H     0.42108  0.42108  0.00000  0.15785
      17     H     0.42126  0.42126  0.00000  0.15749
      18     H     0.41802  0.41802  0.00000  0.16395
      19     H     0.42086  0.42086  0.00000  0.15827
      20     C     3.09258  3.09258  0.00000 -0.18516
      21     H     0.40911  0.40911  0.00000  0.18178
      22     H     0.40885  0.40885  0.00000  0.18230
      23     H     0.40877  0.40877  0.00000  0.18245

   Total alpha = 36.00000, Total beta = 36.00000, Total charge =  0.00000
