  ==> Input File <==

--------------------------------------------------------------------------
set {
	reference rhf
	basis 6-31G*
}

set_num_threads( 4 )
memory 2 gb

molecule MOL {
0 1

O	 1.846825	 1.296220	 0.000415
C	 1.705091	 0.115954	 0.001797
C	 0.381791	 -0.609817	 0.001258
O	 2.721346	 -0.737485	 -0.000216
C	 -0.823008	 0.326187	 0.001381
H	 0.371250	 -1.265087	 -0.865474
H	 0.370908	 -1.265746	 0.867490
C	 -1.382381	 0.552038	 1.406783
H	 -1.595108	 -0.084732	 -0.641422
H	 -0.537799	 1.276281	 -0.439397
C	 -2.592122	 1.488009	 1.425358
H	 -1.663192	 -0.404691	 1.844745
H	 -0.602758	 0.961934	 2.047139
C	 -3.149834	 1.714254	 2.830001
H	 -3.372843	 1.078650	 0.788145
H	 -2.312958	 2.444448	 0.988977
H	 -3.470304	 0.778972	 3.280291
H	 -4.005762	 2.381671	 2.810156
H	 -2.401779	 2.155237	 3.482885
C	 4.024888	 -0.184556	 -0.001949
H	 4.179030	 0.422472	 -0.882452
H	 4.701782	 -1.024608	 -0.003642
H	 4.181981	 0.421185	 0.878906

	symmetry c1
}
set optking {
	frozen_dihedral = ("
		9 5 3 6
	")
}

ee = optimize('scf')
oeprop('DIPOLE', 'QUADRUPOLE', 'MULLIKEN_CHARGES')
f=open( 'psi4out.xyz', 'w' )
f.write( "23  " )
f.write( str(ee) + "\n" )
f.write( MOL.save_string_xyz() )
f.close()
--------------------------------------------------------------------------

    Molecular point group: c1
  Charge       = 0
  Multiplicity = 1
  Basis Set: 6-31G*
  Basis Set:
  @DF-RHF Final Energy:  -422.97339907121625
    Total Energy =                       -422.9733990712156810
    Molecular point group: c1
  Basis Set: 6-31G*
  Basis Set:
  Basis Set: 6-31G*
  Basis Set:
  @DF-RHF Final Energy:  -422.97359975684429
    Total Energy =                       -422.9735997568443508
  Basis Set: 6-31G*
  Basis Set:
  Basis Set: 6-31G*
  Basis Set:
  @DF-RHF Final Energy:  -422.97354438240649
    Total Energy =                       -422.9735443824067715
  Basis Set: 6-31G*
  Basis Set:
  Basis Set: 6-31G*
  Basis Set:
  @DF-RHF Final Energy:  -422.97374770082689
    Total Energy =                       -422.9737477008274027
  Basis Set: 6-31G*
  Basis Set:
  Basis Set: 6-31G*
  Basis Set:
  @DF-RHF Final Energy:  -422.97375363107278
    Total Energy =                       -422.9737536310730093
  Basis Set: 6-31G*
  Basis Set:
  Basis Set: 6-31G*
  Basis Set:
  @DF-RHF Final Energy:  -422.97375689875099
    Total Energy =                       -422.9737568987507075
  Basis Set: 6-31G*
  Basis Set:
  Basis Set: 6-31G*
  Basis Set:
  @DF-RHF Final Energy:  -422.97375897036511
    Total Energy =                       -422.9737589703661342
  Basis Set: 6-31G*
  Basis Set:
  Charge       = 0
  Multiplicity = 1
  Basis Set: 6-31G*
  Basis Set:

    Orbital Energies (a.u.)
    -----------------------

    Doubly Occupied:

       1A    -20.604415     2A    -20.546396     3A    -11.373299
       4A    -11.281375     5A    -11.235244     6A    -11.218141
       7A    -11.214048     8A    -11.213338     9A    -11.206946
      10A     -1.470240    11A     -1.363541    12A     -1.090355
      13A     -1.041605    14A     -0.986263    15A     -0.930589
      16A     -0.843719    17A     -0.793826    18A     -0.766884
      19A     -0.703378    20A     -0.680699    21A     -0.672175
      22A     -0.639448    23A     -0.612120    24A     -0.598791
      25A     -0.569382    26A     -0.556451    27A     -0.553552
      28A     -0.531306    29A     -0.523014    30A     -0.498171
      31A     -0.489227    32A     -0.465998    33A     -0.464100
      34A     -0.455921    35A     -0.451586    36A     -0.438999

  @DF-RHF Final Energy:  -422.97375958342423

   => Energetics <=

    Nuclear Repulsion Energy =            459.0425636645485383
    One-Electron Energy =               -1485.8635664010218989
    Two-Electron Energy =                 603.8472431530492486
    DFT Exchange-Correlation Energy =       0.0000000000000000
    Empirical Dispersion Energy =           0.0000000000000000
    PCM Polarization Energy =               0.0000000000000000
    EFP Energy =                            0.0000000000000000
    Total Energy =                       -422.9737595834242256
    Molecular point group: c1
  Basis Set: 6-31G*
  Basis Set:

  -Total Gradient:
     Atom            X                  Y                   Z
    ------   -----------------  -----------------  -----------------
       1       -0.000014762767     0.000038390974     0.000018560999
       2        0.000030677808    -0.000015294581    -0.000027458675
       3        0.002766822370     0.003787452655    -0.003225211421
       4        0.000002213506    -0.000026309986    -0.000000094115
       5       -0.002178642250    -0.003037512763     0.004167871941
       6       -0.001900685489    -0.002667921436     0.001998072725
       7       -0.000009713114     0.000023634885    -0.000013352579
       8       -0.000034916658     0.000005260205    -0.000003798697
       9        0.001349989117     0.001918165813    -0.002919536443
      10        0.000000584915    -0.000015715291    -0.000001481801
      11       -0.000031320707    -0.000014653627     0.000008681679
      12        0.000001287849    -0.000011152269     0.000003175182
      13        0.000003562686     0.000002741056    -0.000002269665
      14        0.000024964512     0.000019515922    -0.000001651230
      15       -0.000002201820    -0.000007155776    -0.000010362259
      16       -0.000005276600     0.000000567598     0.000006970937
      17       -0.000001974015     0.000000121924    -0.000010741165
      18        0.000007590950     0.000003520215    -0.000005367076
      19        0.000001016237    -0.000001837728     0.000013708009
      20       -0.000006437465     0.000001798213     0.000005240058
      21       -0.000001443420    -0.000000293870     0.000001441830
      22       -0.000001562576    -0.000002913858    -0.000000025385
      23        0.000000226922    -0.000000408275    -0.000002372845

  **** Optimization is complete! (in 8 steps) ****
    Final optimized geometry and variables:
    Molecular point group: c1

    Geometry (in Angstrom), charge = 0, multiplicity = 1:

    O            1.496407603352     0.849752505900    -0.517264255564
    C            1.360634787635    -0.327297210486    -0.616580709833
    C            0.043669170414    -1.063796371057    -0.662533833038
    O            2.381501440665    -1.171298162635    -0.689062707633
    C           -1.189080995151    -0.152593590181    -0.639492846905
    H            0.048444408999    -1.719110256250    -1.527339611215
    H            0.040926453974    -1.740133460531     0.189173621525
    C           -1.733574744952     0.101157639124     0.766082663851
    H           -1.959209786716    -0.581319599276    -1.274822404604
    H           -0.927016485506     0.796333109941    -1.094061420726
    C           -2.935064317958     1.046625664138     0.781657546101
    H           -2.015396978996    -0.846710687874     1.222830510827
    H           -0.939955987587     0.518404826547     1.382313175344
    C           -3.478245197367     1.297037188878     2.187957402332
    H           -3.725677195339     0.635236000308     0.157198861670
    H           -2.650458976231     1.994300138085     0.330597550016
    H           -3.804302445726     0.371127764629     2.653644424714
    H           -4.327424002189     1.973044909858     2.166856624746
    H           -2.719542553369     1.738891810285     2.827554458642
    C            3.682174934810    -0.613322607881    -0.641103865026
    H            3.834063931146     0.067788818930    -1.465970943050
    H            4.363413224048    -1.446699400702    -0.713892526684
    H            3.834811848514    -0.084903909133     0.288933901734

  Mulliken Charges: (a.u.)
   Center  Symbol    Alpha    Beta     Spin     Total
       1     O     4.28623  4.28623  0.00000 -0.57247
       2     C     2.60813  2.60813  0.00000  0.78374
       3     C     3.21120  3.21120  0.00000 -0.42240
       4     O     4.30601  4.30601  0.00000 -0.61203
       5     C     3.15900  3.15900  0.00000 -0.31799
       6     H     0.39704  0.39704  0.00000  0.20593
       7     H     0.39937  0.39937  0.00000  0.20127
       8     C     3.15383  3.15383  0.00000 -0.30765
       9     H     0.41918  0.41918  0.00000  0.16164
      10     H     0.40180  0.40180  0.00000  0.19640
      11     C     3.15283  3.15283  0.00000 -0.30566
      12     H     0.42575  0.42575  0.00000  0.14850
      13     H     0.41598  0.41598  0.00000  0.16804
      14     C     3.23956  3.23956  0.00000 -0.47912
      15     H     0.42398  0.42398  0.00000  0.15204
      16     H     0.41915  0.41915  0.00000  0.16170
      17     H     0.42267  0.42267  0.00000  0.15465
      18     H     0.41926  0.41926  0.00000  0.16148
      19     H     0.42047  0.42047  0.00000  0.15906
      20     C     3.09226  3.09226  0.00000 -0.18451
      21     H     0.40886  0.40886  0.00000  0.18228
      22     H     0.40835  0.40835  0.00000  0.18329
      23     H     0.40910  0.40910  0.00000  0.18180

   Total alpha = 36.00000, Total beta = 36.00000, Total charge =  0.00000
