  ==> Input File <==

--------------------------------------------------------------------------
set {
	reference rhf
	basis 6-31G*
}

set_num_threads( 4 )
memory 2 gb

molecule MOL {
0 1

H	 -3.135461	 -1.215070	 0.001379
O	 -2.310168	 -0.871793	 -0.309793
C	 -2.026376	 0.340750	 0.341611
C	 -0.673256	 0.843270	 -0.132153
H	 -2.792215	 1.080697	 0.115987
H	 -2.013526	 0.200402	 1.421792
C	 0.486613	 -0.083066	 0.235839
H	 -0.715586	 0.970948	 -1.210718
H	 -0.508072	 1.829858	 0.297090
C	 1.840406	 0.433480	 -0.254303
H	 0.300215	 -1.068318	 -0.178947
H	 0.519509	 -0.203625	 1.318070
C	 2.127945	 0.062875	 -1.708829
H	 1.872920	 1.515520	 -0.145450
H	 2.631337	 0.039424	 0.380986
H	 1.372562	 0.472462	 -2.373303
H	 3.092779	 0.443919	 -2.029524
H	 2.136435	 -1.015102	 -1.844490

	symmetry c1
}
set optking {
	frozen_dihedral = ("
		14 10 7 11
	")
}

ee = optimize('scf')
oeprop('DIPOLE', 'QUADRUPOLE', 'MULLIKEN_CHARGES')
f=open( 'psi4out.xyz', 'w' )
f.write( "18  " )
f.write( str(ee) + "\n" )
f.write( MOL.save_string_xyz() )
f.close()
--------------------------------------------------------------------------

    Molecular point group: c1
  Charge       = 0
  Multiplicity = 1
  Basis Set: 6-31G*
  Basis Set:
  @DF-RHF Final Energy:  -271.17719984661812
    Total Energy =                       -271.1771998466180662
    Molecular point group: c1
  Basis Set: 6-31G*
  Basis Set:
  Basis Set: 6-31G*
  Basis Set:
  @DF-RHF Final Energy:  -271.17733743032920
    Total Energy =                       -271.1773374303292030
  Basis Set: 6-31G*
  Basis Set:
  Basis Set: 6-31G*
  Basis Set:
  @DF-RHF Final Energy:  -271.17738029662678
    Total Energy =                       -271.1773802966268931
  Basis Set: 6-31G*
  Basis Set:
  Basis Set: 6-31G*
  Basis Set:
  @DF-RHF Final Energy:  -271.17738139746348
    Total Energy =                       -271.1773813974634209
  Basis Set: 6-31G*
  Basis Set:
  Basis Set: 6-31G*
  Basis Set:
  @DF-RHF Final Energy:  -271.17738253950517
    Total Energy =                       -271.1773825395052313
  Basis Set: 6-31G*
  Basis Set:
  Charge       = 0
  Multiplicity = 1
  Basis Set: 6-31G*
  Basis Set:

    Orbital Energies (a.u.)
    -----------------------

    Doubly Occupied:

       1A    -20.553117     2A    -11.267973     3A    -11.211796
       4A    -11.210717     5A    -11.206445     6A    -11.203024
       7A     -1.359791     8A     -1.073940     9A     -1.005974
      10A     -0.912733    11A     -0.825078    12A     -0.776138
      13A     -0.704358    14A     -0.640467    15A     -0.614343
      16A     -0.600450    17A     -0.565832    18A     -0.555527
      19A     -0.516723    20A     -0.499635    21A     -0.496257
      22A     -0.463542    23A     -0.454398    24A     -0.448269
      25A     -0.427843

  @DF-RHF Final Energy:  -271.17738258737927

   => Energetics <=

    Nuclear Repulsion Energy =            251.8186959485857415
    One-Electron Energy =                -866.8034224242419441
    Two-Electron Energy =                 343.8073438882769324
    DFT Exchange-Correlation Energy =       0.0000000000000000
    Empirical Dispersion Energy =           0.0000000000000000
    PCM Polarization Energy =               0.0000000000000000
    EFP Energy =                            0.0000000000000000
    Total Energy =                       -271.1773825873792703
    Molecular point group: c1
  Basis Set: 6-31G*
  Basis Set:

  -Total Gradient:
     Atom            X                  Y                   Z
    ------   -----------------  -----------------  -----------------
       1        0.000000096920    -0.000000078425    -0.000000631100
       2        0.000000907182     0.000000149623    -0.000002065977
       3       -0.000004626579    -0.000003246297     0.000001510005
       4        0.000002997831    -0.000005009581     0.000006636832
       5       -0.000003714725     0.000000789727     0.000000119897
       6        0.000002228595     0.000003933194    -0.000001439859
       7        0.001211284996    -0.001266328317     0.001962430506
       8        0.000003787032    -0.000001328885    -0.000001361976
       9        0.000000230278    -0.000002891364     0.000003088778
      10        0.000925963755    -0.000046302984     0.002432308063
      11       -0.001172755040     0.001076646929    -0.002038652098
      12       -0.000000584505    -0.000005689780     0.000002639464
      13        0.000014924252    -0.000000257253     0.000004583905
      14       -0.000986722622     0.000247639650    -0.002369192730
      15        0.000006568579     0.000003822088    -0.000000634642
      16       -0.000001981277     0.000005075163     0.000006652312
      17        0.000005597870    -0.000006946185    -0.000006142420
      18       -0.000004202541     0.000000022702     0.000000151042

  **** Optimization is complete! (in 6 steps) ****
    Final optimized geometry and variables:
    Molecular point group: c1

    Geometry (in Angstrom), charge = 0, multiplicity = 1:

    H           -2.979326533033    -1.317412308675     0.278635727749
    O           -2.154881088699    -0.963660996144    -0.022940995196
    C           -1.880680086805     0.238589160007     0.651448997359
    C           -0.527764646307     0.756695465110     0.193611442806
    H           -2.649405645524     0.978289457473     0.434974401636
    H           -1.872658765927     0.079160491867     1.729078256935
    C            0.636338013021    -0.164593120784     0.570868557241
    H           -0.566717433450     0.895225511029    -0.883025400193
    H           -0.373824932465     1.739987328037     0.634163865356
    C            1.995546927506     0.334355664293     0.056969351347
    H            0.434171539227    -1.151866577085     0.168947051230
    H            0.667157795153    -0.260100836033     1.654101896269
    C            2.269284978885    -0.039902652640    -1.401861088605
    H            2.044853269012     1.417195428335     0.152428996950
    H            2.790312058159    -0.070742298574     0.677226302883
    H            1.509924011337     0.358171460096    -2.067843255300
    H            3.229086678591     0.347520768528    -1.730592690380
    H            2.285502846431    -1.118332100893    -1.529833398241

  Mulliken Charges: (a.u.)
   Center  Symbol    Alpha    Beta     Spin     Total
       1     H     0.28055  0.28055  0.00000  0.43890
       2     O     4.36972  4.36972  0.00000 -0.73944
       3     C     2.99725  2.99725  0.00000  0.00549
       4     C     3.16135  3.16135  0.00000 -0.32271
       5     H     0.42927  0.42927  0.00000  0.14146
       6     H     0.43273  0.43273  0.00000  0.13454
       7     C     3.15670  3.15670  0.00000 -0.31340
       8     H     0.41425  0.41425  0.00000  0.17150
       9     H     0.42410  0.42410  0.00000  0.15179
      10     C     3.15415  3.15415  0.00000 -0.30830
      11     H     0.40705  0.40705  0.00000  0.18590
      12     H     0.42518  0.42518  0.00000  0.14963
      13     C     3.23959  3.23959  0.00000 -0.47919
      14     H     0.42479  0.42479  0.00000  0.15043
      15     H     0.42095  0.42095  0.00000  0.15810
      16     H     0.42048  0.42048  0.00000  0.15903
      17     H     0.42127  0.42127  0.00000  0.15746
      18     H     0.42061  0.42061  0.00000  0.15879

   Total alpha = 25.00000, Total beta = 25.00000, Total charge =  0.00000
