                              Psi4 1.0.54 Driver

  ==> Input File <==

--------------------------------------------------------------------------
set {
	reference rhf
	basis cc-pvtz
}

set_num_threads( 4 )
memory 2 gb

molecule MOL {
0 1

H	 1.848773	 -1.108567	 0.954563
C	 1.948180	 -0.217873	 0.320185
C	 0.692262	 0.592428	 0.156232
O	 2.988631	 0.039731	 -0.178550
C	 -0.554654	 -0.292621	 0.086567
H	 0.791858	 1.203694	 -0.731051
H	 0.617379	 1.254358	 1.016534
C	 -1.846385	 0.513195	 -0.016346
H	 -0.473986	 -0.956115	 -0.769708
H	 -0.597929	 -0.929215	 0.966651
C	 -3.089953	 -0.365049	 -0.098564
H	 -1.798267	 1.154820	 -0.891143
H	 -1.925398	 1.173265	 0.842889
H	 -3.055079	 -1.012299	 -0.968245
H	 -3.988403	 0.236438	 -0.170014
H	 -3.183055	 -0.995885	 0.779079

	symmetry c1
}
set optking {
	frozen_dihedral = ("
		4 2 3 6
	")
}

ee,wfn = optimize('scf', return_wfn=True)
oeprop( wfn, 'DIPOLE', 'QUADRUPOLE', 'MULLIKEN_CHARGES')
f=open( 'psi4out.xyz', 'w' )
f.write( "16  " )
f.write( str(ee) + "\n" )
f.write( MOL.save_string_xyz() )
f.close()
--------------------------------------------------------------------------

    Molecular point group: c1
  Charge       = 0
  Multiplicity = 1
  Basis Set: CC-PVTZ
  Basis Set:
  @DF-RHF Final Energy:  -270.11872529536367
    Total Energy =                       -270.1187252953637312
    Molecular point group: c1
  Basis Set: CC-PVTZ
  Basis Set:
  Basis Set: CC-PVTZ
  Basis Set:
  @DF-RHF Final Energy:  -270.11782367407545
    Total Energy =                       -270.1178236740755665
  Basis Set: CC-PVTZ
  Basis Set:
  Basis Set: CC-PVTZ
  Basis Set:
  @DF-RHF Final Energy:  -270.11877292803979
    Total Energy =                       -270.1187729280399026
  Basis Set: CC-PVTZ
  Basis Set:
  Basis Set: CC-PVTZ
  Basis Set:
  @DF-RHF Final Energy:  -270.11882968550572
    Total Energy =                       -270.1188296855057160
  Basis Set: CC-PVTZ
  Basis Set:
  Basis Set: CC-PVTZ
  Basis Set:
  @DF-RHF Final Energy:  -270.11883024517329
    Total Energy =                       -270.1188302451731715
  Basis Set: CC-PVTZ
  Basis Set:
  Charge       = 0
  Multiplicity = 1
  Basis Set: CC-PVTZ
  Basis Set:

    Orbital Energies (a.u.)
    -----------------------

    Doubly Occupied:

       1A    -20.551757     2A    -11.321840     3A    -11.234508
       4A    -11.233397     5A    -11.227561     6A    -11.216910
       7A     -1.406928     8A     -1.098161     9A     -1.020136
      10A     -0.906352    11A     -0.812444    12A     -0.796016
      13A     -0.676212    14A     -0.652792    15A     -0.634761
      16A     -0.604346    17A     -0.587226    18A     -0.548784
      19A     -0.533661    20A     -0.504874    21A     -0.489382
      22A     -0.485160    23A     -0.479587    24A     -0.411792

  @DF-RHF Final Energy:  -270.11883239931382

   => Energetics <=

    Nuclear Repulsion Energy =            228.8370875184195938
    One-Electron Energy =                -819.0426673488294682
    Two-Electron Energy =                 320.0867474310961143
    DFT Exchange-Correlation Energy =       0.0000000000000000
    Empirical Dispersion Energy =           0.0000000000000000
    PCM Polarization Energy =               0.0000000000000000
    EFP Energy =                            0.0000000000000000
    Total Energy =                       -270.1188323993137601
    Molecular point group: c1
  Basis Set: CC-PVTZ
  Basis Set:

  -Total Gradient:
     Atom            X                  Y                   Z
    ------   -----------------  -----------------  -----------------
       1       -0.000030150551    -0.000045540559     0.000009388759
       2       -0.000417118148    -0.000968504125    -0.001358796410
       3        0.000576218463     0.001174547840     0.001075287400
       4        0.000278838390     0.000593074020     0.000847723909
       5       -0.000000986546     0.000034389784     0.000005284243
       6       -0.000406812731    -0.000766536836    -0.000578005324
       7        0.000006034723    -0.000001470611     0.000004018614
       8        0.000014956545    -0.000011708153    -0.000006358618
       9        0.000001621346     0.000004531221    -0.000002933775
      10       -0.000005321978    -0.000006844206    -0.000001269633
      11       -0.000013920848     0.000001533306     0.000009378891
      12        0.000005050377    -0.000002778561     0.000002480510
      13        0.000001457422    -0.000003611124    -0.000005487454
      14        0.000000923106     0.000004238759    -0.000000821507
      15       -0.000009487015    -0.000003261825     0.000001404948
      16       -0.000001302555    -0.000002058930    -0.000001294552

  **** Optimization is complete! (in 6 steps) ****
    Final optimized geometry and variables:
    Molecular point group: c1

    Geometry (in Angstrom), charge = 0, multiplicity = 1:

    H            1.866367957759    -1.148153464062     0.914811175564
    C            1.939225748597    -0.260094016330     0.273243588954
    C            0.668757914257     0.534648015510     0.121675824171
    O            2.972779771094     0.027187728178    -0.223263956214
    C           -0.580554287763    -0.341632395208     0.049427655806
    H            0.764681870876     1.159999742732    -0.756617453847
    H            0.606887557221     1.191795066211     0.986958001435
    C           -1.868342517802     0.469152792968    -0.060993411146
    H           -0.502937051820    -1.010127304549    -0.804126105692
    H           -0.630493537452    -0.975527459837     0.931056466154
    C           -3.116497238204    -0.402865978281    -0.139993997747
    H           -1.815946540561     1.105731526274    -0.939323222344
    H           -1.945567211857     1.135020567495     0.793994405946
    H           -3.083624850994    -1.055755851989    -1.005607128517
    H           -4.011726337265     0.202734769799    -0.216776706339
    H           -3.214435363363    -1.027781344492     0.741349790822

  Mulliken Charges: (a.u.)
   Center  Symbol    Alpha    Beta     Spin     Total
       1     H     0.46538  0.46538  0.00000  0.06924
       2     C     2.91042  2.91042  0.00000  0.17916
       3     C     3.07845  3.07845  0.00000 -0.15690
       4     O     4.16355  4.16355  0.00000 -0.32709
       5     C     3.10229  3.10229  0.00000 -0.20458
       6     H     0.44078  0.44078  0.00000  0.11843
       7     H     0.44660  0.44660  0.00000  0.10680
       8     C     3.08474  3.08474  0.00000 -0.16949
       9     H     0.44799  0.44799  0.00000  0.10402
      10     H     0.45238  0.45238  0.00000  0.09524
      11     C     3.14897  3.14897  0.00000 -0.29795
      12     H     0.45083  0.45083  0.00000  0.09835
      13     H     0.45299  0.45299  0.00000  0.09402
      14     H     0.45361  0.45361  0.00000  0.09279
      15     H     0.44651  0.44651  0.00000  0.10697
      16     H     0.45450  0.45450  0.00000  0.09099

   Total alpha = 24.00000, Total beta = 24.00000, Total charge = -0.00000

*** Psi4 exiting successfully. Buy a developer a beer!
