  ==> Input File <==

--------------------------------------------------------------------------
set {
	reference rhf
	basis 6-31G*
}

set_num_threads( 4 )
memory 2 gb

molecule MOL {
0 1

H	 -0.000158	 1.970498	 0.756846
O	 -0.000074	 1.880206	 -0.189275
C	 -0.000015	 0.544847	 -0.545111
C	 -1.278788	 -0.123820	 -0.051541
C	 1.278802	 -0.123718	 -0.051505
H	 -0.000001	 0.490777	 -1.623619
F	 -2.159915	 -0.167899	 -1.027869
F	 -1.069535	 -1.354931	 0.364315
F	 -1.814282	 0.563012	 0.945006
F	 2.323327	 0.466644	 -0.591854
F	 1.326242	 -1.401483	 -0.363667
F	 1.388946	 -0.015632	 1.262939

	symmetry c1
}
set optking {
	frozen_dihedral = ("
		7 4 3 6
	")
}

ee = optimize('scf')
oeprop('DIPOLE', 'QUADRUPOLE', 'MULLIKEN_CHARGES')
f=open( 'psi4out.xyz', 'w' )
f.write( "12  " )
f.write( str(ee) + "\n" )
f.write( MOL.save_string_xyz() )
f.close()
--------------------------------------------------------------------------

    Molecular point group: c1
  Charge       = 0
  Multiplicity = 1
  Basis Set: 6-31G*
  Basis Set:
  @DF-RHF Final Energy:  -786.27279904317402
    Total Energy =                       -786.2727990431736771
    Molecular point group: c1
  Basis Set: 6-31G*
  Basis Set:
  Basis Set: 6-31G*
  Basis Set:
  @DF-RHF Final Energy:  -786.27359360696846
    Total Energy =                       -786.2735936069684612
  Basis Set: 6-31G*
  Basis Set:
  Basis Set: 6-31G*
  Basis Set:
  @DF-RHF Final Energy:  -786.27406182622838
    Total Energy =                       -786.2740618262281487
  Basis Set: 6-31G*
  Basis Set:
  Basis Set: 6-31G*
  Basis Set:
  @DF-RHF Final Energy:  -786.27411228884739
    Total Energy =                       -786.2741122888476184
  Basis Set: 6-31G*
  Basis Set:
  Basis Set: 6-31G*
  Basis Set:
  @DF-RHF Final Energy:  -786.27413144690013
    Total Energy =                       -786.2741314469004692
  Basis Set: 6-31G*
  Basis Set:
  Basis Set: 6-31G*
  Basis Set:
  @DF-RHF Final Energy:  -786.27413313537363
    Total Energy =                       -786.2741331353734040
  Basis Set: 6-31G*
  Basis Set:
  Charge       = 0
  Multiplicity = 1
  Basis Set: 6-31G*
  Basis Set:

    Orbital Energies (a.u.)
    -----------------------

    Doubly Occupied:

       1A    -26.366707     2A    -26.361431     3A    -26.361194
       4A    -26.360383     5A    -26.359279     6A    -26.356241
       7A    -20.614995     8A    -11.529222     9A    -11.523651
      10A    -11.349227    11A     -1.765633    12A     -1.758023
      13A     -1.662477    14A     -1.658589    15A     -1.657396
      16A     -1.653316    17A     -1.433407    18A     -1.099348
      19A     -0.996750    20A     -0.937316    21A     -0.866081
      22A     -0.860660    23A     -0.851441    24A     -0.845854
      25A     -0.833427    26A     -0.815195    27A     -0.736081
      28A     -0.730480    29A     -0.725450    30A     -0.722521
      31A     -0.687996    32A     -0.685716    33A     -0.681629
      34A     -0.676847    35A     -0.668676    36A     -0.661573
      37A     -0.657093    38A     -0.649486    39A     -0.619061
      40A     -0.551014    41A     -0.504773

  @DF-RHF Final Energy:  -786.27413337799271

   => Energetics <=

    Nuclear Repulsion Energy =            669.5806385685641544
    One-Electron Energy =               -2426.0382687319161050
    Two-Electron Energy =                 970.1834967853581020
    DFT Exchange-Correlation Energy =       0.0000000000000000
    Empirical Dispersion Energy =           0.0000000000000000
    PCM Polarization Energy =               0.0000000000000000
    EFP Energy =                            0.0000000000000000
    Total Energy =                       -786.2741333779938486
    Molecular point group: c1
  Basis Set: 6-31G*
  Basis Set:

  -Total Gradient:
     Atom            X                  Y                   Z
    ------   -----------------  -----------------  -----------------
       1       -0.000000243432     0.000005800441     0.000005389202
       2        0.000005905588    -0.000001847383     0.000001192328
       3        0.002987898810    -0.006018918368    -0.000059518908
       4       -0.002129095046     0.005395862753     0.001362056717
       5        0.000002063146     0.000000698056    -0.000050383057
       6       -0.002152555737     0.004110571714    -0.000210608158
       7        0.001295022718    -0.003480324291    -0.001069799872
       8        0.000004171741    -0.000011468278    -0.000011399814
       9       -0.000010004265     0.000003564714    -0.000012521090
      10       -0.000011438322     0.000000533832     0.000008004575
      11        0.000006890002     0.000000115618     0.000011627574
      12        0.000001384795    -0.000004588815     0.000025960502

  **** Optimization is complete! (in 7 steps) ****
    Final optimized geometry and variables:
    Molecular point group: c1

    Geometry (in Angstrom), charge = 0, multiplicity = 1:

    H           -0.071425378495     2.027900582121     0.674042692799
    O            0.032764343606     1.889575856711    -0.259493562557
    C            0.010560306331     0.539991093076    -0.559580690785
    C           -1.282944973649    -0.110825180129    -0.032624119470
    C            1.281725538264    -0.132136161342    -0.056103345365
    H           -0.008411656853     0.475839105937    -1.636447435728
    F           -2.190852827842    -0.156333895830    -0.986714338628
    F           -1.094147967405    -1.347691381439     0.384447767322
    F           -1.778738678752     0.576183091972     0.979502193905
    F            2.335817387732     0.523058835194    -0.490819055598
    F            1.378786555269    -1.376592745864    -0.474891990398
    F            1.319886148267    -0.129905216352     1.267490953477

  Mulliken Charges: (a.u.)
   Center  Symbol    Alpha    Beta     Spin     Total
       1     H     0.26588  0.26588  0.00000  0.46825
       2     O     4.36162  4.36162  0.00000 -0.72324
       3     C     3.06653  3.06653  0.00000 -0.13305
       4     C     2.43466  2.43466  0.00000  1.13068
       5     C     2.43884  2.43884  0.00000  1.12233
       6     H     0.37160  0.37160  0.00000  0.25681
       7     F     4.67662  4.67662  0.00000 -0.35324
       8     F     4.67427  4.67427  0.00000 -0.34855
       9     F     4.67808  4.67808  0.00000 -0.35616
      10     F     4.67437  4.67437  0.00000 -0.34874
      11     F     4.67551  4.67551  0.00000 -0.35102
      12     F     4.68204  4.68204  0.00000 -0.36408

   Total alpha = 41.00000, Total beta = 41.00000, Total charge = -0.00000
