  ==> Input File <==

--------------------------------------------------------------------------
set {
	reference rhf
	basis 6-31G*
}

set_num_threads( 4 )
memory 2 gb

molecule MOL {
0 1

H	 -3.407059	 -1.043082	 0.000000
O	 -3.119761	 -0.140267	 0.000000
C	 -1.777559	 -0.059267	 0.000000
C	 -1.037447	 -0.014602	 1.177812
C	 -1.140286	 -0.020808	 -1.233884
H	 -1.539189	 -0.044881	 2.129992
C	 0.337770	 0.068390	 1.116903
H	 -1.733014	 -0.056578	 -2.128124
C	 0.235779	 0.062235	 -1.278425
H	 0.921302	 0.103606	 2.017654
C	 0.990855	 0.107803	 -0.110773
H	 0.730118	 0.092068	 -2.234354
C	 2.462961	 0.196643	 -0.174203
O	 3.182295	 0.240053	 0.775235
H	 2.880920	 0.221866	 -1.186053

	symmetry c1
}
set optking {
	frozen_dihedral = ("
		5 3 2 1
	")
}

ee = optimize('scf')
oeprop('DIPOLE', 'QUADRUPOLE', 'MULLIKEN_CHARGES')
f=open( 'psi4out.xyz', 'w' )
f.write( "15  " )
f.write( str(ee) + "\n" )
f.write( MOL.save_string_xyz() )
f.close()
--------------------------------------------------------------------------

    Molecular point group: c1
  Charge       = 0
  Multiplicity = 1
  Basis Set: 6-31G*
  Basis Set:
  @DF-RHF Final Energy:  -418.28310329894538
    Total Energy =                       -418.2831032989458890
    Molecular point group: c1
  Basis Set: 6-31G*
  Basis Set:
  Basis Set: 6-31G*
  Basis Set:
  @DF-RHF Final Energy:  -418.28406889606197
    Total Energy =                       -418.2840688960621947
  Basis Set: 6-31G*
  Basis Set:
  Basis Set: 6-31G*
  Basis Set:
  @DF-RHF Final Energy:  -418.28394716873157
    Total Energy =                       -418.2839471687314017
  Basis Set: 6-31G*
  Basis Set:
  Basis Set: 6-31G*
  Basis Set:
  @DF-RHF Final Energy:  -418.28402386614357
    Total Energy =                       -418.2840238661426611
  Basis Set: 6-31G*
  Basis Set:
  Basis Set: 6-31G*
  Basis Set:
  @DF-RHF Final Energy:  -418.28415228284132
    Total Energy =                       -418.2841522828413190
  Basis Set: 6-31G*
  Basis Set:
  Charge       = 0
  Multiplicity = 1
  Basis Set: 6-31G*
  Basis Set:

    Orbital Energies (a.u.)
    -----------------------

    Doubly Occupied:

       1A    -20.592844     2A    -20.561151     3A    -11.331638
       4A    -11.312555     5A    -11.260223     6A    -11.253275
       7A    -11.245281     8A    -11.243516     9A    -11.241888
      10A     -1.409913    11A     -1.402138    12A     -1.170655
      13A     -1.041300    14A     -1.036721    15A     -0.887545
      16A     -0.857018    17A     -0.796986    18A     -0.749992
      19A     -0.705490    20A     -0.672324    21A     -0.646129
      22A     -0.631473    23A     -0.617135    24A     -0.606960
      25A     -0.559548    26A     -0.552674    27A     -0.535649
      28A     -0.495658    29A     -0.482073    30A     -0.422247
      31A     -0.354903    32A     -0.341567

  @DF-RHF Final Energy:  -418.28415314405328

   => Energetics <=

    Nuclear Repulsion Energy =            400.7436075841413299
    One-Electron Energy =               -1364.0185781906543525
    Two-Electron Energy =                 544.9908174624597450
    DFT Exchange-Correlation Energy =       0.0000000000000000
    Empirical Dispersion Energy =           0.0000000000000000
    PCM Polarization Energy =               0.0000000000000000
    EFP Energy =                            0.0000000000000000
    Total Energy =                       -418.2841531440533345
    Molecular point group: c1
  Basis Set: 6-31G*
  Basis Set:

  -Total Gradient:
     Atom            X                  Y                   Z
    ------   -----------------  -----------------  -----------------
       1       -0.000032522221    -0.000012009171     0.000010904079
       2       -0.000048871836    -0.000051255799    -0.000010152544
       3        0.000072864460     0.000118317273     0.000234666460
       4       -0.000194600004    -0.000043180022    -0.000096570552
       5        0.000161432589     0.000017729318    -0.000105934689
       6        0.000004016693     0.000005788127     0.000001569717
       7        0.000166056051    -0.000022343258    -0.000120803831
       8        0.000001016195     0.000008749407     0.000016106916
       9       -0.000124100517    -0.000094642959    -0.000089934697
      10       -0.000016330441     0.000005468657     0.000005710180
      11       -0.000005729324     0.000037848378     0.000174804207
      12        0.000022419013     0.000015856213     0.000004136035
      13        0.000014247000     0.000038879724    -0.000031503515
      14       -0.000013049283    -0.000015018025     0.000006899849
      15       -0.000006848371    -0.000010187863     0.000000102386

  **** Optimization is complete! (in 6 steps) ****
    Final optimized geometry and variables:
    Molecular point group: c1

    Geometry (in Angstrom), charge = 0, multiplicity = 1:

    H           -3.430069797763    -1.068489773230    -0.004016408457
    O           -3.132114242610    -0.168026798854    -0.001049097954
    C           -1.768168960968    -0.114685393532    -0.055089687516
    C           -1.037225121275    -0.063448641158     1.125412776837
    C           -1.130615750781    -0.067896533703    -1.283380223966
    H           -1.559319071956    -0.086031747429     2.064024359439
    C            0.338207137742     0.025906518584     1.073028315980
    H           -1.717996352414    -0.092687771081    -2.182369302318
    C            0.249827677578     0.022087092141    -1.327625070407
    H            0.920488676717     0.066761901077     1.974248782554
    C            0.992309937444     0.067395611405    -0.155812747225
    H            0.749512077196     0.059704065473    -2.280388872836
    C            2.468316993863     0.163416293318    -0.216445814052
    O            3.182983659959     0.201570832126     0.735470326111
    H            2.888722863704     0.198129495140    -1.226602749998

  Mulliken Charges: (a.u.)
   Center  Symbol    Alpha    Beta     Spin     Total
       1     H     0.26818  0.26818  0.00000  0.46364
       2     O     4.38556  4.38556  0.00000 -0.77111
       3     C     2.81047  2.81047  0.00000  0.37906
       4     C     3.12130  3.12130  0.00000 -0.24259
       5     C     3.12256  3.12256  0.00000 -0.24512
       6     H     0.38823  0.38823  0.00000  0.22353
       7     C     3.08515  3.08515  0.00000 -0.17029
       8     H     0.38926  0.38926  0.00000  0.22148
       9     C     3.09912  3.09912  0.00000 -0.19825
      10     H     0.37498  0.37498  0.00000  0.25004
      11     C     3.06003  3.06003  0.00000 -0.12006
      12     H     0.39003  0.39003  0.00000  0.21994
      13     C     2.83093  2.83093  0.00000  0.33813
      14     O     4.25074  4.25074  0.00000 -0.50149
      15     H     0.42346  0.42346  0.00000  0.15308

   Total alpha = 32.00000, Total beta = 32.00000, Total charge =  0.00000
