                              Psi4 1.0.54 Driver

  ==> Input File <==

--------------------------------------------------------------------------
set {
	reference rhf
	basis cc-pvtz
}

set_num_threads( 4 )
memory 2 gb

molecule MOL {
0 1

H	 2.761116	 1.599075	 -1.056142
C	 2.046223	 1.423237	 -0.262865
C	 1.322304	 0.099773	 -0.484271
H	 2.586612	 1.424503	 0.677001
H	 1.351566	 2.255504	 -0.251779
C	 0.308557	 -0.162619	 0.622645
H	 2.034690	 -0.715494	 -0.508366
H	 0.806868	 0.111488	 -1.436703
N	 -1.069352	 -0.004081	 0.085342
H	 0.371632	 -1.172932	 0.991288
H	 0.400391	 0.548875	 1.426218
O	 -1.584901	 -0.965470	 -0.377818
O	 -1.548033	 1.079343	 0.130056

	symmetry c1
}
set optking {
	frozen_dihedral = ("
		7 3 6 9
	")
}

ee,wfn = optimize('scf', return_wfn=True)
oeprop( wfn, 'DIPOLE', 'QUADRUPOLE', 'MULLIKEN_CHARGES')
f=open( 'psi4out.xyz', 'w' )
f.write( "13  " )
f.write( str(ee) + "\n" )
f.write( MOL.save_string_xyz() )
f.close()
--------------------------------------------------------------------------

    Molecular point group: c1
  Charge       = 0
  Multiplicity = 1
  Basis Set: CC-PVTZ
  Basis Set:
  @DF-RHF Final Energy:  -321.85603872073381
    Total Energy =                       -321.8560387207336362
    Molecular point group: c1
  Basis Set: CC-PVTZ
  Basis Set:
  Basis Set: CC-PVTZ
  Basis Set:
  @DF-RHF Final Energy:  -321.85452537902609
    Total Energy =                       -321.8545253790260858
  Basis Set: CC-PVTZ
  Basis Set:
  Basis Set: CC-PVTZ
  Basis Set:
  @DF-RHF Final Energy:  -321.84933001123807
    Total Energy =                       -321.8493300112380666
  Basis Set: CC-PVTZ
  Basis Set:
  Basis Set: CC-PVTZ
  Basis Set:
  @DF-RHF Final Energy:  -321.85594861722177
    Total Energy =                       -321.8559486172216566
  Basis Set: CC-PVTZ
  Basis Set:
  @DF-RHF Final Energy:  -321.85646153743204
    Total Energy =                       -321.8564615374317555
  @DF-RHF Final Energy:  -321.85666914691677
    Total Energy =                       -321.8566691469168290
  @DF-RHF Final Energy:  -321.85668495089089
    Total Energy =                       -321.8566849508910082
  Basis Set: CC-PVTZ
  Basis Set:
  @DF-RHF Final Energy:  -321.85668943058317
    Total Energy =                       -321.8566894305830033
  Basis Set: CC-PVTZ
  Basis Set:
  Basis Set: CC-PVTZ
  Basis Set:
  @DF-RHF Final Energy:  -321.85668702622911
    Total Energy =                       -321.8566870262292241
  Basis Set: CC-PVTZ
  Basis Set:
  Basis Set: CC-PVTZ
  Basis Set:
  @DF-RHF Final Energy:  -321.85669575640441
    Total Energy =                       -321.8566957564042355
  Basis Set: CC-PVTZ
  Basis Set:
  Charge       = 0
  Multiplicity = 1
  Basis Set: CC-PVTZ
  Basis Set:

    Orbital Energies (a.u.)
    -----------------------

    Doubly Occupied:

       1A    -20.591921     2A    -20.589440     3A    -15.837089
       4A    -11.297569     5A    -11.255280     6A    -11.230688
       7A     -1.636239     8A     -1.420438     9A     -1.131351
      10A     -1.025064    11A     -0.886318    12A     -0.832995
      13A     -0.763418    14A     -0.737606    15A     -0.727017
      16A     -0.653705    17A     -0.620297    18A     -0.591675
      19A     -0.534262    20A     -0.522111    21A     -0.515052
      22A     -0.484025    23A     -0.473629    24A     -0.454510

  @DF-RHF Final Energy:  -321.85669608393084

   => Energetics <=

    Nuclear Repulsion Energy =            250.1162672493596801
    One-Electron Energy =                -934.3225307212928783
    Two-Electron Energy =                 362.3495673880021286
    DFT Exchange-Correlation Energy =       0.0000000000000000
    Empirical Dispersion Energy =           0.0000000000000000
    PCM Polarization Energy =               0.0000000000000000
    EFP Energy =                            0.0000000000000000
    Total Energy =                       -321.8566960839310696
    Molecular point group: c1
  Basis Set: CC-PVTZ
  Basis Set:

  -Total Gradient:
     Atom            X                  Y                   Z
    ------   -----------------  -----------------  -----------------
       1        0.000007907788     0.000005242244    -0.000008547668
       2       -0.000021947729    -0.000024135370    -0.000015277069
       3        0.001846855476     0.000645365851     0.002193085989
       4        0.000005036149    -0.000001766860     0.000014046996
       5       -0.000003231077     0.000005103029     0.000001698502
       6       -0.000245180193     0.002185777981     0.000581708720
       7       -0.001517423178    -0.001010562026    -0.001978286466
       8       -0.000007356446    -0.000002448567    -0.000025704012
       9       -0.000058330290    -0.001654985929    -0.000728850943
      10        0.000000794111    -0.000000837696    -0.000004638069
      11        0.000008245114     0.000015010401     0.000011680406
      12       -0.000049449506    -0.000102189224    -0.000045513687
      13        0.000034079777    -0.000059573841     0.000004597300

  **** Optimization is complete! (in 11 steps) ****
    Final optimized geometry and variables:
    Molecular point group: c1

    Geometry (in Angstrom), charge = 0, multiplicity = 1:

    H            2.947593762612     1.382876922933    -0.800361995615
    C            2.212768492313     1.147622691835    -0.040555981690
    C            1.461707282535    -0.128165360379    -0.399754977075
    H            2.734201513799     1.041347024557     0.904430247794
    H            1.532036808164     1.985635633230     0.041970353661
    C            0.388973387759    -0.520345053224     0.631696527813
    H            2.144930228628    -0.960626977917    -0.507749408114
    H            0.989627032351    -0.014594617090    -1.368081273103
    N           -0.966022459276    -0.245976536094     0.083969738825
    H            0.400666709339    -1.572878666224     0.851798414316
    H            0.464718714279     0.057525190187     1.537825180121
    O           -1.563268499111    -1.157317267473    -0.380587213938
    O           -1.346133019245     0.877276843409     0.121913997121

  Mulliken Charges: (a.u.)
   Center  Symbol    Alpha    Beta     Spin     Total
       1     H     0.44595  0.44595  0.00000  0.10811
       2     C     3.14707  3.14707  0.00000 -0.29414
       3     C     3.09073  3.09073  0.00000 -0.18145
       4     H     0.45482  0.45482  0.00000  0.09035
       5     H     0.44264  0.44264  0.00000  0.11472
       6     C     3.04613  3.04613  0.00000 -0.09226
       7     H     0.44327  0.44327  0.00000  0.11347
       8     H     0.44121  0.44121  0.00000  0.11758
       9     N     3.27828  3.27828  0.00000  0.44344
      10     H     0.42792  0.42792  0.00000  0.14416
      11     H     0.43640  0.43640  0.00000  0.12720
      12     O     4.17016  4.17016  0.00000 -0.34033
      13     O     4.17542  4.17542  0.00000 -0.35083

   Total alpha = 24.00000, Total beta = 24.00000, Total charge =  0.00000

*** Psi4 exiting successfully. Buy a developer a beer!
