                              Psi4 1.0.54 Driver

  ==> Input File <==

--------------------------------------------------------------------------
set {
	reference rhf
	basis cc-pvtz
}

set_num_threads( 4 )
memory 2 gb

molecule MOL {
0 1

O	 -2.440701	 -0.934798	 -0.415053
C	 -1.922978	 0.063265	 -0.045005
C	 -2.632749	 1.372204	 0.158357
O	 -0.637375	 0.157174	 0.243149
H	 -2.187724	 2.129143	 -0.474664
H	 -3.677681	 1.257276	 -0.079438
H	 -2.516788	 1.693160	 1.185542
C	 0.162530	 -1.009518	 0.097799
C	 1.587210	 -0.664190	 0.477086
H	 0.096803	 -1.356267	 -0.924704
H	 -0.233803	 -1.785900	 0.736810
C	 1.908893	 -0.868469	 1.955109
H	 1.749408	 0.376578	 0.210196
H	 2.265856	 -1.251850	 -0.133597
C	 3.342723	 -0.483385	 2.303617
H	 1.220690	 -0.278245	 2.554369
H	 1.737394	 -1.905294	 2.220484
H	 3.542722	 -0.634081	 3.357978
H	 3.536411	 0.559770	 2.076231
H	 4.054934	 -1.080314	 1.743752

	symmetry c1
}
set optking {
	frozen_dihedral = ("
		12 9 8 10
	")
}

ee,wfn = optimize('scf', return_wfn=True)
oeprop( wfn, 'DIPOLE', 'QUADRUPOLE', 'MULLIKEN_CHARGES')
f=open( 'psi4out.xyz', 'w' )
f.write( "20  " )
f.write( str(ee) + "\n" )
f.write( MOL.save_string_xyz() )
f.close()
--------------------------------------------------------------------------

    Molecular point group: c1
  Charge       = 0
  Multiplicity = 1
  Basis Set: CC-PVTZ
  Basis Set:
  @DF-RHF Final Energy:  -384.08490900795880
    Total Energy =                       -384.0849090079586858
    Molecular point group: c1
  Basis Set: CC-PVTZ
  Basis Set:
  Basis Set: CC-PVTZ
  Basis Set:
  @DF-RHF Final Energy:  -384.08517807188099
    Total Energy =                       -384.0851780718808186
  Basis Set: CC-PVTZ
  Basis Set:
  Basis Set: CC-PVTZ
  Basis Set:
  @DF-RHF Final Energy:  -384.08439677562916
    Total Energy =                       -384.0843967756285338
  Basis Set: CC-PVTZ
  Basis Set:
  Basis Set: CC-PVTZ
  Basis Set:
  @DF-RHF Final Energy:  -384.08525412573238
    Total Energy =                       -384.0852541257321491
  Basis Set: CC-PVTZ
  Basis Set:
  Basis Set: CC-PVTZ
  Basis Set:
  @DF-RHF Final Energy:  -384.08525984336518
    Total Energy =                       -384.0852598433650655
  Basis Set: CC-PVTZ
  Basis Set:
  Basis Set: CC-PVTZ
  Basis Set:
  @DF-RHF Final Energy:  -384.08526119773546
    Total Energy =                       -384.0852611977355764
  Basis Set: CC-PVTZ
  Basis Set:
  Charge       = 0
  Multiplicity = 1
  Basis Set: CC-PVTZ
  Basis Set:

    Orbital Energies (a.u.)
    -----------------------

    Doubly Occupied:

       1A    -20.594839     2A    -20.532725     3A    -11.366596
       4A    -11.279655     5A    -11.231632     6A    -11.222912
       7A    -11.220590     8A    -11.212138     9A     -1.471154
      10A     -1.365274    11A     -1.086945    12A     -1.029794
      13A     -0.981556    14A     -0.882027    15A     -0.808855
      16A     -0.782805    17A     -0.692520    18A     -0.684117
      19A     -0.670949    20A     -0.631854    21A     -0.603429
      22A     -0.593885    23A     -0.572530    24A     -0.553839
      25A     -0.545535    26A     -0.529505    27A     -0.514211
      28A     -0.482082    29A     -0.478792    30A     -0.476872
      31A     -0.449382    32A     -0.441533

  @DF-RHF Final Energy:  -384.08526147905337

   => Energetics <=

    Nuclear Repulsion Energy =            383.5043799991679521
    One-Electron Energy =               -1283.1982226090790391
    Two-Electron Energy =                 515.6085811308579423
    DFT Exchange-Correlation Energy =       0.0000000000000000
    Empirical Dispersion Energy =           0.0000000000000000
    PCM Polarization Energy =               0.0000000000000000
    EFP Energy =                            0.0000000000000000
    Total Energy =                       -384.0852614790532016
    Molecular point group: c1
  Basis Set: CC-PVTZ
  Basis Set:

  -Total Gradient:
     Atom            X                  Y                   Z
    ------   -----------------  -----------------  -----------------
       1       -0.000031297412    -0.000018623606    -0.000020039822
       2        0.000050646641     0.000026234588     0.000035171660
       3        0.000005359683    -0.000005811007     0.000003016308
       4       -0.000036118248     0.000011485968    -0.000009249873
       5       -0.000000959879    -0.000002119118     0.000000982475
       6       -0.000013766034     0.000003483770    -0.000003236085
       7        0.000002865692     0.000000340826    -0.000008724467
       8       -0.000309307502     0.004186859942    -0.002182697368
       9       -0.001101515425     0.003302241496     0.001169559928
      10        0.000561505695    -0.004338552970     0.001555547073
      11       -0.000001600727     0.000002011619     0.000003542301
      12        0.000877907836    -0.003161310319    -0.000547120743
      13       -0.000006530482    -0.000002077941     0.000003929185
      14        0.000001612741     0.000001061014    -0.000003052581
      15        0.000003377622    -0.000007889333     0.000000073002
      16        0.000002727853     0.000000836144     0.000000871666
      17        0.000001529947     0.000002675288     0.000002000058
      18       -0.000000177037    -0.000001643537    -0.000001219243
      19       -0.000005159067    -0.000002678080     0.000001027796
      20       -0.000001101897     0.000003475259    -0.000000381270

  **** Optimization is complete! (in 7 steps) ****
    Final optimized geometry and variables:
    Molecular point group: c1

    Geometry (in Angstrom), charge = 0, multiplicity = 1:

    O           -2.351673145438    -0.642422222886    -0.989938947858
    C           -1.823232036765     0.360300650095    -0.648957688241
    C           -2.522683733571     1.676892616859    -0.462114858699
    O           -0.531910445488     0.453937115327    -0.386560323471
    H           -2.082846649825     2.417597707350    -1.117436941645
    H           -3.571778946253     1.563105494315    -0.681529944089
    H           -2.389209306029     2.018291185083     0.556267507248
    C            0.259026039411    -0.718437999967    -0.521373452716
    C            1.687252601178    -0.389746565991    -0.118035935609
    H            0.202121477830    -1.087667791701    -1.535276358561
    H           -0.155864488912    -1.492044264426     0.111004838398
    C            1.963282626185    -0.569011394209     1.372734621433
    H            1.915706466330     0.622951530963    -0.430799696179
    H            2.352135866716    -1.043504751196    -0.674984927614
    C            3.391343282498    -0.202020057457     1.759675102576
    H            1.266523103542     0.036647859813     1.944788037509
    H            1.768477576775    -1.602095593248     1.645146881882
    H            3.561053272218    -0.352944704438     2.819262078750
    H            3.602184553620     0.838149798293     1.535417676132
    H            4.111516074003    -0.808099077272     1.219805751269

  Mulliken Charges: (a.u.)
   Center  Symbol    Alpha    Beta     Spin     Total
       1     O     4.19701  4.19701  0.00000 -0.39402
       2     C     2.80907  2.80907  0.00000  0.38185
       3     C     3.13785  3.13785  0.00000 -0.27570
       4     O     4.15371  4.15371  0.00000 -0.30742
       5     H     0.44570  0.44570  0.00000  0.10859
       6     H     0.43805  0.43805  0.00000  0.12389
       7     H     0.44610  0.44610  0.00000  0.10781
       8     C     2.98663  2.98663  0.00000  0.02673
       9     C     3.08534  3.08534  0.00000 -0.17069
      10     H     0.44666  0.44666  0.00000  0.10668
      11     H     0.45517  0.45517  0.00000  0.08966
      12     C     3.08570  3.08570  0.00000 -0.17141
      13     H     0.45009  0.45009  0.00000  0.09983
      14     H     0.45135  0.45135  0.00000  0.09730
      15     C     3.15066  3.15066  0.00000 -0.30131
      16     H     0.45125  0.45125  0.00000  0.09751
      17     H     0.45338  0.45338  0.00000  0.09325
      18     H     0.44726  0.44726  0.00000  0.10547
      19     H     0.45387  0.45387  0.00000  0.09227
      20     H     0.45515  0.45515  0.00000  0.08971

   Total alpha = 32.00000, Total beta = 32.00000, Total charge =  0.00000

*** Psi4 exiting successfully. Buy a developer a beer!
