                              Psi4 1.0.54 Driver

  ==> Input File <==

--------------------------------------------------------------------------
set {
	reference rhf
	basis cc-pvtz
}

set_num_threads( 4 )
memory 2 gb

molecule MOL {
0 1

H	 -2.498963	 -0.741158	 -0.729149
O	 -2.346257	 -0.289210	 0.080372
C	 -1.183935	 0.486039	 -0.009831
C	 0.062853	 -0.375310	 0.027457
H	 -1.178881	 1.094526	 -0.908634
H	 -1.184406	 1.155156	 0.838676
O	 0.136294	 -0.983804	 1.274771
H	 0.946070	 0.240484	 -0.150368
H	 0.016481	 -1.116526	 -0.767543
C	 1.222645	 -1.834268	 1.441427
H	 2.164769	 -1.302413	 1.328267
H	 1.172207	 -2.244098	 2.439516
H	 1.200730	 -2.651853	 0.724771

	symmetry c1
}
set optking {
	frozen_dihedral = ("
		8 4 3 5
	")
}

ee,wfn = optimize('scf', return_wfn=True)
oeprop( wfn, 'DIPOLE', 'QUADRUPOLE', 'MULLIKEN_CHARGES')
f=open( 'psi4out.xyz', 'w' )
f.write( "13  " )
f.write( str(ee) + "\n" )
f.write( MOL.save_string_xyz() )
f.close()
--------------------------------------------------------------------------

    Molecular point group: c1
  Charge       = 0
  Multiplicity = 1
  Basis Set: CC-PVTZ
  Basis Set:
  @DF-RHF Final Energy:  -268.05990611305413
    Total Energy =                       -268.0599061130541827
    Molecular point group: c1
  Basis Set: CC-PVTZ
  Basis Set:
  Basis Set: CC-PVTZ
  Basis Set:
  @DF-RHF Final Energy:  -268.06030517885398
    Total Energy =                       -268.0603051788538664
  Basis Set: CC-PVTZ
  Basis Set:
  Basis Set: CC-PVTZ
  Basis Set:
  @DF-RHF Final Energy:  -268.06040049257581
    Total Energy =                       -268.0604004925756954
  Basis Set: CC-PVTZ
  Basis Set:
  Basis Set: CC-PVTZ
  Basis Set:
  @DF-RHF Final Energy:  -268.06043251402127
    Total Energy =                       -268.0604325140212723
  Basis Set: CC-PVTZ
  Basis Set:
  Basis Set: CC-PVTZ
  Basis Set:
  @DF-RHF Final Energy:  -268.06043743025714
    Total Energy =                       -268.0604374302569113
  Basis Set: CC-PVTZ
  Basis Set:
  Charge       = 0
  Multiplicity = 1
  Basis Set: CC-PVTZ
  Basis Set:

    Orbital Energies (a.u.)
    -----------------------

    Doubly Occupied:

       1A    -20.552733     2A    -20.546606     3A    -11.272924
       4A    -11.268995     5A    -11.266077     6A     -1.391955
       7A     -1.362767     8A     -1.021189     9A     -0.917806
      10A     -0.841192    11A     -0.698984    12A     -0.681556
      13A     -0.665037    14A     -0.631575    15A     -0.607043
      16A     -0.568181    17A     -0.537568    18A     -0.503564
      19A     -0.472842    20A     -0.439951    21A     -0.423355

  @DF-RHF Final Energy:  -268.06043761568742

   => Energetics <=

    Nuclear Repulsion Energy =            193.2668041985494654
    One-Electron Energy =                -749.3106780494191526
    Two-Electron Energy =                 287.9834362351820118
    DFT Exchange-Correlation Energy =       0.0000000000000000
    Empirical Dispersion Energy =           0.0000000000000000
    PCM Polarization Energy =               0.0000000000000000
    EFP Energy =                            0.0000000000000000
    Total Energy =                       -268.0604376156876469
    Molecular point group: c1
  Basis Set: CC-PVTZ
  Basis Set:

  -Total Gradient:
     Atom            X                  Y                   Z
    ------   -----------------  -----------------  -----------------
       1        0.000011080417     0.000004529904    -0.000005700912
       2        0.000024415294     0.000032688403     0.000047367585
       3        0.000132082386     0.000211522121     0.000157334454
       4       -0.000056882271    -0.000100730821    -0.000315242505
       5       -0.000130367178    -0.000176904558    -0.000144037719
       6       -0.000010782018    -0.000022089117     0.000000631178
       7        0.000023618678    -0.000012547342    -0.000025831841
       8        0.000030485558     0.000056994571     0.000265308897
       9       -0.000010948258     0.000011530560    -0.000003176460
      10       -0.000022579929    -0.000002069909     0.000026517894
      11       -0.000000982583     0.000005093854    -0.000004272834
      12        0.000010578424    -0.000009612668     0.000004771565
      13        0.000000281480     0.000001595002    -0.000003669303

  **** Optimization is complete! (in 6 steps) ****
    Final optimized geometry and variables:
    Molecular point group: c1

    Geometry (in Angstrom), charge = 0, multiplicity = 1:

    H           -1.994302646597    -0.237628430752    -1.199050096321
    O           -1.934657877382     0.380543546944    -0.493443804485
    C           -0.736143323137     1.093101349365    -0.575356555389
    C            0.499265613144     0.222919702631    -0.505989150143
    H           -0.692855240608     1.675829523154    -1.493511086227
    H           -0.733259374079     1.781733840538     0.257761019419
    O            0.584395845261    -0.387192986033     0.737122331521
    H            1.375739167581     0.846251533109    -0.686444749308
    H            0.468667695851    -0.528714035104    -1.297769319402
    C            1.673827835093    -1.234654486574     0.890124296486
    H            2.614791480925    -0.702581417883     0.764898969052
    H            1.636146917021    -1.644165058448     1.888792818028
    H            1.645191344103    -2.054012285963     0.174807945720

  Mulliken Charges: (a.u.)
   Center  Symbol    Alpha    Beta     Spin     Total
       1     H     0.39658  0.39658  0.00000  0.20685
       2     O     4.19638  4.19638  0.00000 -0.39276
       3     C     2.96363  2.96363  0.00000  0.07274
       4     C     2.96961  2.96961  0.00000  0.06078
       5     H     0.47427  0.47427  0.00000  0.05145
       6     H     0.45529  0.45529  0.00000  0.08941
       7     O     4.16669  4.16669  0.00000 -0.33337
       8     H     0.47451  0.47451  0.00000  0.05098
       9     H     0.48214  0.48214  0.00000  0.03573
      10     C     3.03123  3.03123  0.00000 -0.06246
      11     H     0.47222  0.47222  0.00000  0.05555
      12     H     0.44527  0.44527  0.00000  0.10947
      13     H     0.47219  0.47219  0.00000  0.05563

   Total alpha = 21.00000, Total beta = 21.00000, Total charge =  0.00000

*** Psi4 exiting successfully. Buy a developer a beer!
