  ==> Input File <==

--------------------------------------------------------------------------
set {
	reference rhf
	basis cc-pvtz
}

set_num_threads( 4 )
memory 2 gb

molecule MOL {
0 1

H	 2.522950	 -5.569309	 -1.398262
C	 2.385977	 -4.544522	 -1.113368
C	 1.140127	 -4.086119	 -0.708945
C	 3.441411	 -3.663003	 -1.142640
H	 0.304583	 -4.759578	 -0.679750
C	 0.960180	 -2.773949	 -0.343090
H	 4.412775	 -3.999151	 -1.452714
C	 3.277163	 -2.334359	 -0.776391
H	 0.001827	 -2.409726	 -0.029131
C	 2.031644	 -1.887612	 -0.374921
H	 4.118427	 -1.673599	 -0.810056
O	 1.760432	 -0.625184	 0.000000
C	 2.773565	 0.334879	 0.000000
H	 2.728295	 0.960928	 -0.884150
H	 3.706387	 -0.206610	 0.000000
H	 2.728295	 0.960928	 0.884150

	symmetry c1
}
set optking {
	frozen_dihedral = ("
		10 12 13 14
	")
}

ee = optimize('scf')
oeprop('DIPOLE', 'QUADRUPOLE', 'MULLIKEN_CHARGES')
f=open( 'psi4out.xyz', 'w' )
f.write( "16  " )
f.write( str(ee) + "\n" )
f.write( MOL.save_string_xyz() )
f.close()
--------------------------------------------------------------------------

    Molecular point group: c1
  Charge       = 0
  Multiplicity = 1
  Basis Set: CC-PVTZ
  Basis Set:
  @DF-RHF Final Energy:  -344.69513302887731
    Total Energy =                       -344.6951330288771942
    Molecular point group: c1
  Basis Set: CC-PVTZ
  Basis Set:
  Basis Set: CC-PVTZ
  Basis Set:
  @DF-RHF Final Energy:  -344.69567038113456
    Total Energy =                       -344.6956703811341072
  Basis Set: CC-PVTZ
  Basis Set:
  Basis Set: CC-PVTZ
  Basis Set:
  @DF-RHF Final Energy:  -344.69981377154534
    Total Energy =                       -344.6998137715453367
  Basis Set: CC-PVTZ
  Basis Set:
  Basis Set: CC-PVTZ
  Basis Set:
  @DF-RHF Final Energy:  -344.70046919660427
    Total Energy =                       -344.7004691966042174
  Basis Set: CC-PVTZ
  Basis Set:
  @DF-RHF Final Energy:  -344.70077951952089
    Total Energy =                       -344.7007795195203812
  @DF-RHF Final Energy:  -344.70092476473371
    Total Energy =                       -344.7009247647339407
  @DF-RHF Final Energy:  -344.70096536390759
    Total Energy =                       -344.7009653639074145
  Basis Set: CC-PVTZ
  Basis Set:
  @DF-RHF Final Energy:  -344.70096649727395
    Total Energy =                       -344.7009664972738392
  Basis Set: CC-PVTZ
  Basis Set:
  Basis Set: CC-PVTZ
  Basis Set:
  @DF-RHF Final Energy:  -344.70096519443587
    Total Energy =                       -344.7009651944362076
  Basis Set: CC-PVTZ
  Basis Set:
  Basis Set: CC-PVTZ
  Basis Set:
  @DF-RHF Final Energy:  -344.70096656328803
    Total Energy =                       -344.7009665632880910
  Basis Set: CC-PVTZ
  Basis Set:
  Charge       = 0
  Multiplicity = 1
  Basis Set: CC-PVTZ
  Basis Set:

    Orbital Energies (a.u.)
    -----------------------

    Doubly Occupied:

       1A    -20.576039     2A    -11.292614     3A    -11.277559
       4A    -11.231408     5A    -11.230038     6A    -11.222260
       7A    -11.218256     8A    -11.217809     9A     -1.414903
      10A     -1.151081    11A     -1.024630    12A     -1.016969
      13A     -0.942653    14A     -0.835384    15A     -0.808500
      16A     -0.724021    17A     -0.667232    18A     -0.666609
      19A     -0.656351    20A     -0.618048    21A     -0.591574
      22A     -0.582193    23A     -0.529148    24A     -0.519853
      25A     -0.511664    26A     -0.482975    27A     -0.459268
      28A     -0.339560    29A     -0.311649

  @DF-RHF Final Energy:  -344.70096655402710

   => Energetics <=

    Nuclear Repulsion Energy =            348.5291761005254330
    One-Electron Energy =               -1158.2197856589291405
    Two-Electron Energy =                 464.9896430043767168
    DFT Exchange-Correlation Energy =       0.0000000000000000
    Empirical Dispersion Energy =           0.0000000000000000
    PCM Polarization Energy =               0.0000000000000000
    EFP Energy =                            0.0000000000000000
    Total Energy =                       -344.7009665540269907
    Molecular point group: c1
  Basis Set: CC-PVTZ
  Basis Set:

  -Total Gradient:
     Atom            X                  Y                   Z
    ------   -----------------  -----------------  -----------------
       1       -0.000002208001    -0.000001995165    -0.000001312990
       2        0.000014451271     0.000011973166    -0.000000093570
       3       -0.000014120707     0.000007021264    -0.000000064267
       4        0.000006069398    -0.000020779431    -0.000000396133
       5        0.000004134222    -0.000000509435     0.000001303144
       6        0.000002676326     0.000000388834     0.000006890726
       7       -0.000001848112     0.000001135901    -0.000000276288
       8       -0.000023437525     0.000024052094     0.000012336890
       9       -0.000000991115     0.000002266618     0.000000672334
      10       -0.000475594572    -0.000658051072     0.002618470704
      11        0.000002832622    -0.000006942775     0.000000451555
      12        0.000159211534     0.001558751427    -0.003745678544
      13        0.002437693809    -0.002894201670     0.000478510598
      14       -0.002080292044     0.002094845105     0.000581097274
      15        0.000012544944     0.000007673390    -0.000030494253
      16       -0.000041122048    -0.000125628251     0.000078582818

  **** Optimization is complete! (in 11 steps) ****
    Final optimized geometry and variables:
    Molecular point group: c1

    Geometry (in Angstrom), charge = 0, multiplicity = 1:

    H            0.296811814676    -3.266373644404    -0.651535915762
    C            0.157240747100    -2.221538800578    -0.453747098000
    C           -1.068338056189    -1.746763227629    -0.015066753837
    C            1.192302418494    -1.330671241664    -0.636207000533
    H           -1.886003941309    -2.427021869771     0.130492585918
    C           -1.250862388077    -0.407084180175     0.244228271709
    H            2.145869103713    -1.680011517038    -0.984501128645
    C            1.021617530146     0.021276541425    -0.385884431011
    H           -2.194364688088    -0.029836947100     0.586450479167
    C           -0.202407401988     0.484355809134     0.063549404527
    H            1.834510831602     0.698478900346    -0.555152130043
    O           -0.467863126163     1.782414604916     0.305293204629
    C            0.554670522115     2.656342801156     0.696205013566
    H            0.900098900939     3.243046138912    -0.147080259459
    H            1.385119779255     2.132964194046     1.149015388750
    H            0.130267095729     3.332493582041     1.424790180769

  Mulliken Charges: (a.u.)
   Center  Symbol    Alpha    Beta     Spin     Total
       1     H     0.42431  0.42431  0.00000  0.15138
       2     C     3.09877  3.09877  0.00000 -0.19754
       3     C     3.05943  3.05943  0.00000 -0.11885
       4     C     3.06372  3.06372  0.00000 -0.12744
       5     H     0.42288  0.42288  0.00000  0.15425
       6     C     3.11005  3.11005  0.00000 -0.22009
       7     H     0.42300  0.42300  0.00000  0.15399
       8     C     3.13402  3.13402  0.00000 -0.26805
       9     H     0.41979  0.41979  0.00000  0.16042
      10     C     2.85599  2.85599  0.00000  0.28802
      11     H     0.42325  0.42325  0.00000  0.15350
      12     O     4.15887  4.15887  0.00000 -0.31775
      13     C     3.04137  3.04137  0.00000 -0.08273
      14     H     0.45669  0.45669  0.00000  0.08663
      15     H     0.46356  0.46356  0.00000  0.07287
      16     H     0.44430  0.44430  0.00000  0.11140

   Total alpha = 29.00000, Total beta = 29.00000, Total charge =  0.00000
