                              Psi4 1.0.54 Driver

  ==> Input File <==

--------------------------------------------------------------------------
set {
	reference rhf
	basis cc-pvtz
}

set_num_threads( 4 )
memory 2 gb

molecule MOL {
0 1

H	 2.646708	 0.758099	 0.000000
O	 2.258158	 -0.097743	 0.000000
C	 0.911162	 -0.015915	 0.000000
C	 0.234636	 -0.590076	 -1.063698
C	 0.207554	 0.611490	 1.010801
H	 0.796800	 -1.072529	 -1.838753
C	 -1.141513	 -0.531029	 -1.106145
H	 0.732447	 1.057121	 1.836363
C	 -1.173996	 0.663167	 0.955045
H	 -1.660489	 -0.977714	 -1.932908
C	 -1.857654	 0.094867	 -0.099269
H	 -1.712677	 1.152372	 1.744239
H	 -2.928420	 0.136805	 -0.139223

	symmetry c1
}
set optking {
	frozen_dihedral = ("
		4 3 2 1
	")
}

ee,wfn = optimize('scf', return_wfn=True)
oeprop( wfn, 'DIPOLE', 'QUADRUPOLE', 'MULLIKEN_CHARGES')
f=open( 'psi4out.xyz', 'w' )
f.write( "13  " )
f.write( str(ee) + "\n" )
f.write( MOL.save_string_xyz() )
f.close()
--------------------------------------------------------------------------

    Molecular point group: c1
  Charge       = 0
  Multiplicity = 1
  Basis Set: CC-PVTZ
  Basis Set:
  @DF-RHF Final Energy:  -305.66681349503028
    Total Energy =                       -305.6668134950301692
    Molecular point group: c1
  Basis Set: CC-PVTZ
  Basis Set:
  Basis Set: CC-PVTZ
  Basis Set:
  @DF-RHF Final Energy:  -305.66714503294662
    Total Energy =                       -305.6671450329466779
  Basis Set: CC-PVTZ
  Basis Set:
  Basis Set: CC-PVTZ
  Basis Set:
  @DF-RHF Final Energy:  -305.66718262142831
    Total Energy =                       -305.6671826214283101
  Basis Set: CC-PVTZ
  Basis Set:
  Basis Set: CC-PVTZ
  Basis Set:
  @DF-RHF Final Energy:  -305.66718658244741
    Total Energy =                       -305.6671865824471865
  Basis Set: CC-PVTZ
  Basis Set:
  Charge       = 0
  Multiplicity = 1
  Basis Set: CC-PVTZ
  Basis Set:

    Orbital Energies (a.u.)
    -----------------------

    Doubly Occupied:

       1A    -20.574049     2A    -11.290842     3A    -11.234121
       4A    -11.233138     5A    -11.226296     6A    -11.224378
       7A    -11.223626     8A     -1.401739     9A     -1.153224
      10A     -1.022480    11A     -1.008377    12A     -0.842463
      13A     -0.827950    14A     -0.739087    15A     -0.685372
      16A     -0.652114    17A     -0.629162    18A     -0.597795
      19A     -0.592001    20A     -0.533140    21A     -0.517489
      22A     -0.497584    23A     -0.475294    24A     -0.342205
      25A     -0.325836

  @DF-RHF Final Energy:  -305.66718736968323

   => Energetics <=

    Nuclear Repulsion Energy =            273.4290467083826570
    One-Electron Energy =                -956.4929461774446509
    Two-Electron Energy =                 377.3967120993788740
    DFT Exchange-Correlation Energy =       0.0000000000000000
    Empirical Dispersion Energy =           0.0000000000000000
    PCM Polarization Energy =               0.0000000000000000
    EFP Energy =                            0.0000000000000000
    Total Energy =                       -305.6671873696831199
    Molecular point group: c1
  Basis Set: CC-PVTZ
  Basis Set:

  -Total Gradient:
     Atom            X                  Y                   Z
    ------   -----------------  -----------------  -----------------
       1        0.000066743705     0.000014332333    -0.002093300525
       2        0.000120385607     0.000609055951     0.002209030182
       3       -0.000387197031    -0.001872417298     0.000766393936
       4        0.000096791574     0.001284029431    -0.000829673299
       5        0.000156071241    -0.000029751349    -0.000043146471
       6       -0.000007573502    -0.000000239766     0.000015790441
       7        0.000082628515    -0.000014996585    -0.000044110199
       8        0.000011755408    -0.000002545447     0.000010758229
       9       -0.000126187118    -0.000013467709    -0.000082803557
      10       -0.000021347128     0.000006535518     0.000011862277
      11        0.000005723347     0.000042783650     0.000110910945
      12        0.000011127922    -0.000012796398    -0.000008628306
      13       -0.000008922542    -0.000010522331    -0.000023083650

  **** Optimization is complete! (in 5 steps) ****
    Final optimized geometry and variables:
    Molecular point group: c1

    Geometry (in Angstrom), charge = 0, multiplicity = 1:

    H            2.661136705739     0.697233855746     0.098023554278
    O            2.263719983316    -0.155163871964     0.081368866883
    C            0.904595572281    -0.050090032248     0.037743302817
    C            0.229714684710    -0.597867034845    -1.035737400176
    C            0.205743655487     0.570374989739     1.056235074815
    H            0.790567091232    -1.075078791893    -1.815173725718
    C           -1.149524687646    -0.530111578497    -1.083117198349
    H            0.740611381123     0.980299239537     1.891980716771
    C           -1.172940965596     0.644137823538     0.994594054456
    H           -1.671503273116    -0.960495878966    -1.916471095574
    C           -1.856955736529     0.093401785522    -0.072343411331
    H           -1.712338478062     1.127247571959     1.786927073005
    H           -2.927490181069     0.147303731191    -0.114724315078

  Mulliken Charges: (a.u.)
   Center  Symbol    Alpha    Beta     Spin     Total
       1     H     0.38621  0.38621  0.00000  0.22758
       2     O     4.18944  4.18944  0.00000 -0.37887
       3     C     2.86904  2.86904  0.00000  0.26192
       4     C     3.10798  3.10798  0.00000 -0.21596
       5     C     3.11914  3.11914  0.00000 -0.23829
       6     H     0.41640  0.41640  0.00000  0.16721
       7     C     3.06562  3.06562  0.00000 -0.13124
       8     H     0.42144  0.42144  0.00000  0.15712
       9     C     3.06849  3.06849  0.00000 -0.13698
      10     H     0.42177  0.42177  0.00000  0.15645
      11     C     3.08928  3.08928  0.00000 -0.17855
      12     H     0.42195  0.42195  0.00000  0.15611
      13     H     0.42325  0.42325  0.00000  0.15350

   Total alpha = 25.00000, Total beta = 25.00000, Total charge = -0.00000

*** Psi4 exiting successfully. Buy a developer a beer!
