  ==> Input File <==

--------------------------------------------------------------------------
set {
	reference rhf
	basis 6-31G*
}

set_num_threads( 1 )
memory 2 gb

molecule MOL {
0 1

H	 3.113390	 4.276226	 3.118651
C	 2.743629	 3.483506	 2.492827
C	 1.578989	 3.665557	 1.762335
C	 3.432943	 2.283353	 2.419259
H	 1.045361	 4.596820	 1.820292
C	 1.104172	 2.645816	 0.957872
H	 4.335568	 2.144055	 2.986243
C	 2.959518	 1.261180	 1.614645
H	 0.204708	 2.768977	 0.385625
C	 1.792568	 1.440509	 0.881275
H	 3.489727	 0.330800	 1.554706
C	 1.239129	 0.373821	 0.000060
O	 1.970282	 -0.730723	 0.000018
O	 0.242971	 0.491567	 -0.642329
C	 3.377318	 -0.566646	 -0.000065
H	 3.695437	 -0.028981	 -0.881264
H	 3.789299	 -1.563704	 0.000236
H	 3.695516	 -0.028316	 0.880770

	symmetry c1
}
set optking {
	frozen_dihedral = ("
		12 13 15 16,
		13 12 10 6
	")
}

ee = energy('scf')
oeprop('DIPOLE', 'QUADRUPOLE', 'MULLIKEN_CHARGES')
f=open( 'psi4out.xyz', 'w' )
f.write( "18  " )
f.write( str(ee) + "\n" )
f.write( MOL.save_string_xyz() )
f.close()
--------------------------------------------------------------------------

    Molecular point group: c1

    Geometry (in Angstrom), charge = 0, multiplicity = 1:

       Center              X                  Y                   Z               Mass
    ------------   -----------------  -----------------  -----------------  -----------------
           H          1.072324985452     2.925176772001     2.227764730544     1.007825032070
           C          0.702563985452     2.132456772001     1.601940730544    12.000000000000
           C         -0.462076014548     2.314507772001     0.871448730544    12.000000000000
           C          1.391877985452     0.932303772001     1.528372730544    12.000000000000
           H         -0.995704014548     3.245770772001     0.929405730544     1.007825032070
           C         -0.936893014548     1.294766772001     0.066985730544    12.000000000000
           H          2.294502985452     0.793005772001     2.095356730544     1.007825032070
           C          0.918452985452    -0.089869227999     0.723758730544    12.000000000000
           H         -1.836357014548     1.417927772001    -0.505261269456     1.007825032070
           C         -0.248497014548     0.089459772001    -0.009611269456    12.000000000000
           H          1.448661985452    -1.020249227999     0.663819730544     1.007825032070
           C         -0.801936014548    -0.977228227999    -0.890826269456    12.000000000000
           O         -0.070783014548    -2.081772227999    -0.890868269456    15.994914619560
           O         -1.798094014548    -0.859482227999    -1.533215269456    15.994914619560
           C          1.336252985452    -1.917695227999    -0.890951269456    12.000000000000
           H          1.654371985452    -1.380030227999    -1.772150269456     1.007825032070
           H          1.748233985452    -2.914753227999    -0.890650269456     1.007825032070
           H          1.654450985452    -1.379365227999    -0.010116269456     1.007825032070

  Charge       = 0
  Multiplicity = 1
  Basis Set: 6-31G*
  Basis Set:

    Orbital Energies (a.u.)
    -----------------------

    Doubly Occupied:

       1A    -20.602395     2A    -20.548617     3A    -11.380349
       4A    -11.272932     5A    -11.254773     6A    -11.254429
       7A    -11.250668     8A    -11.249221     9A    -11.247978
      10A    -11.246288    11A     -1.469338    12A     -1.370555
      13A     -1.179116    14A     -1.065662    15A     -1.045269
      16A     -1.001663    17A     -0.882055    18A     -0.872844
      19A     -0.801763    20A     -0.744074    21A     -0.726491
      22A     -0.678995    23A     -0.668915    24A     -0.651708
      25A     -0.629528    26A     -0.618122    27A     -0.564338
      28A     -0.560019    29A     -0.556967    30A     -0.524448
      31A     -0.517448    32A     -0.478910    33A     -0.444680
      34A     -0.417480    35A     -0.352977    36A     -0.350218

  @DF-RHF Final Energy:  -457.19085342717216

   => Energetics <=

    Nuclear Repulsion Energy =            506.5995146885582585
    One-Electron Energy =               -1626.6183940715925473
    Two-Electron Energy =                 662.8280259558632679
    DFT Exchange-Correlation Energy =       0.0000000000000000
    Empirical Dispersion Energy =           0.0000000000000000
    PCM Polarization Energy =               0.0000000000000000
    EFP Energy =                            0.0000000000000000
    Total Energy =                       -457.1908534271710778

  Mulliken Charges: (a.u.)
   Center  Symbol    Alpha    Beta     Spin     Total
       1     H     0.39386  0.39386  0.00000  0.21227
       2     C     3.08993  3.08993  0.00000 -0.17987
       3     C     3.10526  3.10526  0.00000 -0.21052
       4     C     3.10651  3.10651  0.00000 -0.21302
       5     H     0.39276  0.39276  0.00000  0.21448
       6     C     3.08417  3.08417  0.00000 -0.16835
       7     H     0.39535  0.39535  0.00000  0.20931
       8     C     3.11014  3.11014  0.00000 -0.22027
       9     H     0.37261  0.37261  0.00000  0.25478
      10     C     3.08204  3.08204  0.00000 -0.16409
      11     H     0.36630  0.36630  0.00000  0.26741
      12     C     2.57818  2.57818  0.00000  0.84363
      13     O     4.30920  4.30920  0.00000 -0.61840
      14     O     4.27105  4.27105  0.00000 -0.54210
      15     C     3.09516  3.09516  0.00000 -0.19033
      16     H     0.40866  0.40866  0.00000  0.18267
      17     H     0.40376  0.40376  0.00000  0.19248
      18     H     0.43505  0.43505  0.00000  0.12990

   Total alpha = 36.00000, Total beta = 36.00000, Total charge = -0.00000
