  ==> Input File <==

--------------------------------------------------------------------------
set {
	reference rhf
	basis 6-31G*
}

set_num_threads( 1 )
memory 2 gb

molecule MOL {
0 1

O	 1.631698	 1.670088	 0.488540
C	 1.064989	 1.228418	 1.435581
C	 -0.245748	 0.480817	 1.405128
O	 1.528182	 1.336168	 2.674523
C	 -0.823008	 0.326187	 0.001381
H	 -0.078639	 -0.486562	 1.870925
H	 -0.935460	 1.008025	 2.058632
C	 -2.149452	 -0.435131	 -0.000098
H	 -0.102188	 -0.187247	 -0.627103
H	 -0.960965	 1.308789	 -0.438812
C	 -3.368779	 0.488503	 -0.000883
H	 -2.193746	 -1.087250	 -0.871175
H	 -2.195311	 -1.087803	 0.870418
C	 -4.693822	 -0.272754	 -0.001129
H	 -3.325798	 1.139422	 -0.871284
H	 -3.326423	 1.139959	 0.869145
H	 -4.781274	 -0.907928	 -0.878124
H	 -5.538651	 0.408946	 -0.001420
H	 -4.781694	 -0.907783	 0.875984
C	 2.757928	 2.017338	 2.843892
H	 3.547412	 1.516753	 2.301989
H	 2.961773	 1.999419	 3.903138
H	 2.678883	 3.036892	 2.494938

	symmetry c1
}
set optking {
	frozen_dihedral = ("
		15 11 8 12,
		1 2 3 6,
		9 5 3 6,
		1 2 4 20
	")
}

ee = energy('scf')
oeprop('DIPOLE', 'QUADRUPOLE', 'MULLIKEN_CHARGES')
f=open( 'psi4out.xyz', 'w' )
f.write( "23  " )
f.write( str(ee) + "\n" )
f.write( MOL.save_string_xyz() )
f.close()
--------------------------------------------------------------------------

    Molecular point group: c1

    Geometry (in Angstrom), charge = 0, multiplicity = 1:

       Center              X                  Y                   Z               Mass
    ------------   -----------------  -----------------  -----------------  -----------------
           O          2.078538722650     0.893505366184    -0.514132524602    15.994914619560
           C          1.511829722650     0.451835366184     0.432908475398    12.000000000000
           C          0.201092722650    -0.295765633816     0.402455475398    12.000000000000
           O          1.975022722650     0.559585366184     1.671850475398    15.994914619560
           C         -0.376167277350    -0.450395633816    -1.001291524602    12.000000000000
           H          0.368201722650    -1.263144633816     0.868252475398     1.007825032070
           H         -0.488619277350     0.231442366184     1.055959475398     1.007825032070
           C         -1.702611277350    -1.211713633816    -1.002770524602    12.000000000000
           H          0.344652722650    -0.963829633816    -1.629775524602     1.007825032070
           H         -0.514124277350     0.532206366184    -1.441484524602     1.007825032070
           C         -2.921938277350    -0.288079633816    -1.003555524602    12.000000000000
           H         -1.746905277350    -1.863832633816    -1.873847524602     1.007825032070
           H         -1.748470277350    -1.864385633816    -0.132254524602     1.007825032070
           C         -4.246981277350    -1.049336633816    -1.003801524602    12.000000000000
           H         -2.878957277350     0.362839366184    -1.873956524602     1.007825032070
           H         -2.879582277350     0.363376366184    -0.133527524602     1.007825032070
           H         -4.334433277350    -1.684510633816    -1.880796524602     1.007825032070
           H         -5.091810277350    -0.367636633816    -1.004092524602     1.007825032070
           H         -4.334853277350    -1.684365633816    -0.126688524602     1.007825032070
           C          3.204768722650     1.240755366184     1.841219475398    12.000000000000
           H          3.994252722650     0.740170366184     1.299316475398     1.007825032070
           H          3.408613722650     1.222836366184     2.900465475398     1.007825032070
           H          3.125723722650     2.260309366184     1.492265475398     1.007825032070

  Charge       = 0
  Multiplicity = 1
  Basis Set: 6-31G*
  Basis Set:

    Orbital Energies (a.u.)
    -----------------------

    Doubly Occupied:

       1A    -20.603520     2A    -20.545361     3A    -11.371961
       4A    -11.280778     5A    -11.235676     6A    -11.218128
       7A    -11.217937     8A    -11.216622     9A    -11.210133
      10A     -1.469224    11A     -1.362656    12A     -1.094396
      13A     -1.042610    14A     -0.987012    15A     -0.932330
      16A     -0.846564    17A     -0.794018    18A     -0.766931
      19A     -0.701209    20A     -0.682228    21A     -0.672521
      22A     -0.632376    23A     -0.625810    24A     -0.598820
      25A     -0.574000    26A     -0.558860    27A     -0.556017
      28A     -0.528508    29A     -0.520932    30A     -0.499577
      31A     -0.495775    32A     -0.471239    33A     -0.464762
      34A     -0.457902    35A     -0.450902    36A     -0.436047

  @DF-RHF Final Energy:  -422.97220534255467

   => Energetics <=

    Nuclear Repulsion Energy =            455.9841743488051975
    One-Electron Energy =               -1479.6660715650198199
    Two-Electron Energy =                 600.7096918736597218
    DFT Exchange-Correlation Energy =       0.0000000000000000
    Empirical Dispersion Energy =           0.0000000000000000
    PCM Polarization Energy =               0.0000000000000000
    EFP Energy =                            0.0000000000000000
    Total Energy =                       -422.9722053425548438

  Mulliken Charges: (a.u.)
   Center  Symbol    Alpha    Beta     Spin     Total
       1     O     4.28592  4.28592  0.00000 -0.57184
       2     C     2.60546  2.60546  0.00000  0.78908
       3     C     3.20942  3.20942  0.00000 -0.41884
       4     O     4.30735  4.30735  0.00000 -0.61470
       5     C     3.15524  3.15524  0.00000 -0.31047
       6     H     0.40015  0.40015  0.00000  0.19970
       7     H     0.40052  0.40052  0.00000  0.19895
       8     C     3.15694  3.15694  0.00000 -0.31388
       9     H     0.40932  0.40932  0.00000  0.18136
      10     H     0.41006  0.41006  0.00000  0.17987
      11     C     3.15304  3.15304  0.00000 -0.30608
      12     H     0.41825  0.41825  0.00000  0.16351
      13     H     0.42341  0.42341  0.00000  0.15317
      14     C     3.23975  3.23975  0.00000 -0.47950
      15     H     0.42017  0.42017  0.00000  0.15965
      16     H     0.42421  0.42421  0.00000  0.15158
      17     H     0.42098  0.42098  0.00000  0.15804
      18     H     0.41879  0.41879  0.00000  0.16242
      19     H     0.42191  0.42191  0.00000  0.15619
      20     C     3.09246  3.09246  0.00000 -0.18491
      21     H     0.40905  0.40905  0.00000  0.18189
      22     H     0.40848  0.40848  0.00000  0.18304
      23     H     0.40911  0.40911  0.00000  0.18177

   Total alpha = 36.00000, Total beta = 36.00000, Total charge = -0.00000
