  ==> Input File <==

--------------------------------------------------------------------------
set {
	reference rhf
	basis 6-31G*
}

set_num_threads( 4 )
memory 2 gb

molecule MOL {
0 1

H	 2.866480	 -0.465706	 0.876907
C	 2.405773	 -0.024801	 0.000000
N	 0.988830	 -0.304158	 0.000000
H	 2.866480	 -0.465706	 -0.876907
H	 2.629928	 1.045948	 0.000000
C	 0.689801	 -1.648038	 0.458842
C	 0.375903	 -0.055895	 -1.291764
H	 1.139565	 -2.405027	 -0.191680
H	 1.100576	 -1.782560	 1.454540
C	 -0.815520	 -1.854061	 0.498227
H	 0.556826	 0.975423	 -1.577939
H	 0.802792	 -0.696865	 -2.069852
C	 -1.121095	 -0.304139	 -1.205955
H	 -1.055490	 -2.878126	 0.752631
H	 -1.254083	 -1.198023	 1.248059
O	 -1.388232	 -1.602004	 -0.754139
H	 -1.581473	 -0.210257	 -2.180765
H	 -1.574034	 0.424821	 -0.536303

	symmetry c1
}
set optking {
	frozen_dihedral = ("
		6 3 2 5
	")
}

ee = optimize('scf')
oeprop('DIPOLE', 'QUADRUPOLE', 'MULLIKEN_CHARGES')
f=open( 'psi4out.xyz', 'w' )
f.write( "18  " )
f.write( str(ee) + "\n" )
f.write( MOL.save_string_xyz() )
f.close()
--------------------------------------------------------------------------

    Molecular point group: c1
  Charge       = 0
  Multiplicity = 1
  Basis Set: 6-31G*
  Basis Set:
  @DF-RHF Final Energy:  -325.02667272214097
    Total Energy =                       -325.0266727221410292
    Molecular point group: c1
  Basis Set: 6-31G*
  Basis Set:
  Basis Set: 6-31G*
  Basis Set:
  @DF-RHF Final Energy:  -325.02757956473170
    Total Energy =                       -325.0275795647315817
  Basis Set: 6-31G*
  Basis Set:
  Basis Set: 6-31G*
  Basis Set:
  @DF-RHF Final Energy:  -325.02768302784608
    Total Energy =                       -325.0276830278460238
  Basis Set: 6-31G*
  Basis Set:
  Basis Set: 6-31G*
  Basis Set:
  @DF-RHF Final Energy:  -325.02768454315981
    Total Energy =                       -325.0276845431594666
  Basis Set: 6-31G*
  Basis Set:
  Charge       = 0
  Multiplicity = 1
  Basis Set: 6-31G*
  Basis Set:

    Orbital Energies (a.u.)
    -----------------------

    Doubly Occupied:

       1A    -20.553931     2A    -15.547996     3A    -11.266101
       4A    -11.266065     5A    -11.244213     6A    -11.243961
       7A    -11.240966     8A     -1.383223     9A     -1.231117
      10A     -1.038647    11A     -0.981192    12A     -0.883121
      13A     -0.869032    14A     -0.773773    15A     -0.683406
      16A     -0.645646    17A     -0.643370    18A     -0.633580
      19A     -0.628416    20A     -0.571386    21A     -0.556879
      22A     -0.542794    23A     -0.526656    24A     -0.501535
      25A     -0.484717    26A     -0.452391    27A     -0.407965
      28A     -0.350127

  @DF-RHF Final Energy:  -325.02768461620974

   => Energetics <=

    Nuclear Repulsion Energy =            341.3275613874913006
    One-Electron Energy =               -1118.4060799752501225
    Two-Electron Energy =                 452.0508339715492525
    DFT Exchange-Correlation Energy =       0.0000000000000000
    Empirical Dispersion Energy =           0.0000000000000000
    PCM Polarization Energy =               0.0000000000000000
    EFP Energy =                            0.0000000000000000
    Total Energy =                       -325.0276846162095694
    Molecular point group: c1
  Basis Set: 6-31G*
  Basis Set:

  -Total Gradient:
     Atom            X                  Y                   Z
    ------   -----------------  -----------------  -----------------
       1        0.000011985794    -0.000003119452     0.000001818666
       2       -0.000024792955     0.000323471974    -0.003265354045
       3        0.000289288346    -0.001327823230    -0.002611292581
       4        0.000004111166     0.000009875657     0.000026065653
       5       -0.000031224424     0.000036038639     0.003361279178
       6       -0.000211850767     0.000913068805     0.002475564482
       7       -0.000030518905     0.000069300577     0.000019039881
       8       -0.000002825689     0.000013041082     0.000001315477
       9       -0.000003090618    -0.000007211109    -0.000001953604
      10       -0.000007872737    -0.000020246405     0.000001371252
      11       -0.000003859889    -0.000003200707    -0.000005760648
      12        0.000011497969    -0.000004463747     0.000015848705
      13       -0.000012564650     0.000009692559    -0.000014702475
      14       -0.000013446544    -0.000006920895    -0.000000344007
      15        0.000011540861    -0.000000953440    -0.000005295692
      16        0.000019592635     0.000002953457     0.000009334377
      17       -0.000012265231    -0.000002888070    -0.000003832424
      18        0.000006295639    -0.000000615697    -0.000003102194

  **** Optimization is complete! (in 5 steps) ****
    Final optimized geometry and variables:
    Molecular point group: c1

    Geometry (in Angstrom), charge = 0, multiplicity = 1:

    H            2.692623111154     0.438287520440     1.242230952591
    C            2.247731516222     0.808562875450     0.325547834554
    N            0.834941672361     0.506437799713     0.318619438320
    H            2.788643055801     0.363996996892    -0.513522149817
    H            2.397236439433     1.883123890547     0.312967632750
    C            0.525061913140    -0.830276169359     0.787928764601
    C            0.210415440217     0.778092925815    -0.960413589943
    H            0.960911124253    -1.600868259273     0.143620858220
    H            0.936400578752    -0.960316949808     1.783469123520
    C           -0.982899139341    -1.016181746120     0.835224748384
    H            0.398972573343     1.811671344925    -1.234247769197
    H            0.624113524141     0.144702817243    -1.751788582746
    C           -1.287735568154     0.541841534645    -0.862702553089
    H           -1.235928585929    -2.036547614285     1.092078010293
    H           -1.407709006907    -0.353015256651     1.586659606819
    O           -1.559789957668    -0.756115906374    -0.413720749873
    H           -1.756737857714     0.643748147620    -1.832637374840
    H           -1.728996938240     1.270506256826    -0.185113370954

  Mulliken Charges: (a.u.)
   Center  Symbol    Alpha    Beta     Spin     Total
       1     H     0.41770  0.41770  0.00000  0.16459
       2     C     3.13909  3.13909  0.00000 -0.27818
       3     N     3.79072  3.79072  0.00000 -0.58144
       4     H     0.43121  0.43121  0.00000  0.13757
       5     H     0.41513  0.41513  0.00000  0.16975
       6     C     3.06604  3.06604  0.00000 -0.13208
       7     C     3.06624  3.06624  0.00000 -0.13247
       8     H     0.42882  0.42882  0.00000  0.14236
       9     H     0.41697  0.41697  0.00000  0.16607
      10     C     2.99799  2.99799  0.00000  0.00402
      11     H     0.41697  0.41697  0.00000  0.16605
      12     H     0.42840  0.42840  0.00000  0.14320
      13     C     2.99769  2.99769  0.00000  0.00463
      14     H     0.41331  0.41331  0.00000  0.17337
      15     H     0.42417  0.42417  0.00000  0.15166
      16     O     4.31211  4.31211  0.00000 -0.62422
      17     H     0.41330  0.41330  0.00000  0.17340
      18     H     0.42414  0.42414  0.00000  0.15171

   Total alpha = 28.00000, Total beta = 28.00000, Total charge =  0.00000
