  ==> Input File <==

--------------------------------------------------------------------------
set {
	reference rhf
	basis 6-31G*
}

set_num_threads( 4 )
memory 2 gb

molecule MOL {
0 1

H	 1.539508	 1.104174	 1.146005
O	 0.741404	 0.588091	 1.204477
C	 0.489431	 0.077273	 0.000046
C	 -0.764129	 -0.759190	 0.000191
O	 1.193372	 0.281246	 -0.934527
C	 -2.038368	 0.075731	 -0.000248
H	 -0.717284	 -1.412404	 -0.866059
H	 -0.717458	 -1.411724	 0.866967
H	 -2.086483	 0.712501	 -0.875098
H	 -2.908485	 -0.571682	 -0.000042
H	 -2.086576	 0.713280	 0.874068

	symmetry c1
}
set optking {
	frozen_dihedral = ("
		2 3 4 7
	")
}

ee = optimize('scf')
oeprop('DIPOLE', 'QUADRUPOLE', 'MULLIKEN_CHARGES')
f=open( 'psi4out.xyz', 'w' )
f.write( "11  " )
f.write( str(ee) + "\n" )
f.write( MOL.save_string_xyz() )
f.close()
--------------------------------------------------------------------------

    Molecular point group: c1
  Charge       = 0
  Multiplicity = 1
  Basis Set: 6-31G*
  Basis Set:
  @DF-RHF Final Energy:  -266.84393861236254
    Total Energy =                       -266.8439386123624786
    Molecular point group: c1
  Basis Set: 6-31G*
  Basis Set:
  Basis Set: 6-31G*
  Basis Set:
  @DF-RHF Final Energy:  -266.84432347079598
    Total Energy =                       -266.8443234707959846
  Basis Set: 6-31G*
  Basis Set:
  Basis Set: 6-31G*
  Basis Set:
  @DF-RHF Final Energy:  -266.84372641345527
    Total Energy =                       -266.8437264134549878
  Basis Set: 6-31G*
  Basis Set:
  Basis Set: 6-31G*
  Basis Set:
  @DF-RHF Final Energy:  -266.84439376486000
    Total Energy =                       -266.8443937648598876
  Basis Set: 6-31G*
  Basis Set:
  Basis Set: 6-31G*
  Basis Set:
  @DF-RHF Final Energy:  -266.84439689785501
    Total Energy =                       -266.8443968978546081
  Basis Set: 6-31G*
  Basis Set:
  Charge       = 0
  Multiplicity = 1
  Basis Set: 6-31G*
  Basis Set:

    Orbital Energies (a.u.)
    -----------------------

    Doubly Occupied:

       1A    -20.614177     2A    -20.550711     3A    -11.380871
       4A    -11.242662     5A    -11.231183     6A     -1.474960
       7A     -1.365475     8A     -1.068024     9A     -0.912805
      10A     -0.815768    11A     -0.702154    12A     -0.685340
      13A     -0.639495    14A     -0.617951    15A     -0.591755
      16A     -0.543752    17A     -0.527204    18A     -0.512919
      19A     -0.476096    20A     -0.440805

  @DF-RHF Final Energy:  -266.84439712446135

   => Energetics <=

    Nuclear Repulsion Energy =            179.9896719794645890
    One-Electron Energy =                -720.8799230472372983
    Two-Electron Energy =                 274.0458539433111582
    DFT Exchange-Correlation Energy =       0.0000000000000000
    Empirical Dispersion Energy =           0.0000000000000000
    PCM Polarization Energy =               0.0000000000000000
    EFP Energy =                            0.0000000000000000
    Total Energy =                       -266.8443971244615796
    Molecular point group: c1
  Basis Set: 6-31G*
  Basis Set:

  -Total Gradient:
     Atom            X                  Y                   Z
    ------   -----------------  -----------------  -----------------
       1       -0.000001338328    -0.000005144156    -0.000007097856
       2        0.000225108846    -0.000348053213     0.000113776931
       3       -0.000250402984     0.000382850261    -0.000094670572
       4       -0.000226757606     0.000342424134    -0.000314838046
       5       -0.000013333715    -0.000005410119     0.000005777619
       6        0.000001860033    -0.000003883851     0.000017259827
       7        0.000265472030    -0.000370362689     0.000267203512
       8       -0.000007133104     0.000003425494     0.000004178019
       9        0.000007545873    -0.000006751107     0.000002207692
      10        0.000008891145     0.000000109656    -0.000000812496
      11       -0.000009912193     0.000010795588     0.000007015370

  **** Optimization is complete! (in 6 steps) ****
    Final optimized geometry and variables:
    Molecular point group: c1

    Geometry (in Angstrom), charge = 0, multiplicity = 1:

    H            1.585170445269     1.043484750318     1.060281600818
    O            0.813280129612     0.490937239023     1.136535870269
    C            0.538334564031    -0.005327814930    -0.069443309979
    C           -0.700738219024    -0.861583161665    -0.065295110028
    O            1.204281857889     0.241280915732    -1.021852112830
    C           -1.969812825880     0.000738975971    -0.076467471684
    H           -0.660256354110    -1.494376613224    -0.941564262492
    H           -0.688441340297    -1.489324389320     0.818091553323
    H           -1.998055167660     0.636064256666    -0.954905517554
    H           -2.848941616885    -0.633178557240    -0.091723635757
    H           -2.021712462309     0.629858701256     0.804498176495

  Mulliken Charges: (a.u.)
   Center  Symbol    Alpha    Beta     Spin     Total
       1     H     0.26769  0.26769  0.00000  0.46463
       2     O     4.34744  4.34744  0.00000 -0.69489
       3     C     2.63320  2.63320  0.00000  0.73359
       4     C     3.19749  3.19749  0.00000 -0.39498
       5     O     4.27787  4.27787  0.00000 -0.55573
       6     C     3.25200  3.25200  0.00000 -0.50399
       7     H     0.39698  0.39698  0.00000  0.20605
       8     H     0.40165  0.40165  0.00000  0.19669
       9     H     0.40829  0.40829  0.00000  0.18342
      10     H     0.41023  0.41023  0.00000  0.17954
      11     H     0.40717  0.40717  0.00000  0.18567

   Total alpha = 20.00000, Total beta = 20.00000, Total charge = -0.00000
