  ==> Input File <==

--------------------------------------------------------------------------
set {
	reference rhf
	basis 6-31G*
}

set_num_threads( 4 )
memory 2 gb

molecule MOL {
0 1

H	 0.014252	 2.224685	 4.851987
C	 0.266411	 1.843659	 3.878325
C	 -0.172260	 2.506281	 2.741818
C	 1.028801	 0.691880	 3.763868
H	 -0.763459	 3.399433	 2.831989
C	 0.152368	 2.015749	 1.490228
H	 1.367954	 0.179580	 4.645985
C	 1.354972	 0.199016	 2.512041
H	 -0.178395	 2.515374	 0.599923
C	 0.916850	 0.860808	 1.371058
H	 1.944721	 -0.691950	 2.418787
C	 1.239129	 0.373821	 0.000060
O	 1.970282	 -0.730723	 0.000018
O	 0.881385	 0.914179	 -0.999386
C	 3.377318	 -0.566646	 -0.000065
H	 3.695437	 -0.028981	 -0.881264
H	 3.789299	 -1.563704	 0.000236
H	 3.695516	 -0.028316	 0.880770

	symmetry c1
}
set optking {
	frozen_dihedral = ("
		10 12 13 15
	")
}

ee = optimize('scf')
oeprop('DIPOLE', 'QUADRUPOLE', 'MULLIKEN_CHARGES')
f=open( 'psi4out.xyz', 'w' )
f.write( "18  " )
f.write( str(ee) + "\n" )
f.write( MOL.save_string_xyz() )
f.close()
--------------------------------------------------------------------------

    Molecular point group: c1
  Charge       = 0
  Multiplicity = 1
  Basis Set: 6-31G*
  Basis Set:
  @DF-RHF Final Energy:  -457.32968156160894
    Total Energy =                       -457.3296815616088224
    Molecular point group: c1
  Basis Set: 6-31G*
  Basis Set:
  Basis Set: 6-31G*
  Basis Set:
  @DF-RHF Final Energy:  -457.33120993859166
    Total Energy =                       -457.3312099385916554
  Basis Set: 6-31G*
  Basis Set:
  Basis Set: 6-31G*
  Basis Set:
  @DF-RHF Final Energy:  -457.33033288719531
    Total Energy =                       -457.3303328871961639
  Basis Set: 6-31G*
  Basis Set:
  Basis Set: 6-31G*
  Basis Set:
  @DF-RHF Final Energy:  -457.33145121730684
    Total Energy =                       -457.3314512173066078
  Basis Set: 6-31G*
  Basis Set:
  Basis Set: 6-31G*
  Basis Set:
  @DF-RHF Final Energy:  -457.33146054613735
    Total Energy =                       -457.3314605461376914
  Basis Set: 6-31G*
  Basis Set:
  Charge       = 0
  Multiplicity = 1
  Basis Set: 6-31G*
  Basis Set:

    Orbital Energies (a.u.)
    -----------------------

    Doubly Occupied:

       1A    -20.588204     2A    -20.555691     3A    -11.379598
       4A    -11.291129     5A    -11.250354     6A    -11.250058
       7A    -11.248912     8A    -11.246357     9A    -11.242483
      10A    -11.241398    11A     -1.460758    12A     -1.367736
      13A     -1.169395    14A     -1.046170    15A     -1.029563
      16A     -0.974257    17A     -0.871453    18A     -0.839945
      19A     -0.779377    20A     -0.737487    21A     -0.685284
      22A     -0.675855    23A     -0.662041    24A     -0.639125
      25A     -0.627428    26A     -0.609213    27A     -0.598348
      28A     -0.560145    29A     -0.528558    30A     -0.521199
      31A     -0.504735    32A     -0.493364    33A     -0.462315
      34A     -0.442438    35A     -0.349339    36A     -0.345797

  @DF-RHF Final Energy:  -457.33146123373132

   => Energetics <=

    Nuclear Repulsion Energy =            496.0143954609703201
    One-Electron Energy =               -1606.1406945039054790
    Two-Electron Energy =                 652.7948378092036137
    DFT Exchange-Correlation Energy =       0.0000000000000000
    Empirical Dispersion Energy =           0.0000000000000000
    PCM Polarization Energy =               0.0000000000000000
    EFP Energy =                            0.0000000000000000
    Total Energy =                       -457.3314612337316021
    Molecular point group: c1
  Basis Set: 6-31G*
  Basis Set:

  -Total Gradient:
     Atom            X                  Y                   Z
    ------   -----------------  -----------------  -----------------
       1       -0.000012603195    -0.000002181282    -0.000006004642
       2        0.000001169370     0.000022906366    -0.000016756954
       3       -0.000033764968    -0.000012279158     0.000022561567
       4        0.000062082709     0.000009933388    -0.000024883480
       5        0.000009133011     0.000012340947    -0.000000232998
       6       -0.000002844476    -0.000000745498    -0.000012408388
       7       -0.000010583239    -0.000011105777    -0.000008154853
       8       -0.000048281985    -0.000021992148     0.000029951498
       9       -0.000001796091     0.000006175221     0.000007378943
      10        0.001854606441     0.001439966861    -0.000145804265
      11       -0.000000078034    -0.000001750201    -0.000002774868
      12       -0.002545945146    -0.002207204352     0.001350879330
      13        0.000597986187     0.000681466616    -0.003662857205
      14       -0.000018751817     0.000024985988     0.000000805299
      15        0.000146343900     0.000061325701     0.002468350017
      16       -0.000003917066    -0.000007632931     0.000006734029
      17       -0.000005726427     0.000001704655    -0.000004539846
      18        0.000012970826     0.000004085608    -0.000002243182

  **** Optimization is complete! (in 6 steps) ****
    Final optimized geometry and variables:
    Molecular point group: c1

    Geometry (in Angstrom), charge = 0, multiplicity = 1:

    H           -1.119306839008     1.542566214022     3.450240650579
    C           -0.877737486368     1.133724159924     2.485339963388
    C           -1.248576218064     1.814040366631     1.333871206128
    C           -0.201368363174    -0.071835117247     2.396351212978
    H           -1.775791583511     2.748002802938     1.405544248401
    C           -0.941597797495     1.287380930882     0.093653842905
    H            0.077723021823    -0.601682671824     3.288999923484
    C            0.112100113482    -0.598007709482     1.154056830564
    H           -1.226784524907     1.797394492087    -0.806577679944
    C           -0.253147464988     0.081567153653    -0.001796552741
    H            0.625650559564    -1.537232846912     1.079696564984
    C            0.061686212647    -0.453967581923    -1.357949515032
    O            0.894811337131    -1.517049622066    -1.374837506815
    O           -0.370598915865     0.008152382673    -2.358812723674
    C            2.275081742817    -1.220507045750    -1.460266317045
    H            2.491632065298    -0.695355448347    -2.381960065954
    H            2.792090102468    -2.167289706584    -1.452259317542
    H            2.597841865429    -0.624079893707    -0.614455067983

  Mulliken Charges: (a.u.)
   Center  Symbol    Alpha    Beta     Spin     Total
       1     H     0.39432  0.39432  0.00000  0.21135
       2     C     3.09019  3.09019  0.00000 -0.18038
       3     C     3.10644  3.10644  0.00000 -0.21287
       4     C     3.10605  3.10605  0.00000 -0.21209
       5     H     0.39425  0.39425  0.00000  0.21149
       6     C     3.08539  3.08539  0.00000 -0.17078
       7     H     0.39527  0.39527  0.00000  0.20947
       8     C     3.09335  3.09335  0.00000 -0.18671
       9     H     0.37620  0.37620  0.00000  0.24761
      10     C     3.07593  3.07593  0.00000 -0.15187
      11     H     0.38290  0.38290  0.00000  0.23421
      12     C     2.59607  2.59607  0.00000  0.80787
      13     O     4.32173  4.32173  0.00000 -0.64346
      14     O     4.25805  4.25805  0.00000 -0.51610
      15     C     3.09486  3.09486  0.00000 -0.18972
      16     H     0.40752  0.40752  0.00000  0.18497
      17     H     0.40326  0.40326  0.00000  0.19348
      18     H     0.41822  0.41822  0.00000  0.16355

   Total alpha = 36.00000, Total beta = 36.00000, Total charge = -0.00000
