  ==> Input File <==

--------------------------------------------------------------------------
set {
	reference rhf
	basis 6-31G*
}

set_num_threads( 4 )
memory 2 gb

molecule MOL {
0 1

H	 -1.403499	 -0.402503	 0.560650
N	 -0.626943	 -0.667432	 -0.000092
C	 -0.726792	 -1.882899	 -0.775583
C	 0.469286	 0.129090	 0.000148
H	 -0.885848	 -2.742022	 -0.132455
H	 0.197121	 -2.015510	 -1.314589
H	 -1.544051	 -1.824468	 -1.486712
C	 1.788933	 -0.616240	 -0.000037
O	 0.411098	 1.327768	 -0.000049
H	 1.872803	 -1.245775	 -0.880381
H	 2.595421	 0.101576	 0.003713
H	 1.870096	 -1.252171	 0.875943

	symmetry c1
}
set optking {
	frozen_dihedral = ("
		3 2 4 9
	")
}

ee = optimize('scf')
oeprop('DIPOLE', 'QUADRUPOLE', 'MULLIKEN_CHARGES')
f=open( 'psi4out.xyz', 'w' )
f.write( "12  " )
f.write( str(ee) + "\n" )
f.write( MOL.save_string_xyz() )
f.close()
--------------------------------------------------------------------------

    Molecular point group: c1
  Charge       = 0
  Multiplicity = 1
  Basis Set: 6-31G*
  Basis Set:
  @DF-RHF Final Energy:  -246.98326676274121
    Total Energy =                       -246.9832667627413230
    Molecular point group: c1
  Basis Set: 6-31G*
  Basis Set:
  Basis Set: 6-31G*
  Basis Set:
  @DF-RHF Final Energy:  -246.98931890230176
    Total Energy =                       -246.9893189023019886
  Basis Set: 6-31G*
  Basis Set:
  Basis Set: 6-31G*
  Basis Set:
  @DF-RHF Final Energy:  -246.99462776393818
    Total Energy =                       -246.9946277639384107
  Basis Set: 6-31G*
  Basis Set:
  Basis Set: 6-31G*
  Basis Set:
  @DF-RHF Final Energy:  -246.99671140126682
    Total Energy =                       -246.9967114012666798
  Basis Set: 6-31G*
  Basis Set:
  @DF-RHF Final Energy:  -246.99752037198934
    Total Energy =                       -246.9975203719893670
  @DF-RHF Final Energy:  -246.99832793615468
    Total Energy =                       -246.9983279361547375
  @DF-RHF Final Energy:  -246.99893927429082
    Total Energy =                       -246.9989392742907057
  @DF-RHF Final Energy:  -246.99917651886770
    Total Energy =                       -246.9991765188677277
  Basis Set: 6-31G*
  Basis Set:
  @DF-RHF Final Energy:  -246.99924756950418
    Total Energy =                       -246.9992475695044050
  Basis Set: 6-31G*
  Basis Set:
  Basis Set: 6-31G*
  Basis Set:
  @DF-RHF Final Energy:  -246.99928022745789
    Total Energy =                       -246.9992802274579162
  Basis Set: 6-31G*
  Basis Set:
  Basis Set: 6-31G*
  Basis Set:
  @DF-RHF Final Energy:  -246.99928619718798
    Total Energy =                       -246.9992861971880984
  Basis Set: 6-31G*
  Basis Set:
  Charge       = 0
  Multiplicity = 1
  Basis Set: 6-31G*
  Basis Set:

    Orbital Energies (a.u.)
    -----------------------

    Doubly Occupied:

       1A    -20.527226     2A    -15.576560     3A    -11.346144
       4A    -11.269560     5A    -11.230576     6A     -1.393164
       7A     -1.227715     8A     -1.006927     9A     -0.951696
      10A     -0.775803    11A     -0.674863    12A     -0.666214
      13A     -0.637147    14A     -0.592967    15A     -0.577246
      16A     -0.563020    17A     -0.552632    18A     -0.511468
      19A     -0.421710    20A     -0.390690

  @DF-RHF Final Energy:  -246.99928652351429

   => Energetics <=

    Nuclear Repulsion Energy =            181.3066240213033211
    One-Electron Energy =                -694.8251626404860417
    Two-Electron Energy =                 266.5192520956684348
    DFT Exchange-Correlation Energy =       0.0000000000000000
    Empirical Dispersion Energy =           0.0000000000000000
    PCM Polarization Energy =               0.0000000000000000
    EFP Energy =                            0.0000000000000000
    Total Energy =                       -246.9992865235142290
    Molecular point group: c1
  Basis Set: 6-31G*
  Basis Set:

  -Total Gradient:
     Atom            X                  Y                   Z
    ------   -----------------  -----------------  -----------------
       1       -0.000008910602    -0.000010254372     0.000012226130
       2        0.003352444221    -0.003646264424     0.002096308503
       3       -0.002387542529     0.002499689585    -0.002872289901
       4       -0.000013275635     0.000696620717     0.006035656585
       5       -0.000002567669     0.000001678038     0.000004188121
       6        0.000008842388    -0.000001525070     0.000002148826
       7       -0.000004009203    -0.000005448090    -0.000009105248
       8        0.000003420120     0.000000917805     0.000026229820
       9       -0.000938817276     0.000470359460    -0.005279444095
      10       -0.000008165630    -0.000006536233    -0.000012664949
      11       -0.000004506418    -0.000002835409     0.000002168134
      12        0.000003088230     0.000003597994    -0.000005421926

  **** Optimization is complete! (in 12 steps) ****
    Final optimized geometry and variables:
    Molecular point group: c1

    Geometry (in Angstrom), charge = 0, multiplicity = 1:

    H           -1.683723470555     0.097761382502     0.414049903750
    N           -0.831740435904    -0.408520531441     0.285196975795
    C           -0.973965549955    -1.560300065157    -0.587842829591
    C            0.215433624360     0.476049971523     0.175718925439
    H           -1.854865081759    -2.110715778517    -0.286218924624
    H           -0.124969516094    -2.223033348480    -0.486707564678
    H           -1.079829022045    -1.289239515435    -1.635757418161
    C            1.577609553408    -0.116646307078    -0.109073337285
    O            0.050879425018     1.655015445418     0.302479420485
    H            1.645991637801    -0.419874838680    -1.149578920939
    H            2.324451881444     0.640473729248     0.078915403075
    H            1.769326129662    -0.986672698731     0.507909201608

  Mulliken Charges: (a.u.)
   Center  Symbol    Alpha    Beta     Spin     Total
       1     H     0.31236  0.31236  0.00000  0.37529
       2     N     3.87244  3.87244  0.00000 -0.74489
       3     C     3.15162  3.15162  0.00000 -0.30323
       4     C     2.64484  2.64484  0.00000  0.71031
       5     H     0.40605  0.40605  0.00000  0.18790
       6     H     0.40900  0.40900  0.00000  0.18200
       7     H     0.41654  0.41654  0.00000  0.16691
       8     C     3.29646  3.29646  0.00000 -0.59291
       9     O     4.28832  4.28832  0.00000 -0.57664
      10     H     0.40562  0.40562  0.00000  0.18876
      11     H     0.39186  0.39186  0.00000  0.21628
      12     H     0.40489  0.40489  0.00000  0.19022

   Total alpha = 20.00000, Total beta = 20.00000, Total charge =  0.00000
