                              Psi4 1.0.54 Driver

  ==> Input File <==

--------------------------------------------------------------------------
set {
	reference rhf
	basis cc-pvtz
}

set_num_threads( 4 )
memory 2 gb

molecule MOL {
0 1

O	 1.438758	 3.592921	 -1.658764
C	 0.650692	 3.597641	 -2.547043
C	 -0.615912	 2.766823	 -2.511172
C	 0.862321	 4.441583	 -3.783652
C	 -0.786927	 1.931895	 -1.250031
H	 -1.456138	 3.445186	 -2.641217
H	 -0.617380	 2.133808	 -3.395647
C	 -2.074759	 1.113040	 -1.258742
H	 -0.772135	 2.586161	 -0.385836
H	 0.067479	 1.273705	 -1.140892
C	 -2.258482	 0.271340	 0.000669
H	 -2.927177	 1.779428	 -1.370927
H	 -2.083551	 0.460709	 -2.129172
C	 -3.544441	 -0.550271	 -0.000253
H	 -2.250071	 0.922556	 0.871278
H	 -1.407276	 -0.395668	 0.113258
C	 -4.804551	 0.308747	 0.000556
H	 -3.553737	 -1.201524	 -0.870151
H	 -3.553831	 -1.203282	 0.868313
H	 -4.842050	 0.949078	 -0.874436
H	 -5.698404	 -0.304480	 -0.000254
H	 -4.842277	 0.947103	 0.876982
H	 0.038823	 5.136166	 -3.907959
H	 1.789063	 4.987954	 -3.699869
H	 0.888368	 3.811761	 -4.666085

	symmetry c1
}
set optking {
	frozen_dihedral = ("
		15 11 14 18
	")
}

ee,wfn = optimize('scf', return_wfn=True)
oeprop( wfn, 'DIPOLE', 'QUADRUPOLE', 'MULLIKEN_CHARGES')
f=open( 'psi4out.xyz', 'w' )
f.write( "25  " )
f.write( str(ee) + "\n" )
f.write( MOL.save_string_xyz() )
f.close()
--------------------------------------------------------------------------

    Molecular point group: c1
  Charge       = 0
  Multiplicity = 1
  Basis Set: CC-PVTZ
  Basis Set:
  @DF-RHF Final Energy:  -387.27232385473957
    Total Energy =                       -387.2723238547391702
    Molecular point group: c1
  Basis Set: CC-PVTZ
  Basis Set:
  Basis Set: CC-PVTZ
  Basis Set:
  @DF-RHF Final Energy:  -387.27229500645421
    Total Energy =                       -387.2722950064544420
  Basis Set: CC-PVTZ
  Basis Set:
  Basis Set: CC-PVTZ
  Basis Set:
  @DF-RHF Final Energy:  -387.27292186337854
    Total Energy =                       -387.2729218633787696
  Basis Set: CC-PVTZ
  Basis Set:
  Basis Set: CC-PVTZ
  Basis Set:
  @DF-RHF Final Energy:  -387.27294659659361
    Total Energy =                       -387.2729465965937834
  Basis Set: CC-PVTZ
  Basis Set:
  Basis Set: CC-PVTZ
  Basis Set:
  @DF-RHF Final Energy:  -387.27294858692056
    Total Energy =                       -387.2729485869201653
  Basis Set: CC-PVTZ
  Basis Set:
  Basis Set: CC-PVTZ
  Basis Set:
  @DF-RHF Final Energy:  -387.27294463112628
    Total Energy =                       -387.2729446311263928
  Basis Set: CC-PVTZ
  Basis Set:
  Charge       = 0
  Multiplicity = 1
  Basis Set: CC-PVTZ
  Basis Set:

    Orbital Energies (a.u.)
    -----------------------

    Doubly Occupied:

       1A    -20.538856     2A    -11.320490     3A    -11.230137
       4A    -11.226573     5A    -11.215034     6A    -11.214347
       7A    -11.213982     8A    -11.211852     9A    -11.207049
      10A     -1.398898    11A     -1.095129    12A     -1.057015
      13A     -1.014648    14A     -0.968202    15A     -0.896504
      16A     -0.823900    17A     -0.779885    18A     -0.730621
      19A     -0.659743    20A     -0.655034    21A     -0.627953
      22A     -0.622296    23A     -0.610099    24A     -0.591282
      25A     -0.567269    26A     -0.557811    27A     -0.542747
      28A     -0.521680    29A     -0.514968    30A     -0.495555
      31A     -0.490910    32A     -0.477356    33A     -0.462149
      34A     -0.456845    35A     -0.452428    36A     -0.401432

  @DF-RHF Final Energy:  -387.27294927182589

   => Energetics <=

    Nuclear Repulsion Energy =            443.1756529456314979
    One-Electron Energy =               -1403.1958556991771729
    Two-Electron Energy =                 572.7472534817195537
    DFT Exchange-Correlation Energy =       0.0000000000000000
    Empirical Dispersion Energy =           0.0000000000000000
    PCM Polarization Energy =               0.0000000000000000
    EFP Energy =                            0.0000000000000000
    Total Energy =                       -387.2729492718260644
    Molecular point group: c1
  Basis Set: CC-PVTZ
  Basis Set:

  -Total Gradient:
     Atom            X                  Y                   Z
    ------   -----------------  -----------------  -----------------
       1       -0.000004767767     0.000018108220     0.000016145937
       2        0.000027331812    -0.000053890371    -0.000035447926
       3       -0.000003770646     0.000015762958     0.000004870642
       4       -0.000011454234     0.000015539386     0.000010659923
       5        0.000004524472    -0.000012047392     0.000001704776
       6       -0.000005356391    -0.000000946254     0.000001030469
       7        0.000001799221    -0.000000435182    -0.000002176837
       8       -0.000002187628    -0.000002175927     0.000018384784
       9       -0.000004377735     0.000001196073     0.000000543220
      10        0.000006768040     0.000002760403     0.000002352534
      11       -0.000001912995    -0.000016679332     0.000010285395
      12       -0.000026447506     0.000003459484     0.000003032992
      13        0.000002901107    -0.000000369835    -0.000013675685
      14        0.000005940971    -0.000008556056     0.000015515235
      15       -0.000004354321     0.000026511321     0.000006045501
      16        0.000002446894    -0.000005651179    -0.000008145591
      17        0.000021999205     0.000019857894    -0.000001670481
      18       -0.000006401302    -0.000009066444    -0.000024139445
      19        0.000008364306     0.000008608619    -0.000002277230
      20        0.000007065476     0.000014300743    -0.000002798990
      21       -0.000017185064    -0.000025499250     0.000000702682
      22       -0.000000811860     0.000005822520    -0.000000251990
      23       -0.000001535120     0.000004763534    -0.000004189008
      24        0.000001700678     0.000001453012     0.000001077815
      25       -0.000000279618    -0.000002826942     0.000002421275

  **** Optimization is complete! (in 7 steps) ****
    Final optimized geometry and variables:
    Molecular point group: c1

    Geometry (in Angstrom), charge = 0, multiplicity = 1:

    O            2.717730492713     1.607184280080    -0.229934983847
    C            1.918448748212     1.646842446930    -1.107174938091
    C            0.629997876244     0.850356023308    -1.066546512337
    C            2.136443403301     2.503805487012    -2.333774306948
    C            0.452645581192     0.001405323285     0.184303889058
    H           -0.192687993083     1.553498171968    -1.175270754449
    H            0.599655863553     0.231092514334    -1.960227324694
    C           -0.856800374877    -0.783273505782     0.180344754951
    H            0.495079810900     0.642250582733     1.057702362515
    H            1.290878440020    -0.680139444180     0.273164421834
    C           -1.037949454222    -1.634710772463     1.435448616055
    H           -1.686780988246    -0.090300982170     0.079578530829
    H           -0.889743962594    -1.428367638611    -0.695386596006
    C           -2.294871516926    -2.506325760287     1.445127989151
    H           -1.044620938070    -0.987446285763     2.309315451617
    H           -0.170514258804    -2.279582769147     1.544176599894
    C           -3.609324799940    -1.730908779706     1.491599214545
    H           -2.289140376287    -3.153720249394     0.571991447401
    H           -2.248891048272    -3.163446762752     2.308015683919
    H           -3.756200514882    -1.126685542873     0.604405249345
    H           -4.452515625155    -2.408147793767     1.566301436411
    H           -3.640739524732    -1.069446848703     2.351523793807
    H            1.330334097141     3.221925510494    -2.436343646115
    H            3.078568385707     3.023993854664    -2.254510299724
    H            2.133922826252     1.887062865617    -3.225778922389

  Mulliken Charges: (a.u.)
   Center  Symbol    Alpha    Beta     Spin     Total
       1     O     4.17086  4.17086  0.00000 -0.34171
       2     C     2.86220  2.86220  0.00000  0.27560
       3     C     3.11329  3.11329  0.00000 -0.22658
       4     C     3.15127  3.15127  0.00000 -0.30254
       5     C     3.08186  3.08186  0.00000 -0.16372
       6     H     0.44578  0.44578  0.00000  0.10845
       7     H     0.44566  0.44566  0.00000  0.10868
       8     C     3.09325  3.09325  0.00000 -0.18649
       9     H     0.44602  0.44602  0.00000  0.10796
      10     H     0.44562  0.44562  0.00000  0.10877
      11     C     3.09514  3.09514  0.00000 -0.19028
      12     H     0.45412  0.45412  0.00000  0.09176
      13     H     0.45610  0.45610  0.00000  0.08779
      14     C     3.09055  3.09055  0.00000 -0.18111
      15     H     0.45270  0.45270  0.00000  0.09459
      16     H     0.44842  0.44842  0.00000  0.10316
      17     C     3.15250  3.15250  0.00000 -0.30501
      18     H     0.45515  0.45515  0.00000  0.08970
      19     H     0.44796  0.44796  0.00000  0.10409
      20     H     0.45469  0.45469  0.00000  0.09063
      21     H     0.44630  0.44630  0.00000  0.10741
      22     H     0.45443  0.45443  0.00000  0.09114
      23     H     0.45039  0.45039  0.00000  0.09922
      24     H     0.43536  0.43536  0.00000  0.12927
      25     H     0.45039  0.45039  0.00000  0.09923

   Total alpha = 36.00000, Total beta = 36.00000, Total charge = -0.00000

*** Psi4 exiting successfully. Buy a developer a beer!
