  ==> Input File <==

--------------------------------------------------------------------------
set {
	reference rhf
	basis 6-31G*
}

set_num_threads( 4 )
memory 2 gb

molecule MOL {
0 1

H	 1.136379	 0.211822	 1.465562
C	 1.135357	 0.094285	 0.374742
C	 0.065331	 0.871482	 -0.349150
O	 1.941633	 -0.601957	 -0.151457
C	 0.216620	 0.794694	 -1.875157
H	 0.091691	 1.897052	 0.000743
H	 -0.893991	 0.443438	 -0.061678
C	 1.472569	 1.495913	 -2.394105
H	 -0.661519	 1.240912	 -2.330977
H	 0.222686	 -0.247976	 -2.185707
H	 1.469670	 2.547504	 -2.124523
H	 1.533259	 1.428831	 -3.475370
H	 2.377454	 1.056015	 -1.985372

	symmetry c1
}
set optking {
	frozen_dihedral = ("
		6 3 2 4
	")
}

ee = optimize('scf')
oeprop('DIPOLE', 'QUADRUPOLE', 'MULLIKEN_CHARGES')
f=open( 'psi4out.xyz', 'w' )
f.write( "13  " )
f.write( str(ee) + "\n" )
f.write( MOL.save_string_xyz() )
f.close()
--------------------------------------------------------------------------

    Molecular point group: c1
  Charge       = 0
  Multiplicity = 1
  Basis Set: 6-31G*
  Basis Set:
  @DF-RHF Final Energy:  -230.98508214309427
    Total Energy =                       -230.9850821430944734
    Molecular point group: c1
  Basis Set: 6-31G*
  Basis Set:
  Basis Set: 6-31G*
  Basis Set:
  @DF-RHF Final Energy:  -230.98561614371084
    Total Energy =                       -230.9856161437109279
  Basis Set: 6-31G*
  Basis Set:
  Basis Set: 6-31G*
  Basis Set:
  @DF-RHF Final Energy:  -230.98406573451445
    Total Energy =                       -230.9840657345144450
  Basis Set: 6-31G*
  Basis Set:
  Basis Set: 6-31G*
  Basis Set:
  @DF-RHF Final Energy:  -230.98602236743449
    Total Energy =                       -230.9860223674344013
  Basis Set: 6-31G*
  Basis Set:
  Basis Set: 6-31G*
  Basis Set:
  @DF-RHF Final Energy:  -230.98604210049328
    Total Energy =                       -230.9860421004932505
  Basis Set: 6-31G*
  Basis Set:
  Basis Set: 6-31G*
  Basis Set:
  @DF-RHF Final Energy:  -230.98605850146780
    Total Energy =                       -230.9860585014677667
  Basis Set: 6-31G*
  Basis Set:
  Charge       = 0
  Multiplicity = 1
  Basis Set: 6-31G*
  Basis Set:

    Orbital Energies (a.u.)
    -----------------------

    Doubly Occupied:

       1A    -20.565124     2A    -11.329779     3A    -11.238279
       4A    -11.224927     5A    -11.209377     6A     -1.405378
       7A     -1.077569     8A     -0.972447     9A     -0.849892
      10A     -0.765526    11A     -0.686261    12A     -0.639653
      13A     -0.623439    14A     -0.582397    15A     -0.564983
      16A     -0.520358    17A     -0.495304    18A     -0.483578
      19A     -0.481225    20A     -0.412222

  @DF-RHF Final Energy:  -230.98605917850830

   => Energetics <=

    Nuclear Repulsion Energy =            176.3902388479075398
    One-Electron Energy =                -662.4971652139233811
    Two-Electron Energy =                 255.1208671875075709
    DFT Exchange-Correlation Energy =       0.0000000000000000
    Empirical Dispersion Energy =           0.0000000000000000
    PCM Polarization Energy =               0.0000000000000000
    EFP Energy =                            0.0000000000000000
    Total Energy =                       -230.9860591785082704
    Molecular point group: c1
  Basis Set: 6-31G*
  Basis Set:

  -Total Gradient:
     Atom            X                  Y                   Z
    ------   -----------------  -----------------  -----------------
       1       -0.000016682286    -0.000001144726    -0.000008085564
       2       -0.000069962808    -0.000055541945    -0.000020649283
       3       -0.000010972273    -0.000010363344     0.000025495717
       4        0.000053500247     0.000064419763    -0.000038027265
       5        0.000002006053     0.000020405636     0.000031359403
       6        0.000059881034     0.000017887968    -0.000065870596
       7       -0.000015953299     0.000003585491    -0.000012671071
       8        0.000041056210    -0.000035174185     0.000045109670
       9       -0.000027665443    -0.000005430219     0.000027443559
      10        0.000011658909    -0.000005877156     0.000011091494
      11       -0.000005399357     0.000001035858    -0.000002431266
      12       -0.000016528613    -0.000007425665     0.000009670263
      13       -0.000004938377     0.000013622525    -0.000002435064

  **** Optimization is complete! (in 7 steps) ****
    Final optimized geometry and variables:
    Molecular point group: c1

    Geometry (in Angstrom), charge = 0, multiplicity = 1:

    H            0.078297092011    -0.336246944886     2.374558456219
    C            0.130476046685    -0.454096512894     1.286061185742
    C           -0.879871686502     0.357588832073     0.513816152178
    O            0.928193892292    -1.192365468074     0.805159485091
    C           -0.744600347561     0.276712225846    -1.006313606917
    H           -0.813787724287     1.387762039856     0.861662906943
    H           -1.860987685218     0.006967264916     0.834449070709
    C            0.474676335734     1.021277965391    -1.550681703199
    H           -1.645563239518     0.689660644551    -1.451246513151
    H           -0.697699934004    -0.765688529788    -1.301731440240
    H            0.436791301515     2.075828347663    -1.289594393082
    H            0.513230303574     0.952566240609    -2.633102001519
    H            1.395473707584     0.607009775732    -1.158587415838

  Mulliken Charges: (a.u.)
   Center  Symbol    Alpha    Beta     Spin     Total
       1     H     0.42776  0.42776  0.00000  0.14448
       2     C     2.83491  2.83491  0.00000  0.33018
       3     C     3.21364  3.21364  0.00000 -0.42729
       4     O     4.23806  4.23806  0.00000 -0.47611
       5     C     3.15118  3.15118  0.00000 -0.30237
       6     H     0.40890  0.40890  0.00000  0.18219
       7     H     0.40489  0.40489  0.00000  0.19022
       8     C     3.24527  3.24527  0.00000 -0.49054
       9     H     0.41884  0.41884  0.00000  0.16233
      10     H     0.40789  0.40789  0.00000  0.18423
      11     H     0.42531  0.42531  0.00000  0.14938
      12     H     0.41758  0.41758  0.00000  0.16483
      13     H     0.40577  0.40577  0.00000  0.18846

   Total alpha = 20.00000, Total beta = 20.00000, Total charge =  0.00000
