  ==> Input File <==

--------------------------------------------------------------------------
set {
	reference rhf
	basis cc-pvtz
}

set_num_threads( 4 )
memory 2 gb

molecule MOL {
0 1

H	 2.614283	 2.028610	 0.296620
O	 3.358864	 1.662087	 -0.142800
C	 3.565468	 0.338079	 0.273842
C	 2.533667	 -0.637565	 -0.272227
H	 4.548038	 0.064914	 -0.086598
H	 3.593945	 0.282242	 1.360360
C	 1.114816	 -0.402372	 0.240993
H	 2.544552	 -0.580764	 -1.356576
H	 2.850574	 -1.642962	 -0.005497
C	 0.113298	 -1.420414	 -0.302504
H	 0.796373	 0.598427	 -0.031033
H	 1.113377	 -0.446476	 1.328807
C	 -1.241343	 -1.437175	 0.408076
H	 -0.040289	 -1.238611	 -1.363440
H	 0.552867	 -2.411121	 -0.226681
C	 -2.087659	 -0.179904	 0.216342
H	 -1.805778	 -2.291931	 0.045677
H	 -1.086431	 -1.607668	 1.471132
C	 -3.467735	 -0.284896	 0.860373
H	 -2.203763	 0.014458	 -0.847712
H	 -1.573717	 0.683022	 0.628926
C	 -4.313950	 0.970133	 0.674052
H	 -3.994197	 -1.138951	 0.443236
H	 -3.353575	 -0.487490	 1.921969
H	 -4.473495	 1.181924	 -0.378055
H	 -5.286572	 0.861205	 1.140151
H	 -3.831847	 1.836693	 1.114510

	symmetry c1
}
set optking {
	frozen_dihedral = ("
		14 10 7 4
	")
}

ee = optimize('scf')
oeprop('DIPOLE', 'QUADRUPOLE', 'MULLIKEN_CHARGES')
f=open( 'psi4out.xyz', 'w' )
f.write( "27  " )
f.write( str(ee) + "\n" )
f.write( MOL.save_string_xyz() )
f.close()
--------------------------------------------------------------------------

    Molecular point group: c1
  Charge       = 0
  Multiplicity = 1
  Basis Set: CC-PVTZ
  Basis Set:
  @DF-RHF Final Energy:  -388.42743492469589
    Total Energy =                       -388.4274349246956035
    Molecular point group: c1
  Basis Set: CC-PVTZ
  Basis Set:
  Basis Set: CC-PVTZ
  Basis Set:
  @DF-RHF Final Energy:  -388.42737982971613
    Total Energy =                       -388.4273798297155054
  Basis Set: CC-PVTZ
  Basis Set:
  Basis Set: CC-PVTZ
  Basis Set:
  @DF-RHF Final Energy:  -388.42750393452400
    Total Energy =                       -388.4275039345239975
  Basis Set: CC-PVTZ
  Basis Set:
  Basis Set: CC-PVTZ
  Basis Set:
  @DF-RHF Final Energy:  -388.42750592701577
    Total Energy =                       -388.4275059270162274
  Basis Set: CC-PVTZ
  Basis Set:
  Basis Set: CC-PVTZ
  Basis Set:
  @DF-RHF Final Energy:  -388.42750706686479
    Total Energy =                       -388.4275070668649050
  Basis Set: CC-PVTZ
  Basis Set:
  Charge       = 0
  Multiplicity = 1
  Basis Set: CC-PVTZ
  Basis Set:

    Orbital Energies (a.u.)
    -----------------------

    Doubly Occupied:

       1A    -20.545316     2A    -11.264973     3A    -11.216945
       4A    -11.214666     5A    -11.214008     6A    -11.213308
       7A    -11.213182     8A    -11.212029     9A    -11.207438
      10A     -1.363238    11A     -1.096369    12A     -1.062522
      13A     -1.012656    14A     -0.949201    15A     -0.888816
      16A     -0.820579    17A     -0.802584    18A     -0.777632
      19A     -0.695935    20A     -0.654818    21A     -0.638580
      22A     -0.616076    23A     -0.599979    24A     -0.584900
      25A     -0.580848    26A     -0.552993    27A     -0.542415
      28A     -0.532987    29A     -0.505500    30A     -0.495314
      31A     -0.485977    32A     -0.474633    33A     -0.468541
      34A     -0.461261    35A     -0.453243    36A     -0.442635
      37A     -0.425523

  @DF-RHF Final Energy:  -388.42750720820771

   => Energetics <=

    Nuclear Repulsion Energy =            460.1420974662606227
    One-Electron Energy =               -1438.5639659182995729
    Two-Electron Energy =                 589.9943612438310083
    DFT Exchange-Correlation Energy =       0.0000000000000000
    Empirical Dispersion Energy =           0.0000000000000000
    PCM Polarization Energy =               0.0000000000000000
    EFP Energy =                            0.0000000000000000
    Total Energy =                       -388.4275072082079987
    Molecular point group: c1
  Basis Set: CC-PVTZ
  Basis Set:

  -Total Gradient:
     Atom            X                  Y                   Z
    ------   -----------------  -----------------  -----------------
       1        0.000002823130    -0.000005352540     0.000002386363
       2        0.000009669543    -0.000003281101    -0.000011361023
       3       -0.000013378797     0.000007785350     0.000018755911
       4        0.000227923557    -0.000724477815     0.000952193760
       5       -0.000001868875     0.000006423246    -0.000001610527
       6        0.000004478377    -0.000001909090     0.000002501448
       7       -0.000618756688     0.001258179619    -0.001260279357
       8       -0.000003938369    -0.000001314552     0.000000172379
       9       -0.000001833637    -0.000003415817    -0.000000420141
      10        0.001672841420    -0.001565606960    -0.000057297019
      11        0.000007657469    -0.000000322706    -0.000002648115
      12       -0.000005020319    -0.000002557350     0.000000731643
      13       -0.000003601447    -0.000001639491    -0.000001138644
      14       -0.001278931368     0.001038683640     0.000362928884
      15       -0.000001143420    -0.000001780528    -0.000005235090
      16        0.000004832302     0.000002353957     0.000003605699
      17       -0.000001458069    -0.000002667012    -0.000000272848
      18        0.000002591390     0.000001336981    -0.000000974239
      19       -0.000003223215    -0.000003269137    -0.000005782491
      20        0.000000144449    -0.000000449851     0.000002477159
      21        0.000001387434     0.000002838797    -0.000000861475
      22        0.000000755167     0.000000873723     0.000002489352
      23       -0.000001318356    -0.000001792004     0.000000223676
      24       -0.000000412526     0.000001084573    -0.000000842658
      25       -0.000000185286    -0.000001092760     0.000000141165
      26       -0.000000136846     0.000000301780     0.000000929787
      27        0.000000102981     0.000001067050    -0.000000813598

  **** Optimization is complete! (in 6 steps) ****
    Final optimized geometry and variables:
    Molecular point group: c1

    Geometry (in Angstrom), charge = 0, multiplicity = 1:

    H            2.568161802450     2.153291575118     0.031830669712
    O            3.322025515101     1.789790870444    -0.393724519687
    C            3.548786934251     0.479658841977     0.054753484734
    C            2.537305278350    -0.526241999930    -0.473955033137
    H            4.537993932005     0.215347385165    -0.293891834764
    H            3.571963054570     0.449546870570     1.142430905569
    C            1.112824020396    -0.309039560387     0.031502290714
    H            2.551913024908    -0.491858801152    -1.559371048617
    H            2.870914242148    -1.519793472318    -0.185121078240
    C            0.125619898457    -1.341185530845    -0.514970463065
    H            0.777798668621     0.687463661001    -0.236242121072
    H            1.113305521851    -0.356327006483     1.119233246565
    C           -1.237517374673    -1.353780023477     0.179771720478
    H           -0.024746921343    -1.162499848130    -1.576747100524
    H            0.565717687415    -2.329975567351    -0.426341371831
    C           -2.058311963608    -0.076999633206     0.008895592712
    H           -1.811871707856    -2.190174019718    -0.208989543083
    H           -1.097282649453    -1.551051254992     1.240135645616
    C           -3.447733106285    -0.170688639901     0.633999599197
    H           -2.157771551403     0.145605794060    -1.051354191695
    H           -1.532084587675     0.765102663294     0.448590381846
    C           -4.267127377802     1.105007208420     0.469907040880
    H           -3.985603105735    -1.003450444529     0.189340920030
    H           -3.350240369075    -0.402067600462     1.691308465606
    H           -4.410584877861     1.345873702620    -0.578229366000
    H           -5.246890562097     1.003897989822     0.922512980580
    H           -3.773246761161     1.950670697312     0.937075386997

  Mulliken Charges: (a.u.)
   Center  Symbol    Alpha    Beta     Spin     Total
       1     H     0.39241  0.39241  0.00000  0.21517
       2     O     4.20544  4.20544  0.00000 -0.41088
       3     C     2.98021  2.98021  0.00000  0.03958
       4     C     3.08888  3.08888  0.00000 -0.17776
       5     H     0.44838  0.44838  0.00000  0.10324
       6     H     0.46987  0.46987  0.00000  0.06025
       7     C     3.10396  3.10396  0.00000 -0.20791
       8     H     0.45099  0.45099  0.00000  0.09802
       9     H     0.45510  0.45510  0.00000  0.08981
      10     C     3.09806  3.09806  0.00000 -0.19611
      11     H     0.45539  0.45539  0.00000  0.08923
      12     H     0.45383  0.45383  0.00000  0.09233
      13     C     3.09801  3.09801  0.00000 -0.19601
      14     H     0.45134  0.45134  0.00000  0.09732
      15     H     0.44800  0.44800  0.00000  0.10401
      16     C     3.08780  3.08780  0.00000 -0.17561
      17     H     0.44810  0.44810  0.00000  0.10379
      18     H     0.45380  0.45380  0.00000  0.09241
      19     C     3.08422  3.08422  0.00000 -0.16844
      20     H     0.45422  0.45422  0.00000  0.09155
      21     H     0.45509  0.45509  0.00000  0.08983
      22     C     3.14964  3.14964  0.00000 -0.29929
      23     H     0.45363  0.45363  0.00000  0.09274
      24     H     0.45467  0.45467  0.00000  0.09067
      25     H     0.45490  0.45490  0.00000  0.09021
      26     H     0.44826  0.44826  0.00000  0.10348
      27     H     0.45581  0.45581  0.00000  0.08839

   Total alpha = 37.00000, Total beta = 37.00000, Total charge = -0.00000
