  ==> Input File <==

--------------------------------------------------------------------------
set {
	reference rhf
	basis 6-31G*
}

set_num_threads( 4 )
memory 2 gb

molecule MOL {
0 1

O	 0.391030	 1.298905	 0.000133
C	 0.503002	 0.111612	 0.000005
C	 -0.702327	 -0.811998	 -0.000075
C	 1.863306	 -0.554493	 0.000030
C	 -1.694848	 -0.520682	 1.118937
H	 -1.182900	 -0.733737	 -0.973572
H	 -0.338405	 -1.835924	 0.062393
H	 -2.077672	 0.489846	 1.044779
H	 -2.532383	 -1.208697	 1.069679
H	 -1.225693	 -0.622114	 2.089929
H	 1.974395	 -1.189404	 -0.874166
H	 2.638695	 0.198920	 -0.000196
H	 1.974487	 -1.188655	 0.874727

	symmetry c1
}
set optking {
	frozen_dihedral = ("
		6 3 2 1
	")
}

ee = optimize('scf')
oeprop('DIPOLE', 'QUADRUPOLE', 'MULLIKEN_CHARGES')
f=open( 'psi4out.xyz', 'w' )
f.write( "13  " )
f.write( str(ee) + "\n" )
f.write( MOL.save_string_xyz() )
f.close()
--------------------------------------------------------------------------

    Molecular point group: c1
  Charge       = 0
  Multiplicity = 1
  Basis Set: 6-31G*
  Basis Set:
  @DF-RHF Final Energy:  -230.99512958361382
    Total Energy =                       -230.9951295836134477
    Molecular point group: c1
  Basis Set: 6-31G*
  Basis Set:
  Basis Set: 6-31G*
  Basis Set:
  @DF-RHF Final Energy:  -230.99567462369581
    Total Energy =                       -230.9956746236958054
  Basis Set: 6-31G*
  Basis Set:
  Basis Set: 6-31G*
  Basis Set:
  @DF-RHF Final Energy:  -230.99400209246892
    Total Energy =                       -230.9940020924689748
  Basis Set: 6-31G*
  Basis Set:
  Basis Set: 6-31G*
  Basis Set:
  @DF-RHF Final Energy:  -230.99582415289353
    Total Energy =                       -230.9958241528935048
  Basis Set: 6-31G*
  Basis Set:
  Basis Set: 6-31G*
  Basis Set:
  @DF-RHF Final Energy:  -230.99583728608380
    Total Energy =                       -230.9958372860836846
  Basis Set: 6-31G*
  Basis Set:
  Charge       = 0
  Multiplicity = 1
  Basis Set: 6-31G*
  Basis Set:

    Orbital Energies (a.u.)
    -----------------------

    Doubly Occupied:

       1A    -20.549259     2A    -11.326741     3A    -11.233704
       4A    -11.229581     5A    -11.220136     6A     -1.395436
       7A     -1.061417     8A     -1.000401     9A     -0.879136
      10A     -0.731613    11A     -0.657216    12A     -0.643371
      13A     -0.612317    14A     -0.587709    15A     -0.571189
      16A     -0.531234    17A     -0.521362    18A     -0.503275
      19A     -0.479142    20A     -0.400690

  @DF-RHF Final Energy:  -230.99583765028885

   => Energetics <=

    Nuclear Repulsion Energy =            176.8271752917856077
    One-Electron Energy =                -663.3761690769388224
    Two-Electron Energy =                 255.5531561348642526
    DFT Exchange-Correlation Energy =       0.0000000000000000
    Empirical Dispersion Energy =           0.0000000000000000
    PCM Polarization Energy =               0.0000000000000000
    EFP Energy =                            0.0000000000000000
    Total Energy =                       -230.9958376502889905
    Molecular point group: c1
  Basis Set: 6-31G*
  Basis Set:

  -Total Gradient:
     Atom            X                  Y                   Z
    ------   -----------------  -----------------  -----------------
       1        0.000016569969     0.000043266497    -0.001232433437
       2       -0.000156174395     0.000143455078     0.001805521728
       3        0.000820914989    -0.001071789461    -0.001001813138
       4        0.000003340928    -0.000001383008     0.000050293577
       5        0.000026508988     0.000008140689    -0.000020347766
       6       -0.000690975268     0.000872869840     0.000438349860
       7       -0.000005137805    -0.000011780835    -0.000002060986
       8        0.000004020282     0.000002350212     0.000014833891
       9       -0.000002491414    -0.000003462184    -0.000008570956
      10       -0.000003854216     0.000003690626    -0.000004136346
      11       -0.000010825491     0.000007697178    -0.000013008564
      12       -0.000001859059     0.000003174934    -0.000007747628
      13       -0.000000037507     0.000003770430    -0.000018880233

  **** Optimization is complete! (in 6 steps) ****
    Final optimized geometry and variables:
    Molecular point group: c1

    Geometry (in Angstrom), charge = 0, multiplicity = 1:

    O            0.288404239666     1.373595787184    -0.187011679714
    C            0.439977186807     0.190521398700    -0.215756684358
    C           -0.757473265091    -0.749043692001    -0.230424011977
    C            1.815829944939    -0.433082136677    -0.267590807984
    C           -1.773714481662    -0.404908987067     0.860917312211
    H           -1.227656537411    -0.637225522357    -1.204526663954
    H           -0.434279827941    -1.781350181869    -0.145522972477
    H           -2.091741115205     0.625255165329     0.768506169445
    H           -2.645888421662    -1.045044050084     0.783768706902
    H           -1.348083130948    -0.538702535897     1.850603667308
    H            1.905808350313    -1.071270775174    -1.142397339566
    H            2.571964034493     0.338843446006    -0.299000146185
    H            1.971601880755    -1.062421471241     0.604539720520

  Mulliken Charges: (a.u.)
   Center  Symbol    Alpha    Beta     Spin     Total
       1     O     4.26262  4.26262  0.00000 -0.52524
       2     C     2.73626  2.73626  0.00000  0.52748
       3     C     3.20329  3.20329  0.00000 -0.40657
       4     C     3.28895  3.28895  0.00000 -0.57790
       5     C     3.24278  3.24278  0.00000 -0.48556
       6     H     0.40176  0.40176  0.00000  0.19649
       7     H     0.41525  0.41525  0.00000  0.16949
       8     H     0.40121  0.40121  0.00000  0.19758
       9     H     0.41627  0.41627  0.00000  0.16746
      10     H     0.41843  0.41843  0.00000  0.16313
      11     H     0.40827  0.40827  0.00000  0.18346
      12     H     0.39694  0.39694  0.00000  0.20613
      13     H     0.40797  0.40797  0.00000  0.18405

   Total alpha = 20.00000, Total beta = 20.00000, Total charge =  0.00000
