  ==> Input File <==

--------------------------------------------------------------------------
set {
	reference rhf
	basis 6-31G*
}

set_num_threads( 4 )
memory 2 gb

molecule MOL {
0 1

H	 -3.553071	 0.365936	 -0.515587
O	 -3.107695	 -0.256701	 0.042606
C	 -1.776011	 -0.074204	 0.005466
C	 -1.184954	 0.917832	 -0.771397
C	 -0.993657	 -0.921398	 0.780225
H	 -1.798576	 1.570251	 -1.368998
C	 0.186895	 1.058721	 -0.770335
H	 -1.472975	 -1.678779	 1.370902
C	 0.377042	 -0.768006	 0.770752
H	 0.656298	 1.819778	 -1.364938
C	 0.984182	 0.218375	 0.000000
H	 0.983776	 -1.424269	 1.370965
C	 2.452467	 0.370529	 0.000000
O	 3.228994	 -0.533774	 0.000000
H	 2.809473	 1.405765	 0.000000

	symmetry c1
}
set optking {
	frozen_dihedral = ("
		7 11 13 14
	")
}

ee = optimize('scf')
oeprop('DIPOLE', 'QUADRUPOLE', 'MULLIKEN_CHARGES')
f=open( 'psi4out.xyz', 'w' )
f.write( "15  " )
f.write( str(ee) + "\n" )
f.write( MOL.save_string_xyz() )
f.close()
--------------------------------------------------------------------------

    Molecular point group: c1
  Charge       = 0
  Multiplicity = 1
  Basis Set: 6-31G*
  Basis Set:
  @DF-RHF Final Energy:  -418.28311259333935
    Total Energy =                       -418.2831125933394105
    Molecular point group: c1
  Basis Set: 6-31G*
  Basis Set:
  Basis Set: 6-31G*
  Basis Set:
  @DF-RHF Final Energy:  -418.28242870742577
    Total Energy =                       -418.2824287074259928
  Basis Set: 6-31G*
  Basis Set:
  Basis Set: 6-31G*
  Basis Set:
  @DF-RHF Final Energy:  -418.28394805762844
    Total Energy =                       -418.2839480576285496
  Basis Set: 6-31G*
  Basis Set:
  Basis Set: 6-31G*
  Basis Set:
  @DF-RHF Final Energy:  -418.28425808668430
    Total Energy =                       -418.2842580866845310
  Basis Set: 6-31G*
  Basis Set:
  Basis Set: 6-31G*
  Basis Set:
  @DF-RHF Final Energy:  -418.28426443627933
    Total Energy =                       -418.2842644362797273
  Basis Set: 6-31G*
  Basis Set:
  Basis Set: 6-31G*
  Basis Set:
  @DF-RHF Final Energy:  -418.28426632598763
    Total Energy =                       -418.2842663259876872
  Basis Set: 6-31G*
  Basis Set:
  Charge       = 0
  Multiplicity = 1
  Basis Set: 6-31G*
  Basis Set:

    Orbital Energies (a.u.)
    -----------------------

    Doubly Occupied:

       1A    -20.608646     2A    -20.560649     3A    -11.330031
       4A    -11.320598     5A    -11.261652     6A    -11.253341
       7A    -11.244519     8A    -11.240431     9A    -11.237037
      10A     -1.429335    11A     -1.400956    12A     -1.169736
      13A     -1.041541    14A     -1.036173    15A     -0.891999
      16A     -0.858061    17A     -0.802768    18A     -0.755300
      19A     -0.696922    20A     -0.684553    21A     -0.641570
      22A     -0.626773    23A     -0.607773    24A     -0.605911
      25A     -0.586309    26A     -0.558317    27A     -0.540581
      28A     -0.505545    29A     -0.485790    30A     -0.419921
      31A     -0.355889    32A     -0.325693

  @DF-RHF Final Energy:  -418.28426638488764

   => Energetics <=

    Nuclear Repulsion Energy =            401.2874130837596454
    One-Electron Energy =               -1364.9747174857870959
    Two-Electron Energy =                 545.4030380171394654
    DFT Exchange-Correlation Energy =       0.0000000000000000
    Empirical Dispersion Energy =           0.0000000000000000
    PCM Polarization Energy =               0.0000000000000000
    EFP Energy =                            0.0000000000000000
    Total Energy =                       -418.2842663848879283
    Molecular point group: c1
  Basis Set: 6-31G*
  Basis Set:

  -Total Gradient:
     Atom            X                  Y                   Z
    ------   -----------------  -----------------  -----------------
       1        0.000015739878    -0.000003829557     0.000002917459
       2       -0.000005227686    -0.000031343472    -0.000031694096
       3       -0.000009129489     0.000062955426     0.000117254720
       4        0.000040060993     0.000031773768    -0.000005969248
       5       -0.000032020788    -0.000030267587    -0.000085901602
       6       -0.000002832817    -0.000000785165    -0.000000519484
       7        0.000040722034    -0.004600306603    -0.004884828308
       8        0.000005897354    -0.000002853293     0.000006688457
       9        0.000001717980     0.000096207298     0.000110621606
      10       -0.000009194509     0.000061592318     0.000031771726
      11       -0.000281333382     0.006288852296     0.003401145118
      12       -0.000000350082    -0.000021927742    -0.000037312357
      13        0.000578616684    -0.001390084904     0.009345663623
      14       -0.000360616375    -0.000461277843    -0.007975502794
      15        0.000017950211     0.000001295061     0.000005665179

  **** Optimization is complete! (in 7 steps) ****
    Final optimized geometry and variables:
    Molecular point group: c1

    Geometry (in Angstrom), charge = 0, multiplicity = 1:

    H           -3.547575258950     0.341997927883    -0.569281557431
    O           -3.102927439591    -0.272092775333    -0.001403261089
    C           -1.772494586674    -0.067699581069    -0.016012460934
    C           -1.181372819348     0.930097482146    -0.775120826886
    C           -0.990144167850    -0.911472966291     0.768941375883
    H           -1.786060322688     1.571507840559    -1.393080510750
    C            0.193305666006     1.093943322410    -0.732906724349
    H           -1.471606878403    -1.682480034410     1.340398464981
    C            0.376085819179    -0.752196978838     0.781890244477
    H            0.646716994647     1.874522619270    -1.319684734858
    C            0.982994733078     0.271788075724     0.053827843204
    H            0.990650908530    -1.417698658410     1.359372759127
    C            2.460395491141     0.373278364201    -0.019354125014
    O            3.197035012809    -0.561899305725     0.003038064347
    H            2.855484855370     1.382727482815    -0.173145680589

  Mulliken Charges: (a.u.)
   Center  Symbol    Alpha    Beta     Spin     Total
       1     H     0.26927  0.26927  0.00000  0.46146
       2     O     4.37353  4.37353  0.00000 -0.74706
       3     C     2.78708  2.78708  0.00000  0.42584
       4     C     3.14680  3.14680  0.00000 -0.29360
       5     C     3.12579  3.12579  0.00000 -0.25158
       6     H     0.39937  0.39937  0.00000  0.20127
       7     C     3.09342  3.09342  0.00000 -0.18684
       8     H     0.38589  0.38589  0.00000  0.22822
       9     C     3.08052  3.08052  0.00000 -0.16104
      10     H     0.39114  0.39114  0.00000  0.21772
      11     C     3.05721  3.05721  0.00000 -0.11442
      12     H     0.37994  0.37994  0.00000  0.24013
      13     C     2.84266  2.84266  0.00000  0.31468
      14     O     4.24075  4.24075  0.00000 -0.48149
      15     H     0.42664  0.42664  0.00000  0.14672

   Total alpha = 32.00000, Total beta = 32.00000, Total charge = -0.00000
