                              Psi4 1.0.54 Driver

  ==> Input File <==

--------------------------------------------------------------------------
set {
	reference rhf
	basis cc-pvtz
}

set_num_threads( 4 )
memory 2 gb

molecule MOL {
0 1

H	 2.828711	 -0.346904	 0.001083
C	 1.876752	 0.015931	 -0.363450
C	 0.776285	 -0.474665	 0.563092
H	 1.728113	 -0.357244	 -1.367440
H	 1.906171	 1.096574	 -0.386153
N	 -0.540022	 0.017605	 0.071630
H	 0.707111	 -1.548969	 0.573035
H	 0.886169	 -0.084184	 1.560432
O	 -0.719504	 0.008514	 -1.099651
O	 -1.308252	 0.411833	 0.883297

	symmetry c1
}
set optking {
	frozen_dihedral = ("
		9 6 3 2
	")
}

ee,wfn = optimize('scf', return_wfn=True)
oeprop( wfn, 'DIPOLE', 'QUADRUPOLE', 'MULLIKEN_CHARGES')
f=open( 'psi4out.xyz', 'w' )
f.write( "10  " )
f.write( str(ee) + "\n" )
f.write( MOL.save_string_xyz() )
f.close()
--------------------------------------------------------------------------

    Molecular point group: c1
  Charge       = 0
  Multiplicity = 1
  Basis Set: CC-PVTZ
  Basis Set:
  @DF-RHF Final Energy:  -282.81219436299330
    Total Energy =                       -282.8121943629932957
    Molecular point group: c1
  Basis Set: CC-PVTZ
  Basis Set:
  Basis Set: CC-PVTZ
  Basis Set:
  @DF-RHF Final Energy:  -282.80744440329158
    Total Energy =                       -282.8074444032914698
  Basis Set: CC-PVTZ
  Basis Set:
  Basis Set: CC-PVTZ
  Basis Set:
  @DF-RHF Final Energy:  -282.81202740598144
    Total Energy =                       -282.8120274059815529
  Basis Set: CC-PVTZ
  Basis Set:
  Basis Set: CC-PVTZ
  Basis Set:
  @DF-RHF Final Energy:  -282.81285803769794
    Total Energy =                       -282.8128580376979926
  Basis Set: CC-PVTZ
  Basis Set:
  Basis Set: CC-PVTZ
  Basis Set:
  @DF-RHF Final Energy:  -282.81297825730451
    Total Energy =                       -282.8129782573046214
  Basis Set: CC-PVTZ
  Basis Set:
  Basis Set: CC-PVTZ
  Basis Set:
  @DF-RHF Final Energy:  -282.81303927596048
    Total Energy =                       -282.8130392759604774
  Basis Set: CC-PVTZ
  Basis Set:
  Charge       = 0
  Multiplicity = 1
  Basis Set: CC-PVTZ
  Basis Set:

    Orbital Energies (a.u.)
    -----------------------

    Doubly Occupied:

       1A    -20.592605     2A    -20.591754     3A    -15.839214
       4A    -11.302770     5A    -11.245811     6A     -1.638454
       7A     -1.422611     8A     -1.124642     9A     -0.966994
      10A     -0.836706    11A     -0.764739    12A     -0.746290
      13A     -0.731699    14A     -0.648207    15A     -0.592141
      16A     -0.563703    17A     -0.540439    18A     -0.489745
      19A     -0.479552    20A     -0.455927

  @DF-RHF Final Energy:  -282.81304002203638

   => Energetics <=

    Nuclear Repulsion Energy =            186.5857145288389631
    One-Electron Energy =                -755.6494993536007314
    Two-Electron Energy =                 286.2507448027254782
    DFT Exchange-Correlation Energy =       0.0000000000000000
    Empirical Dispersion Energy =           0.0000000000000000
    PCM Polarization Energy =               0.0000000000000000
    EFP Energy =                            0.0000000000000000
    Total Energy =                       -282.8130400220363185
    Molecular point group: c1
  Basis Set: CC-PVTZ
  Basis Set:

  -Total Gradient:
     Atom            X                  Y                   Z
    ------   -----------------  -----------------  -----------------
       1       -0.000007926111     0.000002753250    -0.000000035248
       2       -0.000009462863    -0.000139981695    -0.000096423009
       3        0.000055928827     0.000267909164     0.000191111752
       4       -0.000006492487    -0.000008575713    -0.000005224723
       5       -0.000010389884    -0.000016283038     0.000010061566
       6       -0.000040599282    -0.000404833370    -0.000142233254
       7        0.000025701899     0.000013373879    -0.000007641429
       8        0.000027570243     0.000000289508    -0.000005676099
       9       -0.000006790178     0.000281463575     0.000203683632
      10       -0.000027540166     0.000003884439    -0.000147623189

  **** Optimization is complete! (in 7 steps) ****
    Final optimized geometry and variables:
    Molecular point group: c1

    Geometry (in Angstrom), charge = 0, multiplicity = 1:

    H            2.842146289221    -0.420840990783     0.028305745591
    C            1.915698358396    -0.026631433973    -0.369974647979
    C            0.780544815515    -0.475663572740     0.525804813147
    H            1.786372021842    -0.388823976074    -1.377777379442
    H            1.988415045349     1.052833199760    -0.394333580489
    N           -0.543002693575     0.040732598410     0.066054701149
    H            0.667403795005    -1.550748517570     0.520255821630
    H            0.882117796952    -0.136230541401     1.541583347529
    O           -0.754478513694     0.052262348738    -1.099471182922
    O           -1.307524922318     0.379891704417     0.904693436033

  Mulliken Charges: (a.u.)
   Center  Symbol    Alpha    Beta     Spin     Total
       1     H     0.44918  0.44918  0.00000  0.10164
       2     C     3.14067  3.14067  0.00000 -0.28134
       3     C     3.04044  3.04044  0.00000 -0.08087
       4     H     0.43659  0.43659  0.00000  0.12682
       5     H     0.44528  0.44528  0.00000  0.10943
       6     N     3.27753  3.27753  0.00000  0.44493
       7     H     0.43706  0.43706  0.00000  0.12588
       8     H     0.43129  0.43129  0.00000  0.13741
       9     O     4.17225  4.17225  0.00000 -0.34450
      10     O     4.16970  4.16970  0.00000 -0.33941

   Total alpha = 20.00000, Total beta = 20.00000, Total charge = -0.00000

*** Psi4 exiting successfully. Buy a developer a beer!
