  ==> Input File <==

--------------------------------------------------------------------------
set {
	reference rhf
	basis 6-31G*
}

set_num_threads( 1 )
memory 2 gb

molecule MOL {
0 1

H	 -2.698709	 -0.000305	 0.034435
C	 -1.693833	 0.000034	 0.434417
O	 -0.828952	 -0.000968	 -0.659236
H	 -1.574200	 0.882896	 1.055746
H	 -1.574147	 -0.881698	 1.057355
C	 -0.410721	 1.235459	 -1.189175
C	 -1.568385	 2.044723	 -1.770400
C	 0.423649	 2.044915	 -0.198434
H	 0.236114	 0.945953	 -2.008822
H	 -2.167269	 1.424963	 -2.429023
H	 -1.184336	 2.881147	 -2.345844
H	 -2.215112	 2.449706	 -0.998456
H	 1.203053	 1.425132	 0.231514
H	 0.894668	 2.880923	 -0.706072
H	 -0.176828	 2.450584	 0.609465

	symmetry c1
}
set optking {
	frozen_dihedral = ("
		9 6 3 2
	")
}

ee = energy('scf')
oeprop('DIPOLE', 'QUADRUPOLE', 'MULLIKEN_CHARGES')
f=open( 'psi4out.xyz', 'w' )
f.write( "15  " )
f.write( str(ee) + "\n" )
f.write( MOL.save_string_xyz() )
f.close()
--------------------------------------------------------------------------

    Molecular point group: c1

    Geometry (in Angstrom), charge = 0, multiplicity = 1:

       Center              X                  Y                   Z               Mass
    ------------   -----------------  -----------------  -----------------  -----------------
           H         -1.867372887871    -1.059508214551     0.692841656689     1.007825032070
           C         -0.862496887871    -1.059169214551     1.092823656689    12.000000000000
           O          0.002384112129    -1.060171214551    -0.000829343311    15.994914619560
           H         -0.742863887871    -0.176307214551     1.714152656689     1.007825032070
           H         -0.742810887871    -1.940901214551     1.715761656689     1.007825032070
           C          0.420615112129     0.176255785449    -0.530768343311    12.000000000000
           C         -0.737048887871     0.985519785449    -1.111993343311    12.000000000000
           C          1.254985112129     0.985711785449     0.459972656689    12.000000000000
           H          1.067450112129    -0.113250214551    -1.350415343311     1.007825032070
           H         -1.335932887871     0.365759785449    -1.770616343311     1.007825032070
           H         -0.352999887871     1.821943785449    -1.687437343311     1.007825032070
           H         -1.383775887871     1.390502785449    -0.340049343311     1.007825032070
           H          2.034389112129     0.365928785449     0.889920656689     1.007825032070
           H          1.726004112129     1.821719785449    -0.047665343311     1.007825032070
           H          0.654508112129     1.391380785449     1.267871656689     1.007825032070

  Charge       = 0
  Multiplicity = 1
  Basis Set: 6-31G*
  Basis Set:

    Orbital Energies (a.u.)
    -----------------------

    Doubly Occupied:

       1A    -20.545873     2A    -11.275255     3A    -11.260968
       4A    -11.210854     5A    -11.210551     6A     -1.369482
       7A     -1.050424     8A     -0.939760     9A     -0.931202
      10A     -0.781400    11A     -0.674916    12A     -0.640477
      13A     -0.632577    14A     -0.573847    15A     -0.563987
      16A     -0.551569    17A     -0.535845    18A     -0.500716
      19A     -0.496802    20A     -0.441869    21A     -0.402976

  @DF-RHF Final Energy:  -232.13468978277959

   => Energetics <=

    Nuclear Repulsion Energy =            198.8608189540712772
    One-Electron Energy =                -708.8082290748301375
    Two-Electron Energy =                 277.8127203379794992
    DFT Exchange-Correlation Energy =       0.0000000000000000
    Empirical Dispersion Energy =           0.0000000000000000
    PCM Polarization Energy =               0.0000000000000000
    EFP Energy =                            0.0000000000000000
    Total Energy =                       -232.1346897827793327

  Mulliken Charges: (a.u.)
   Center  Symbol    Alpha    Beta     Spin     Total
       1     H     0.42563  0.42563  0.00000  0.14874
       2     C     3.08028  3.08028  0.00000 -0.16055
       3     O     4.31396  4.31396  0.00000 -0.62793
       4     H     0.43090  0.43090  0.00000  0.13819
       5     H     0.41483  0.41483  0.00000  0.17033
       6     C     2.90959  2.90959  0.00000  0.18081
       7     C     3.25260  3.25260  0.00000 -0.50521
       8     C     3.25266  3.25266  0.00000 -0.50532
       9     H     0.41495  0.41495  0.00000  0.17010
      10     H     0.41144  0.41144  0.00000  0.17712
      11     H     0.41956  0.41956  0.00000  0.16088
      12     H     0.42177  0.42177  0.00000  0.15646
      13     H     0.41114  0.41114  0.00000  0.17772
      14     H     0.41930  0.41930  0.00000  0.16141
      15     H     0.42138  0.42138  0.00000  0.15725

   Total alpha = 21.00000, Total beta = 21.00000, Total charge =  0.00000
