                              Psi4 1.0.54 Driver

  ==> Input File <==

--------------------------------------------------------------------------
set {
	reference rhf
	basis cc-pvtz
}

set_num_threads( 4 )
memory 2 gb

molecule MOL {
0 1

O	 -1.510770	 1.240811	 -0.054933
C	 -1.081510	 0.147522	 0.122720
C	 0.327029	 -0.064006	 0.641890
C	 -1.903028	 -1.084121	 -0.174656
C	 1.349460	 -0.017068	 -0.500215
H	 0.399029	 -1.014606	 1.159950
H	 0.538021	 0.726928	 1.350471
C	 0.885656	 0.855234	 -1.661129
H	 2.299082	 0.355540	 -0.127097
H	 1.526978	 -1.028091	 -0.847558
H	 1.619921	 0.862000	 -2.457897
H	 0.730021	 1.881097	 -1.344692
H	 -0.048448	 0.490177	 -2.073505
H	 -1.341891	 -1.779207	 -0.789259
H	 -2.820449	 -0.808163	 -0.671328
H	 -2.133314	 -1.593056	 0.755831

	symmetry c1
}
set optking {
	frozen_dihedral = ("
		9 5 3 2
	")
}

ee,wfn = optimize('scf', return_wfn=True)
oeprop( wfn, 'DIPOLE', 'QUADRUPOLE', 'MULLIKEN_CHARGES')
f=open( 'psi4out.xyz', 'w' )
f.write( "16  " )
f.write( str(ee) + "\n" )
f.write( MOL.save_string_xyz() )
f.close()
--------------------------------------------------------------------------

    Molecular point group: c1
  Charge       = 0
  Multiplicity = 1
  Basis Set: CC-PVTZ
  Basis Set:
  @DF-RHF Final Energy:  -270.12076505845295
    Total Energy =                       -270.1207650584528324
    Molecular point group: c1
  Basis Set: CC-PVTZ
  Basis Set:
  Basis Set: CC-PVTZ
  Basis Set:
  @DF-RHF Final Energy:  -270.12280529640429
    Total Energy =                       -270.1228052964044082
  Basis Set: CC-PVTZ
  Basis Set:
  Basis Set: CC-PVTZ
  Basis Set:
  @DF-RHF Final Energy:  -270.12278609641987
    Total Energy =                       -270.1227860964199863
  Basis Set: CC-PVTZ
  Basis Set:
  Basis Set: CC-PVTZ
  Basis Set:
  @DF-RHF Final Energy:  -270.12404572994683
    Total Energy =                       -270.1240457299465447
  Basis Set: CC-PVTZ
  Basis Set:
  @DF-RHF Final Energy:  -270.12423588126171
    Total Energy =                       -270.1242358812618249
  @DF-RHF Final Energy:  -270.12432961476475
    Total Energy =                       -270.1243296147647470
  @DF-RHF Final Energy:  -270.12442071713281
    Total Energy =                       -270.1244207171329208
  @DF-RHF Final Energy:  -270.12444887742640
    Total Energy =                       -270.1244488774263459
  @DF-RHF Final Energy:  -270.12445238905946
    Total Energy =                       -270.1244523890594564
  Basis Set: CC-PVTZ
  Basis Set:
  @DF-RHF Final Energy:  -270.12445352132124
    Total Energy =                       -270.1244535213209588
  Basis Set: CC-PVTZ
  Basis Set:
  Basis Set: CC-PVTZ
  Basis Set:
  @DF-RHF Final Energy:  -270.12445134638460
    Total Energy =                       -270.1244513463844896
  Basis Set: CC-PVTZ
  Basis Set:
  Basis Set: CC-PVTZ
  Basis Set:
  @DF-RHF Final Energy:  -270.12445412077852
    Total Energy =                       -270.1244541207789212
  Basis Set: CC-PVTZ
  Basis Set:
  Charge       = 0
  Multiplicity = 1
  Basis Set: CC-PVTZ
  Basis Set:

    Orbital Energies (a.u.)
    -----------------------

    Doubly Occupied:

       1A    -20.537742     2A    -11.319621     3A    -11.233297
       4A    -11.228402     5A    -11.226832     6A    -11.214436
       7A     -1.397885     8A     -1.081599     9A     -1.010254
      10A     -0.951675    11A     -0.835423    12A     -0.727865
      13A     -0.656044    14A     -0.648285    15A     -0.625362
      16A     -0.609518    17A     -0.577451    18A     -0.560724
      19A     -0.537759    20A     -0.508214    21A     -0.506351
      22A     -0.481248    23A     -0.476896    24A     -0.400149

  @DF-RHF Final Energy:  -270.12445412830431

   => Energetics <=

    Nuclear Repulsion Energy =            243.6632585553585955
    One-Electron Energy =                -848.8693640287706330
    Two-Electron Energy =                 335.0816513451075025
    DFT Exchange-Correlation Energy =       0.0000000000000000
    Empirical Dispersion Energy =           0.0000000000000000
    PCM Polarization Energy =               0.0000000000000000
    EFP Energy =                            0.0000000000000000
    Total Energy =                       -270.1244541283044782
    Molecular point group: c1
  Basis Set: CC-PVTZ
  Basis Set:

  -Total Gradient:
     Atom            X                  Y                   Z
    ------   -----------------  -----------------  -----------------
       1       -0.000032783234     0.000046575371     0.000021561264
       2        0.000488433050     0.004286565043     0.000298846968
       3       -0.001035786424    -0.004927330557    -0.000764360979
       4       -0.000002073914    -0.000021162963     0.000038138167
       5        0.002387075143    -0.004738526680     0.001721424165
       6       -0.000000926255    -0.000015611065    -0.000004172467
       7       -0.000014026700    -0.000021334363     0.000017902013
       8        0.000044822000    -0.000018830615    -0.000041281227
       9       -0.001817261768     0.005380669163    -0.001309876429
      10       -0.000018844688    -0.000004039597     0.000011991458
      11       -0.000020270491     0.000009794281     0.000007904588
      12       -0.000001747231     0.000008189736     0.000005024333
      13        0.000000758349    -0.000002154633     0.000007142618
      14        0.000009768076     0.000001768147    -0.000010437968
      15        0.000009393132     0.000006648025     0.000003020857
      16        0.000003470953     0.000008780708    -0.000002827361

  **** Optimization is complete! (in 13 steps) ****
    Final optimized geometry and variables:
    Molecular point group: c1

    Geometry (in Angstrom), charge = 0, multiplicity = 1:

    O           -1.270864018647     1.005513508778     0.697330016410
    C           -0.728947396927    -0.038576413084     0.534593639931
    C            0.748507744994    -0.213860289654     0.825606996253
    C           -1.486078969336    -1.252611116529     0.047675626213
    C            1.648633611053    -0.206538913226    -0.432290115249
    H            0.903703727587    -1.134350707183     1.377812091136
    H            1.024127809206     0.610985226387     1.468388220770
    C            1.142234694207     0.669110738374    -1.579500137708
    H            2.610972549713     0.192473392220    -0.135547986181
    H            1.807429840543    -1.217337622993    -0.788845167164
    H            1.873127398924     0.693784480938    -2.378957178276
    H            0.970043985768     1.686231482822    -1.249045657577
    H            0.212947293313     0.301639350864    -1.999196995784
    H           -0.938918192140    -1.768006062709    -0.733020285258
    H           -2.461906256011    -0.962789281292    -0.311050827506
    H           -1.600798742266    -1.948276257695     0.873030810791

  Mulliken Charges: (a.u.)
   Center  Symbol    Alpha    Beta     Spin     Total
       1     O     4.17757  4.17757  0.00000 -0.35513
       2     C     2.85402  2.85402  0.00000  0.29196
       3     C     3.10613  3.10613  0.00000 -0.21226
       4     C     3.15587  3.15587  0.00000 -0.31173
       5     C     3.10440  3.10440  0.00000 -0.20881
       6     H     0.44416  0.44416  0.00000  0.11168
       7     H     0.43842  0.43842  0.00000  0.12316
       8     C     3.14783  3.14783  0.00000 -0.29565
       9     H     0.44363  0.44363  0.00000  0.11274
      10     H     0.44800  0.44800  0.00000  0.10401
      11     H     0.44767  0.44767  0.00000  0.10467
      12     H     0.44354  0.44354  0.00000  0.11292
      13     H     0.45537  0.45537  0.00000  0.08927
      14     H     0.45109  0.45109  0.00000  0.09781
      15     H     0.43589  0.43589  0.00000  0.12822
      16     H     0.44643  0.44643  0.00000  0.10714

   Total alpha = 24.00000, Total beta = 24.00000, Total charge = -0.00000

*** Psi4 exiting successfully. Buy a developer a beer!
