                              Psi4 1.0.54 Driver

  ==> Input File <==

--------------------------------------------------------------------------
set {
	reference rhf
	basis cc-pvtz
}

set_num_threads( 4 )
memory 2 gb

molecule MOL {
0 1

O	 3.219313	 0.959291	 -0.614106
C	 2.698710	 0.058177	 -0.050237
C	 1.246364	 -0.005813	 0.348416
O	 3.344101	 -1.038700	 0.312317
C	 0.453207	 1.232821	 -0.049003
H	 0.839270	 -0.907818	 -0.092281
H	 1.216683	 -0.160521	 1.422434
C	 -0.998367	 1.217982	 0.432195
H	 0.481498	 1.345443	 -1.127236
H	 0.951413	 2.105557	 0.354893
C	 -1.882951	 0.151251	 -0.211235
H	 -1.429490	 2.193659	 0.228843
H	 -1.019755	 1.099323	 1.513279
C	 -3.342450	 0.243269	 0.226009
H	 -1.826223	 0.246578	 -1.293162
H	 -1.508033	 -0.839650	 0.027695
C	 -4.234517	 -0.821434	 -0.405970
H	 -3.730149	 1.228245	 -0.022691
H	 -3.398860	 0.159952	 1.308941
C	 -5.226855	 -1.433250	 0.577251
H	 -4.777205	 -0.385448	 -1.240312
H	 -3.612890	 -1.607830	 -0.825516
H	 -5.843618	 -2.184334	 0.097188
H	 -5.887127	 -0.676878	 0.988410
H	 -4.713592	 -1.907998	 1.406940
C	 4.720529	 -1.114346	 0.001449
H	 4.874321	 -1.055557	 -1.065852
H	 5.057824	 -2.067950	 0.373977
H	 5.264321	 -0.313596	 0.480350

	symmetry c1
}
set optking {
	frozen_dihedral = ("
		21 17 14 11
	")
}

ee,wfn = optimize('scf', return_wfn=True)
oeprop( wfn, 'DIPOLE', 'QUADRUPOLE', 'MULLIKEN_CHARGES')
f=open( 'psi4out.xyz', 'w' )
f.write( "29  " )
f.write( str(ee) + "\n" )
f.write( MOL.save_string_xyz() )
f.close()
--------------------------------------------------------------------------

    Molecular point group: c1
  Charge       = 0
  Multiplicity = 1
  Basis Set: CC-PVTZ
  Basis Set:
  @DF-RHF Final Energy:  -501.22031666275552
    Total Energy =                       -501.2203166627551809
    Molecular point group: c1
  Basis Set: CC-PVTZ
  Basis Set:
  Basis Set: CC-PVTZ
  Basis Set:
  @DF-RHF Final Energy:  -501.22056270792643
    Total Energy =                       -501.2205627079265469
  Basis Set: CC-PVTZ
  Basis Set:
  Basis Set: CC-PVTZ
  Basis Set:
  @DF-RHF Final Energy:  -501.22063272339221
    Total Energy =                       -501.2206327233932370
  Basis Set: CC-PVTZ
  Basis Set:
  Basis Set: CC-PVTZ
  Basis Set:
  @DF-RHF Final Energy:  -501.22035783902845
    Total Energy =                       -501.2203578390285656
  Basis Set: CC-PVTZ
  Basis Set:
  Basis Set: CC-PVTZ
  Basis Set:
  @DF-RHF Final Energy:  -501.22064202798367
    Total Energy =                       -501.2206420279826489
  Basis Set: CC-PVTZ
  Basis Set:
  Charge       = 0
  Multiplicity = 1
  Basis Set: CC-PVTZ
  Basis Set:

    Orbital Energies (a.u.)
    -----------------------

    Doubly Occupied:

       1A    -20.596045     2A    -20.533893     3A    -11.364305
       4A    -11.278289     5A    -11.233002     6A    -11.217095
       7A    -11.215418     8A    -11.214109     9A    -11.213805
      10A    -11.212178    11A    -11.207422    12A     -1.471912
      13A     -1.365530    14A     -1.098850    15A     -1.066686
      16A     -1.020334    17A     -0.978146    18A     -0.928876
      19A     -0.862271    20A     -0.800602    21A     -0.790809
      22A     -0.765752    23A     -0.703039    24A     -0.685534
      25A     -0.676010    26A     -0.649279    27A     -0.626399
      28A     -0.609041    29A     -0.596703    30A     -0.584473
      31A     -0.565297    32A     -0.551700    33A     -0.533571
      34A     -0.531664    35A     -0.518029    36A     -0.507010
      37A     -0.501914    38A     -0.476916    39A     -0.471514
      40A     -0.461828    41A     -0.458576    42A     -0.457477
      43A     -0.443271    44A     -0.436696

  @DF-RHF Final Energy:  -501.22064218726371

   => Energetics <=

    Nuclear Repulsion Energy =            612.0991442406112810
    One-Electron Energy =               -1895.6770312204012043
    Two-Electron Energy =                 782.3572447925257620
    DFT Exchange-Correlation Energy =       0.0000000000000000
    Empirical Dispersion Energy =           0.0000000000000000
    PCM Polarization Energy =               0.0000000000000000
    EFP Energy =                            0.0000000000000000
    Total Energy =                       -501.2206421872642750
    Molecular point group: c1
  Basis Set: CC-PVTZ
  Basis Set:

  -Total Gradient:
     Atom            X                  Y                   Z
    ------   -----------------  -----------------  -----------------
       1       -0.000037959123     0.000050111067    -0.000054671079
       2        0.000040245383     0.000025877877     0.000078481292
       3       -0.000000617899    -0.000025848591    -0.000034127527
       4       -0.000021399838    -0.000072458344     0.000009449252
       5        0.000018450720     0.000031345398     0.000025845556
       6       -0.000020798871    -0.000027293793    -0.000000888528
       7        0.000014170106     0.000008847822    -0.000007958374
       8       -0.000018265536     0.000024833781    -0.000031813295
       9        0.000004113030     0.000014011172    -0.000009567523
      10        0.000014600839    -0.000007895217     0.000005927159
      11        0.000529757898    -0.001718667149     0.002074139189
      12       -0.000013268915    -0.000000016344    -0.000003432353
      13       -0.000003189066     0.000006814524    -0.000002014232
      14       -0.001353271889     0.002591317076    -0.002317736939
      15        0.000009202109     0.000007177582     0.000006328649
      16        0.000018156979    -0.000032689553    -0.000004117039
      17        0.003578301118    -0.001812514661    -0.002041687418
      18       -0.000007633749     0.000010673028    -0.000010616098
      19        0.000001236842    -0.000000951742     0.000023225421
      20        0.000021797632     0.000006104626    -0.000033862201
      21       -0.002761391017     0.000925403868     0.002310787754
      22        0.000010392063    -0.000005376681     0.000002627262
      23       -0.000010423541    -0.000008264216    -0.000001516932
      24       -0.000005633830     0.000007257546     0.000007453992
      25        0.000004089202    -0.000006656280     0.000014108998
      26       -0.000005927457     0.000020649104    -0.000012668783
      27        0.000004773031    -0.000003656364     0.000000670698
      28       -0.000011704863    -0.000005952965     0.000005700649
      29        0.000002198639    -0.000002182564     0.000001932449

  **** Optimization is complete! (in 6 steps) ****
    Final optimized geometry and variables:
    Molecular point group: c1

    Geometry (in Angstrom), charge = 0, multiplicity = 1:

    O            3.182418094874     1.017568002682    -0.663507729168
    C            2.659450371081     0.123711800672    -0.090327414684
    C            1.205856930736     0.065624461031     0.304675406559
    O            3.302607802501    -0.969686722054     0.286551099533
    C            0.415078073084     1.300455041948    -0.109129143928
    H            0.799299815922    -0.841000445454    -0.127036501403
    H            1.172794423854    -0.076910722459     1.380270852994
    C           -1.038599643145     1.291369710897     0.366113829308
    H            0.447913425400     1.401653890177    -1.188367817182
    H            0.912159831297     2.177126367012     0.287592016378
    C           -1.920335912520     0.217215189812    -0.267741959060
    H           -1.468961421688     2.264496342765     0.149407283658
    H           -1.064619774616     1.185698011695     1.448564020798
    C           -3.379369677691     0.302700666869     0.175487634373
    H           -1.864627416619     0.303897821290    -1.350946195170
    H           -1.544665083680    -0.771503901532    -0.021912534970
    C           -4.286840102316    -0.754015950030    -0.478108595084
    H           -3.765992105428     1.296726866731    -0.026515752996
    H           -3.412096699630     0.183865187439     1.255417758181
    C           -5.305150570276    -1.351230928471     0.490453722414
    H           -4.833202693344    -0.304192263566    -1.300796511797
    H           -3.684577358211    -1.552885331761    -0.897822738343
    H           -5.951742971977    -2.064652701273    -0.008067802391
    H           -5.934521086348    -0.578500295832     0.919922795820
    H           -4.811643788961    -1.865091482766     1.308827085727
    C            4.679769521521    -1.050483513004    -0.019762045174
    H            4.836498013495    -1.004141779240    -1.087251309797
    H            5.014920010673    -2.000160709538     0.364586031648
    H            5.223272722811    -0.244951157687     0.451395550250

  Mulliken Charges: (a.u.)
   Center  Symbol    Alpha    Beta     Spin     Total
       1     O     4.19696  4.19696  0.00000 -0.39391
       2     C     2.80481  2.80481  0.00000  0.39038
       3     C     3.10171  3.10171  0.00000 -0.20343
       4     O     4.14723  4.14723  0.00000 -0.29445
       5     C     3.09243  3.09243  0.00000 -0.18486
       6     H     0.43916  0.43916  0.00000  0.12169
       7     H     0.43993  0.43993  0.00000  0.12013
       8     C     3.10447  3.10447  0.00000 -0.20895
       9     H     0.44621  0.44621  0.00000  0.10759
      10     H     0.43964  0.43964  0.00000  0.12073
      11     C     3.09362  3.09362  0.00000 -0.18723
      12     H     0.44526  0.44526  0.00000  0.10949
      13     H     0.45339  0.45339  0.00000  0.09321
      14     C     3.09076  3.09076  0.00000 -0.18151
      15     H     0.45187  0.45187  0.00000  0.09626
      16     H     0.45367  0.45367  0.00000  0.09266
      17     C     3.08639  3.08639  0.00000 -0.17278
      18     H     0.45065  0.45065  0.00000  0.09870
      19     H     0.45544  0.45544  0.00000  0.08912
      20     C     3.14797  3.14797  0.00000 -0.29595
      21     H     0.45183  0.45183  0.00000  0.09635
      22     H     0.45449  0.45449  0.00000  0.09103
      23     H     0.44952  0.44952  0.00000  0.10095
      24     H     0.45433  0.45433  0.00000  0.09134
      25     H     0.45630  0.45630  0.00000  0.08741
      26     C     3.03813  3.03813  0.00000 -0.07626
      27     H     0.45434  0.45434  0.00000  0.09131
      28     H     0.44528  0.44528  0.00000  0.10944
      29     H     0.45423  0.45423  0.00000  0.09154

   Total alpha = 44.00000, Total beta = 44.00000, Total charge =  0.00000

*** Psi4 exiting successfully. Buy a developer a beer!
