  ==> Input File <==

--------------------------------------------------------------------------
set {
	reference rhf
	basis 6-31G*
}

set_num_threads( 4 )
memory 2 gb

molecule MOL {
0 1

O	 -2.821601	 1.309235	 -0.001213
C	 -2.668563	 0.129746	 -0.000350
C	 -3.801572	 -0.864014	 -0.000442
O	 -1.481751	 -0.454642	 0.000584
H	 -4.417280	 -0.689587	 -0.874708
H	 -3.443784	 -1.883046	 -0.000565
H	 -4.417179	 -0.689832	 0.873954
C	 -0.334255	 0.388708	 0.000906
C	 0.891947	 -0.504646	 0.000751
H	 -0.365390	 1.025305	 -0.873475
H	 -0.365484	 1.024911	 0.875569
C	 0.565770	 -1.930421	 0.449354
H	 1.642475	 -0.070878	 0.655726
H	 1.317242	 -0.517052	 -0.998964
C	 1.790103	 -2.847636	 0.456671
H	 0.130110	 -1.907298	 1.446726
H	 -0.193998	 -2.353078	 -0.205777
C	 1.464513	 -4.271340	 0.906028
H	 2.550210	 -2.426945	 1.111142
H	 2.225366	 -2.873730	 -0.539791
H	 1.058303	 -4.281471	 1.913453
H	 2.351562	 -4.896923	 0.900981
H	 0.731297	 -4.731727	 0.249942

	symmetry c1
}
set optking {
	frozen_dihedral = ("
		13 9 8 10
	")
}

ee = optimize('scf')
oeprop('DIPOLE', 'QUADRUPOLE', 'MULLIKEN_CHARGES')
f=open( 'psi4out.xyz', 'w' )
f.write( "23  " )
f.write( str(ee) + "\n" )
f.write( MOL.save_string_xyz() )
f.close()
--------------------------------------------------------------------------

    Molecular point group: c1
  Charge       = 0
  Multiplicity = 1
  Basis Set: 6-31G*
  Basis Set:
  @DF-RHF Final Energy:  -422.97025901638335
    Total Energy =                       -422.9702590163835794
    Molecular point group: c1
  Basis Set: 6-31G*
  Basis Set:
  Basis Set: 6-31G*
  Basis Set:
  @DF-RHF Final Energy:  -422.97064892380382
    Total Energy =                       -422.9706489238037648
  Basis Set: 6-31G*
  Basis Set:
  Basis Set: 6-31G*
  Basis Set:
  @DF-RHF Final Energy:  -422.97258502038471
    Total Energy =                       -422.9725850203842583
  Basis Set: 6-31G*
  Basis Set:
  Basis Set: 6-31G*
  Basis Set:
  @DF-RHF Final Energy:  -422.97257423802159
    Total Energy =                       -422.9725742380212523
  Basis Set: 6-31G*
  Basis Set:
  @DF-RHF Final Energy:  -422.97258808635047
    Total Energy =                       -422.9725880863511520
  @DF-RHF Final Energy:  -422.97270486325050
    Total Energy =                       -422.9727048632504420
  Basis Set: 6-31G*
  Basis Set:
  @DF-RHF Final Energy:  -422.97273093791853
    Total Energy =                       -422.9727309379181861
  Basis Set: 6-31G*
  Basis Set:
  Basis Set: 6-31G*
  Basis Set:
  @DF-RHF Final Energy:  -422.97272976372392
    Total Energy =                       -422.9727297637241463
  Basis Set: 6-31G*
  Basis Set:
  Basis Set: 6-31G*
  Basis Set:
  @DF-RHF Final Energy:  -422.97273552810447
    Total Energy =                       -422.9727355281045220
  Basis Set: 6-31G*
  Basis Set:
  Charge       = 0
  Multiplicity = 1
  Basis Set: 6-31G*
  Basis Set:

    Orbital Energies (a.u.)
    -----------------------

    Doubly Occupied:

       1A    -20.602526     2A    -20.540616     3A    -11.374208
       4A    -11.283255     5A    -11.232684     6A    -11.226296
       7A    -11.218217     8A    -11.216840     9A    -11.210805
      10A     -1.467781    11A     -1.360523    12A     -1.088818
      13A     -1.039671    14A     -1.001286    15A     -0.930783
      16A     -0.843436    17A     -0.806560    18A     -0.761951
      19A     -0.690634    20A     -0.687253    21A     -0.665695
      22A     -0.643437    23A     -0.606214    24A     -0.587824
      25A     -0.578808    26A     -0.567354    27A     -0.559376
      28A     -0.528856    29A     -0.524071    30A     -0.515256
      31A     -0.490998    32A     -0.472131    33A     -0.468071
      34A     -0.457517    35A     -0.445649    36A     -0.436798

  @DF-RHF Final Energy:  -422.97273549410403

   => Energetics <=

    Nuclear Repulsion Energy =            460.5511818540830404
    One-Electron Energy =               -1488.7834310182581703
    Two-Electron Energy =                 605.2595136700708736
    DFT Exchange-Correlation Energy =       0.0000000000000000
    Empirical Dispersion Energy =           0.0000000000000000
    PCM Polarization Energy =               0.0000000000000000
    EFP Energy =                            0.0000000000000000
    Total Energy =                       -422.9727354941041995
    Molecular point group: c1
  Basis Set: 6-31G*
  Basis Set:

  -Total Gradient:
     Atom            X                  Y                   Z
    ------   -----------------  -----------------  -----------------
       1        0.000000408257    -0.000006215606    -0.000011461952
       2       -0.000001912580     0.000002036654     0.000014921624
       3       -0.000000672060     0.000000975899    -0.000015578760
       4        0.000003708171     0.000002503007    -0.000016440620
       5        0.000000399152     0.000002591802     0.000006408626
       6        0.000000131547     0.000000823617     0.000000850883
       7       -0.000000402573    -0.000003584057     0.000004601238
       8        0.003381419484     0.004212869985     0.004403353558
       9        0.001670203534     0.002493319397    -0.005794461010
      10       -0.003042533244    -0.003829388012    -0.002799446605
      11       -0.000001398444    -0.000005304655     0.000001731386
      12        0.000011557210     0.000004567766     0.000043165092
      13       -0.002013249059    -0.002863993958     0.004195685279
      14        0.000000725385    -0.000008461856     0.000007845426
      15       -0.000004489997    -0.000007932187    -0.000029875503
      16        0.000004137935    -0.000008165619    -0.000014461785
      17       -0.000006533066     0.000009715654     0.000001469527
      18        0.000000444303     0.000001944877     0.000008385703
      19       -0.000006800487     0.000002374761    -0.000006496011
      20        0.000004176349    -0.000003989469    -0.000002732308
      21       -0.000004123182    -0.000001925102    -0.000002128614
      22       -0.000000669273     0.000002676953     0.000003823995
      23        0.000005472649     0.000002560150     0.000000840833

  **** Optimization is complete! (in 10 steps) ****
    Final optimized geometry and variables:
    Molecular point group: c1

    Geometry (in Angstrom), charge = 0, multiplicity = 1:

    O           -2.071711374387     2.392357601591    -0.154778768862
    C           -1.986425949946     1.206710677487    -0.201282970457
    C           -3.175936953119     0.281820308383    -0.240640641509
    O           -0.836597274783     0.554545779515    -0.224159587286
    H           -3.777204953487     0.525000829528    -1.108523001693
    H           -2.878992740609    -0.755921586302    -0.278760485133
    H           -3.783452755768     0.458800949663     0.638824307987
    C            0.359641811167     1.334331776244    -0.190179832285
    C            1.579249244921     0.403259499465    -0.239768971073
    H            0.330599011343     1.986806922062    -1.050919633239
    H            0.346667459823     1.937053206847     0.706035282120
    C            1.325841649392    -1.032202214766     0.236203939896
    H            2.337470192557     0.826517856185     0.413679296783
    H            1.988671638731     0.380836422625    -1.244558045138
    C            2.611033873147    -1.861473242534     0.272019957393
    H            0.880072882226    -1.013827149044     1.227937028112
    H            0.602726439356    -1.513218658165    -0.413278080862
    C            2.375003724019    -3.300284260814     0.730092166645
    H            3.332345725224    -1.386843977398     0.934063894561
    H            3.064576596629    -1.868746468812    -0.717110322152
    H            1.951661758534    -3.328741171886     1.730142656561
    H            3.302155991898    -3.864701103595     0.747366848347
    H            1.686533711197    -3.814979088935     0.065945208391

  Mulliken Charges: (a.u.)
   Center  Symbol    Alpha    Beta     Spin     Total
       1     O     4.28459  4.28459  0.00000 -0.56919
       2     C     2.61409  2.61409  0.00000  0.77182
       3     C     3.28754  3.28754  0.00000 -0.57507
       4     O     4.31259  4.31259  0.00000 -0.62517
       5     H     0.39755  0.39755  0.00000  0.20491
       6     H     0.40026  0.40026  0.00000  0.19948
       7     H     0.39749  0.39749  0.00000  0.20503
       8     C     2.99891  2.99891  0.00000  0.00218
       9     C     3.17737  3.17737  0.00000 -0.35474
      10     H     0.40724  0.40724  0.00000  0.18552
      11     H     0.40813  0.40813  0.00000  0.18373
      12     C     3.14658  3.14658  0.00000 -0.29316
      13     H     0.41652  0.41652  0.00000  0.16696
      14     H     0.41496  0.41496  0.00000  0.17008
      15     C     3.15355  3.15355  0.00000 -0.30710
      16     H     0.42114  0.42114  0.00000  0.15772
      17     H     0.41411  0.41411  0.00000  0.17179
      18     C     3.23903  3.23903  0.00000 -0.47805
      19     H     0.42353  0.42353  0.00000  0.15293
      20     H     0.42309  0.42309  0.00000  0.15382
      21     H     0.42144  0.42144  0.00000  0.15712
      22     H     0.41894  0.41894  0.00000  0.16212
      23     H     0.42137  0.42137  0.00000  0.15726

   Total alpha = 36.00000, Total beta = 36.00000, Total charge =  0.00000
