  ==> Input File <==

--------------------------------------------------------------------------
set {
	reference rhf
	basis 6-31G*
}

set_num_threads( 4 )
memory 2 gb

molecule MOL {
0 1

H	 2.338604	 -0.954222	 0.891682
O	 2.016064	 -0.864478	 0.000222
C	 1.050492	 0.053836	 0.000068
C	 -0.318135	 -0.576402	 0.000164
O	 1.285279	 1.218255	 -0.000078
C	 -1.454360	 0.441875	 -0.000474
H	 -0.374042	 -1.230163	 -0.866135
H	 -0.374274	 -1.229227	 0.867154
C	 -2.826123	 -0.230780	 0.000056
H	 -1.357605	 1.085198	 -0.868380
H	 -1.357504	 1.086451	 0.866496
H	 -2.959731	 -0.858053	 -0.876869
H	 -3.619374	 0.509403	 -0.000080
H	 -2.959371	 -0.857318	 0.877556

	symmetry c1
}
set optking {
	frozen_dihedral = ("
		1 2 3 5
	")
}

ee = optimize('scf')
oeprop('DIPOLE', 'QUADRUPOLE', 'MULLIKEN_CHARGES')
f=open( 'psi4out.xyz', 'w' )
f.write( "14  " )
f.write( str(ee) + "\n" )
f.write( MOL.save_string_xyz() )
f.close()
--------------------------------------------------------------------------

    Molecular point group: c1
  Charge       = 0
  Multiplicity = 1
  Basis Set: 6-31G*
  Basis Set:
  @DF-RHF Final Energy:  -305.85898008727071
    Total Energy =                       -305.8589800872711635
    Molecular point group: c1
  Basis Set: 6-31G*
  Basis Set:
  Basis Set: 6-31G*
  Basis Set:
  @DF-RHF Final Energy:  -305.85872034368867
    Total Energy =                       -305.8587203436885602
  Basis Set: 6-31G*
  Basis Set:
  Basis Set: 6-31G*
  Basis Set:
  @DF-RHF Final Energy:  -305.85985150295323
    Total Energy =                       -305.8598515029533473
  Basis Set: 6-31G*
  Basis Set:
  Basis Set: 6-31G*
  Basis Set:
  @DF-RHF Final Energy:  -305.86070656887341
    Total Energy =                       -305.8607065688736384
  Basis Set: 6-31G*
  Basis Set:
  Basis Set: 6-31G*
  Basis Set:
  @DF-RHF Final Energy:  -305.86071425311320
    Total Energy =                       -305.8607142531134286
  Basis Set: 6-31G*
  Basis Set:
  Charge       = 0
  Multiplicity = 1
  Basis Set: 6-31G*
  Basis Set:

    Orbital Energies (a.u.)
    -----------------------

    Doubly Occupied:

       1A    -20.594810     2A    -20.562620     3A    -11.381927
       4A    -11.242443     5A    -11.226465     6A    -11.218232
       7A     -1.460747     8A     -1.367286     9A     -1.082790
      10A     -0.976660    11A     -0.852173    12A     -0.795787
      13A     -0.709347    14A     -0.676681    15A     -0.662519
      16A     -0.628952    17A     -0.578612    18A     -0.559138
      19A     -0.542003    20A     -0.505112    21A     -0.497354
      22A     -0.483345    23A     -0.480798    24A     -0.444489

  @DF-RHF Final Energy:  -305.86071481333761

   => Energetics <=

    Nuclear Repulsion Energy =            239.1404225337437595
    One-Electron Energy =                -890.9416959644673852
    Two-Electron Energy =                 345.9405586173862162
    DFT Exchange-Correlation Energy =       0.0000000000000000
    Empirical Dispersion Energy =           0.0000000000000000
    PCM Polarization Energy =               0.0000000000000000
    EFP Energy =                            0.0000000000000000
    Total Energy =                       -305.8607148133374380
    Molecular point group: c1
  Basis Set: 6-31G*
  Basis Set:

  -Total Gradient:
     Atom            X                  Y                   Z
    ------   -----------------  -----------------  -----------------
       1       -0.003902508263    -0.004294407243     0.001311790745
       2        0.004685467694     0.005431163942    -0.004019360883
       3       -0.000448690209    -0.001057153011     0.007921052013
       4       -0.000012511042     0.000033762300     0.000028502356
       5       -0.000333571638    -0.000076890179    -0.005226371019
       6       -0.000005116112     0.000002752956    -0.000012583276
       7       -0.000005279221    -0.000002766183    -0.000005517376
       8       -0.000012697336    -0.000012077788    -0.000002307991
       9        0.000012915923    -0.000014876767     0.000003331848
      10        0.000007696920    -0.000001871291    -0.000002337272
      11        0.000008424815    -0.000005771325     0.000003601283
      12       -0.000003554738    -0.000001941141    -0.000005055226
      13        0.000012829058     0.000003309544     0.000000955043
      14       -0.000003405864    -0.000003233815     0.000004299757

  **** Optimization is complete! (in 6 steps) ****
    Final optimized geometry and variables:
    Molecular point group: c1

    Geometry (in Angstrom), charge = 0, multiplicity = 1:

    H            2.464844247277    -0.979811237333     0.816755482752
    O            2.050904941335    -0.865586907763    -0.030241075770
    C            1.054393839365     0.061353060492     0.020473319003
    C           -0.318919276087    -0.561011493079     0.009979442022
    O            1.278906422760     1.219628546697    -0.008319707729
    C           -1.458426677730     0.452608997744    -0.012121485576
    H           -0.359504626750    -1.222087928731    -0.852052586004
    H           -0.389083900985    -1.213763852830     0.877848101339
    C           -2.828839615988    -0.222793268955    -0.027249970746
    H           -1.350107612241     1.090460060082    -0.882685532740
    H           -1.376366983128     1.103645519335     0.851979263392
    H           -2.948045073835    -0.855872137313    -0.901989493895
    H           -3.623579125720     0.515582757826    -0.043887154117
    H           -2.974104002866    -0.844080066920     0.852212913272

  Mulliken Charges: (a.u.)
   Center  Symbol    Alpha    Beta     Spin     Total
       1     H     0.26582  0.26582  0.00000  0.46836
       2     O     4.36968  4.36968  0.00000 -0.73935
       3     C     2.63088  2.63088  0.00000  0.73824
       4     C     3.20831  3.20831  0.00000 -0.41661
       5     O     4.24719  4.24719  0.00000 -0.49439
       6     C     3.15271  3.15271  0.00000 -0.30542
       7     H     0.39706  0.39706  0.00000  0.20588
       8     H     0.40835  0.40835  0.00000  0.18329
       9     C     3.24280  3.24280  0.00000 -0.48561
      10     H     0.40893  0.40893  0.00000  0.18214
      11     H     0.41202  0.41202  0.00000  0.17597
      12     H     0.42027  0.42027  0.00000  0.15946
      13     H     0.41425  0.41425  0.00000  0.17150
      14     H     0.42174  0.42174  0.00000  0.15653

   Total alpha = 24.00000, Total beta = 24.00000, Total charge = -0.00000
