  ==> Input File <==

--------------------------------------------------------------------------
set {
	reference rhf
	basis 6-31G*
}

set_num_threads( 4 )
memory 2 gb

molecule MOL {
0 1

O	 -3.039891	 0.864547	 -0.858719
C	 -2.668563	 0.129746	 -0.000350
C	 -3.494899	 -0.239278	 1.204747
O	 -1.481751	 -0.454642	 0.000584
H	 -4.419688	 -0.691694	 0.867186
H	 -2.970848	 -0.919605	 1.859700
H	 -3.750124	 0.666252	 1.742108
C	 -0.334255	 0.388708	 0.000906
C	 0.891947	 -0.504646	 0.000751
H	 -0.365390	 1.025305	 -0.873475
H	 -0.365484	 1.024911	 0.875569
C	 2.191998	 0.301789	 0.000897
H	 0.855148	 -1.151283	 -0.871571
H	 0.855132	 -1.151660	 0.872805
C	 3.441114	 -0.581407	 0.000108
H	 2.215074	 0.954890	 -0.869742
H	 2.215465	 0.953923	 0.872248
C	 4.739576	 0.224112	 -0.001102
H	 3.419457	 -1.233487	 -0.870178
H	 3.420834	 -1.233096	 0.870717
H	 4.804918	 0.861552	 -0.878265
H	 5.606527	 -0.429058	 -0.001824
H	 4.806469	 0.861674	 0.875853

	symmetry c1
}
set optking {
	frozen_dihedral = ("
		1 2 4 8
	")
}

ee = optimize('scf')
oeprop('DIPOLE', 'QUADRUPOLE', 'MULLIKEN_CHARGES')
f=open( 'psi4out.xyz', 'w' )
f.write( "23  " )
f.write( str(ee) + "\n" )
f.write( MOL.save_string_xyz() )
f.close()
--------------------------------------------------------------------------

    Molecular point group: c1
  Charge       = 0
  Multiplicity = 1
  Basis Set: 6-31G*
  Basis Set:
  @DF-RHF Final Energy:  -422.96341953974428
    Total Energy =                       -422.9634195397445637
    Molecular point group: c1
  Basis Set: 6-31G*
  Basis Set:
  Basis Set: 6-31G*
  Basis Set:
  @DF-RHF Final Energy:  -422.96127393152517
    Total Energy =                       -422.9612739315253975
  Basis Set: 6-31G*
  Basis Set:
  Basis Set: 6-31G*
  Basis Set:
  @DF-RHF Final Energy:  -422.96442541426063
    Total Energy =                       -422.9644254142606314
  Basis Set: 6-31G*
  Basis Set:
  Basis Set: 6-31G*
  Basis Set:
  @DF-RHF Final Energy:  -422.96454926755365
    Total Energy =                       -422.9645492675533660
  Basis Set: 6-31G*
  Basis Set:
  @DF-RHF Final Energy:  -422.96456870779065
    Total Energy =                       -422.9645687077903631
  @DF-RHF Final Energy:  -422.96460948954388
    Total Energy =                       -422.9646094895443866
  @DF-RHF Final Energy:  -422.96463867638727
    Total Energy =                       -422.9646386763879491
  @DF-RHF Final Energy:  -422.96528045906342
    Total Energy =                       -422.9652804590637061
  @DF-RHF Final Energy:  -422.96588486638552
    Total Energy =                       -422.9658848663862045
  @DF-RHF Final Energy:  -422.96610617072798
    Total Energy =                       -422.9661061707275849
  @DF-RHF Final Energy:  -422.96618803769479
    Total Energy =                       -422.9661880376951331
  @DF-RHF Final Energy:  -422.96630207102504
    Total Energy =                       -422.9663020710250976
  @DF-RHF Final Energy:  -422.96642960887687
    Total Energy =                       -422.9664296088760693
  @DF-RHF Final Energy:  -422.96647001288579
    Total Energy =                       -422.9664700128856794
  @DF-RHF Final Energy:  -422.96648151382266
    Total Energy =                       -422.9664815138226004
  @DF-RHF Final Energy:  -422.96648358477023
    Total Energy =                       -422.9664835847702307
  @DF-RHF Final Energy:  -422.96647954815336
    Total Energy =                       -422.9664795481534156
  @DF-RHF Final Energy:  -422.96648420697267
    Total Energy =                       -422.9664842069728365
  @DF-RHF Final Energy:  -422.96647628265464
    Total Energy =                       -422.9664762826549804
  @DF-RHF Final Energy:  -422.96647389861369
    Total Energy =                       -422.9664738986137991
  @DF-RHF Final Energy:  -422.96648578026975
    Total Energy =                       -422.9664857802696361
  @DF-RHF Final Energy:  -422.96648533631060
    Total Energy =                       -422.9664853363105976
  @DF-RHF Final Energy:  -422.96648547580253
    Total Energy =                       -422.9664854758021875
  @DF-RHF Final Energy:  -422.96632673515700
    Total Energy =                       -422.9663267351567129
  @DF-RHF Final Energy:  -422.96648524174765
    Total Energy =                       -422.9664852417483871
  @DF-RHF Final Energy:  -422.96648580145995
    Total Energy =                       -422.9664858014599531
  @DF-RHF Final Energy:  -422.96648591687602
    Total Energy =                       -422.9664859168763087
  @DF-RHF Final Energy:  -422.96648589596521
    Total Energy =                       -422.9664858959656613
  @DF-RHF Final Energy:  -422.96648585793650
    Total Energy =                       -422.9664858579363909
  @DF-RHF Final Energy:  -422.96648545591069
    Total Energy =                       -422.9664854559107425
  @DF-RHF Final Energy:  -422.96648576336526
    Total Energy =                       -422.9664857633654265
  @DF-RHF Final Energy:  -422.96647313268431
    Total Energy =                       -422.9664731326848823
  @DF-RHF Final Energy:  -422.96635359011088
    Total Energy =                       -422.9663535901108844
  @DF-RHF Final Energy:  -422.96627580976752
    Total Energy =                       -422.9662758097681490
  @DF-RHF Final Energy:  -422.96648095446267
    Total Energy =                       -422.9664809544632362
  @DF-RHF Final Energy:  -422.96648417717557
    Total Energy =                       -422.9664841771760848
  Basis Set: 6-31G*
  Basis Set:
  @DF-RHF Final Energy:  -422.96648537135445
    Total Energy =                       -422.9664853713551338
  Basis Set: 6-31G*
  Basis Set:
  Basis Set: 6-31G*
  Basis Set:
  @DF-RHF Final Energy:  -422.96648540125449
    Total Energy =                       -422.9664854012546584
  Basis Set: 6-31G*
  Basis Set:
  Basis Set: 6-31G*
  Basis Set:
  @DF-RHF Final Energy:  -422.96648533929249
    Total Energy =                       -422.9664853392927171
  Basis Set: 6-31G*
  Basis Set:
  Charge       = 0
  Multiplicity = 1
  Basis Set: 6-31G*
  Basis Set:

    Orbital Energies (a.u.)
    -----------------------

    Doubly Occupied:

       1A    -20.587050     2A    -20.551721     3A    -11.375734
       4A    -11.287767     5A    -11.233968     6A    -11.225515
       7A    -11.224856     8A    -11.222446     9A    -11.213699
      10A     -1.458815    11A     -1.363958    12A     -1.094375
      13A     -1.039909    14A     -1.005743    15A     -0.931826
      16A     -0.841578    17A     -0.803636    18A     -0.773388
      19A     -0.696953    20A     -0.683454    21A     -0.657098
      22A     -0.647861    23A     -0.614282    24A     -0.589409
      25A     -0.583907    26A     -0.570765    27A     -0.556959
      28A     -0.547554    29A     -0.514442    30A     -0.504112
      31A     -0.493959    32A     -0.478707    33A     -0.472436
      34A     -0.469470    35A     -0.449110    36A     -0.433378

  @DF-RHF Final Energy:  -422.96648478370412

   => Energetics <=

    Nuclear Repulsion Energy =            448.6061501968843004
    One-Electron Energy =               -1464.7455880103761956
    Two-Electron Energy =                 593.1729530297876636
    DFT Exchange-Correlation Energy =       0.0000000000000000
    Empirical Dispersion Energy =           0.0000000000000000
    PCM Polarization Energy =               0.0000000000000000
    EFP Energy =                            0.0000000000000000
    Total Energy =                       -422.9664847837042316
    Molecular point group: c1
  Basis Set: 6-31G*
  Basis Set:

  -Total Gradient:
     Atom            X                  Y                   Z
    ------   -----------------  -----------------  -----------------
       1       -0.004177441084    -0.008349056159    -0.004152672847
       2        0.005954710403     0.014530091112     0.010139541855
       3        0.000044697702    -0.000152115569    -0.001259520072
       4       -0.001657311124    -0.006630555889    -0.011514388142
       5        0.000004172550    -0.000166467031    -0.000057064196
       6        0.000110994855    -0.000280719607     0.000107584516
       7        0.000101761115    -0.000188772974     0.000023538061
       8       -0.000278306044     0.001218605407     0.006773270327
       9       -0.000077884433    -0.000088735387     0.000042780065
      10       -0.000013005103     0.000011046543     0.000014645988
      11        0.000064019037     0.000043075181    -0.000062344032
      12       -0.000054694809     0.000011035209    -0.000028933658
      13       -0.000012298051     0.000000269892     0.000014951612
      14       -0.000046184228     0.000016947766    -0.000040166291
      15        0.000016860112     0.000015921269     0.000026592383
      16        0.000010414545     0.000012902571    -0.000009236439
      17        0.000015982046    -0.000004305217    -0.000010330215
      18        0.000000989116     0.000000756510    -0.000003432049
      19       -0.000005319173     0.000013521777    -0.000003772610
      20       -0.000000444132    -0.000011058785     0.000002663426
      21        0.000003160974     0.000003272787    -0.000003390639
      22       -0.000001956033    -0.000002737723     0.000000170461
      23       -0.000002918234    -0.000002921685    -0.000000487503

    Molecular point group: c1

    Geometry (in Angstrom), charge = 0, multiplicity = 1:

    O           -3.021042018784     0.643265752707    -1.038388448406
    C           -2.689432655119     0.082654786256    -0.050328829569
    C           -3.598874262771    -0.223999122803     1.104744515400
    O           -1.477767443540    -0.476920170177     0.100487804969
    H           -4.587271273866     0.168494697865     0.916787506784
    H           -3.640012389770    -1.296743645471     1.249931339248
    H           -3.196524640699     0.213281016723     2.011644709937
    C           -0.341258655676     0.371969208293    -0.002440189598
    C            0.901476012079    -0.495565081917     0.039048923074
    H           -0.397101552915     0.936365431591    -0.923698559281
    H           -0.351375286252     1.070097043937     0.829907455969
    C            2.188687587910     0.323751197288    -0.047705310070
    H            0.851012326747    -1.205655755753    -0.781207725193
    H            0.890251513383    -1.074137099999     0.957826588837
    C            3.449809158217    -0.542064375577    -0.009480818588
    H            2.184656098599     0.909952822724    -0.964602945458
    H            2.222266969474     1.039256631714     0.772658254940
    C            4.737724380460     0.275421488560    -0.101006555636
    H            3.418278912152    -1.259521826976    -0.826197658891
    H            3.456626801364    -1.124830681153     0.908826667452
    H            4.776349999019     0.843440654493    -1.026080434631
    H            5.613320099243    -0.365462724969    -0.069926058969
    H            4.814387051274     0.980057153611     0.722227028811

  Mulliken Charges: (a.u.)
   Center  Symbol    Alpha    Beta     Spin     Total
       1     O     4.26243  4.26243  0.00000 -0.52486
       2     C     2.62093  2.62093  0.00000  0.75814
       3     C     3.28444  3.28444  0.00000 -0.56889
       4     O     4.32030  4.32030  0.00000 -0.64061
       5     H     0.39796  0.39796  0.00000  0.20408
       6     H     0.39788  0.39788  0.00000  0.20423
       7     H     0.40579  0.40579  0.00000  0.18841
       8     C     2.99576  2.99576  0.00000  0.00847
       9     C     3.16432  3.16432  0.00000 -0.32865
      10     H     0.40617  0.40617  0.00000  0.18765
      11     H     0.42329  0.42329  0.00000  0.15341
      12     C     3.16072  3.16072  0.00000 -0.32145
      13     H     0.41046  0.41046  0.00000  0.17908
      14     H     0.41418  0.41418  0.00000  0.17164
      15     C     3.15152  3.15152  0.00000 -0.30304
      16     H     0.42002  0.42002  0.00000  0.15996
      17     H     0.42244  0.42244  0.00000  0.15512
      18     C     3.23993  3.23993  0.00000 -0.47986
      19     H     0.42037  0.42037  0.00000  0.15926
      20     H     0.42144  0.42144  0.00000  0.15712
      21     H     0.42056  0.42056  0.00000  0.15888
      22     H     0.41769  0.41769  0.00000  0.16461
      23     H     0.42136  0.42136  0.00000  0.15728

   Total alpha = 36.00000, Total beta = 36.00000, Total charge =  0.00000
