                              Psi4 1.0.54 Driver

  ==> Input File <==

--------------------------------------------------------------------------
set {
	reference rhf
	basis cc-pvtz
}

set_num_threads( 4 )
memory 2 gb

molecule MOL {
0 1

H	 -0.000105	 1.988529	 0.748933
O	 -0.000098	 1.879786	 -0.188206
C	 -0.000014	 0.545691	 -0.532416
C	 -1.286000	 -0.125171	 -0.046657
C	 1.286016	 -0.125031	 -0.046584
H	 0.000021	 0.481103	 -1.610604
F	 -1.203441	 -1.417191	 -0.248468
F	 -1.497087	 0.069481	 1.230552
F	 -2.335031	 0.315739	 -0.707343
F	 2.317750	 0.468717	 -0.594166
F	 1.336617	 -1.393765	 -0.365123
F	 1.414467	 -0.024806	 1.259108

	symmetry c1
}
set optking {
	frozen_dihedral = ("
		7 4 3 6
	")
}

ee,wfn = optimize('scf', return_wfn=True)
oeprop( wfn, 'DIPOLE', 'QUADRUPOLE', 'MULLIKEN_CHARGES')
f=open( 'psi4out.xyz', 'w' )
f.write( "12  " )
f.write( str(ee) + "\n" )
f.write( MOL.save_string_xyz() )
f.close()
--------------------------------------------------------------------------

    Molecular point group: c1
  Charge       = 0
  Multiplicity = 1
  Basis Set: CC-PVTZ
  Basis Set:
  @DF-RHF Final Energy:  -786.58821699289081
    Total Energy =                       -786.5882169928911480
    Molecular point group: c1
  Basis Set: CC-PVTZ
  Basis Set:
  Basis Set: CC-PVTZ
  Basis Set:
  @DF-RHF Final Energy:  -786.58898814128861
    Total Energy =                       -786.5889881412884961
  Basis Set: CC-PVTZ
  Basis Set:
  Basis Set: CC-PVTZ
  Basis Set:
  @DF-RHF Final Energy:  -786.58930093694778
    Total Energy =                       -786.5893009369482343
  Basis Set: CC-PVTZ
  Basis Set:
  Basis Set: CC-PVTZ
  Basis Set:
  @DF-RHF Final Energy:  -786.58935531406019
    Total Energy =                       -786.5893553140606400
  Basis Set: CC-PVTZ
  Basis Set:
  Basis Set: CC-PVTZ
  Basis Set:
  @DF-RHF Final Energy:  -786.58936015825066
    Total Energy =                       -786.5893601582509973
  Basis Set: CC-PVTZ
  Basis Set:
  Charge       = 0
  Multiplicity = 1
  Basis Set: CC-PVTZ
  Basis Set:

    Orbital Energies (a.u.)
    -----------------------

    Doubly Occupied:

       1A    -26.358501     2A    -26.358120     3A    -26.358055
       4A    -26.356473     5A    -26.354867     6A    -26.353365
       7A    -20.609665     8A    -11.520522     9A    -11.519240
      10A    -11.351606    11A     -1.772156    12A     -1.766527
      13A     -1.667585    14A     -1.663940    15A     -1.662839
      16A     -1.661073    17A     -1.439611    18A     -1.102929
      19A     -1.001998    20A     -0.945289    21A     -0.871202
      22A     -0.869056    23A     -0.859294    24A     -0.852309
      25A     -0.840191    26A     -0.822487    27A     -0.749105
      28A     -0.734481    29A     -0.731695    30A     -0.725838
      31A     -0.695890    32A     -0.691937    33A     -0.690183
      34A     -0.681583    35A     -0.677752    36A     -0.669014
      37A     -0.663782    38A     -0.657255    39A     -0.625545
      40A     -0.554303    41A     -0.510239

  @DF-RHF Final Energy:  -786.58936226187370

   => Energetics <=

    Nuclear Repulsion Energy =            670.8636400315390347
    One-Electron Energy =               -2428.9109999507727480
    Two-Electron Energy =                 971.4579976573591011
    DFT Exchange-Correlation Energy =       0.0000000000000000
    Empirical Dispersion Energy =           0.0000000000000000
    PCM Polarization Energy =               0.0000000000000000
    EFP Energy =                            0.0000000000000000
    Total Energy =                       -786.5893622618746122
    Molecular point group: c1
  Basis Set: CC-PVTZ
  Basis Set:

  -Total Gradient:
     Atom            X                  Y                   Z
    ------   -----------------  -----------------  -----------------
       1        0.000007967206    -0.000039832551    -0.000046356612
       2        0.000013422312     0.000020476972    -0.000050297573
       3        0.000784212206    -0.001245439445     0.000469368358
       4       -0.000621360660     0.000283854206    -0.001476874609
       5       -0.000151474847     0.000103106174    -0.000126102555
       6       -0.000528630231     0.001107648125    -0.000075607780
       7        0.000354425418    -0.000019990857     0.000958908584
       8       -0.000061250798     0.000016219876     0.000128121937
       9        0.000050313649    -0.000072086749     0.000059375657
      10       -0.000038420129    -0.000085745502     0.000033546872
      11        0.000086280706     0.000048580005     0.000103216681
      12        0.000104515158    -0.000116790242     0.000022701040

  **** Optimization is complete! (in 6 steps) ****
    Final optimized geometry and variables:
    Molecular point group: c1

    Geometry (in Angstrom), charge = 0, multiplicity = 1:

    H            0.026431069354     1.975712546337     0.781043743581
    O            0.068033279727     1.882108469694    -0.156677922220
    C            0.029703509551     0.554451666427    -0.524556325664
    C           -1.288007636079    -0.075282370029    -0.065838368701
    C            1.281985332469    -0.173169573574    -0.034188560132
    H            0.040997950803     0.516485497233    -1.603877618285
    F           -1.326939625142    -1.367743690987    -0.267201008934
    F           -1.491577696891     0.140843975126     1.216898373803
    F           -2.282798476161     0.468141741211    -0.722551922591
    F            2.346839106521     0.443151677029    -0.483220346456
    F            1.329552460364    -1.412338996507    -0.454012817335
    F            1.349111669104    -0.182102623938     1.280152557546

  Mulliken Charges: (a.u.)
   Center  Symbol    Alpha    Beta     Spin     Total
       1     H     0.38097  0.38097  0.00000  0.23805
       2     O     4.19010  4.19010  0.00000 -0.38019
       3     C     3.00649  3.00649  0.00000 -0.01297
       4     C     2.68388  2.68388  0.00000  0.63224
       5     C     2.68509  2.68509  0.00000  0.62982
       6     H     0.42424  0.42424  0.00000  0.15151
       7     F     4.60151  4.60151  0.00000 -0.20302
       8     F     4.61108  4.61108  0.00000 -0.22216
       9     F     4.60213  4.60213  0.00000 -0.20427
      10     F     4.60152  4.60152  0.00000 -0.20305
      11     F     4.60288  4.60288  0.00000 -0.20576
      12     F     4.61010  4.61010  0.00000 -0.22021

   Total alpha = 41.00000, Total beta = 41.00000, Total charge =  0.00000

*** Psi4 exiting successfully. Buy a developer a beer!
