  ==> Input File <==

--------------------------------------------------------------------------
set {
	reference rhf
	basis 6-31G*
}

set_num_threads( 1 )
memory 2 gb

molecule MOL {
0 1

H	 -3.420663	 1.227371	 -1.044276
O	 -3.452007	 0.283848	 -0.965577
C	 -3.181085	 -0.079926	 0.364119
C	 -1.765924	 0.277073	 0.805136
H	 -3.327791	 -1.152017	 0.410903
H	 -3.905698	 0.375695	 1.036898
C	 -0.677594	 -0.417312	 -0.014550
H	 -1.637766	 1.358238	 0.744969
H	 -1.659588	 0.017670	 1.857098
C	 0.738335	 -0.034840	 0.421385
H	 -0.814977	 -0.178223	 -1.064632
H	 -0.802730	 -1.495410	 0.071702
C	 1.621066	 -1.253121	 0.705393
H	 1.192185	 0.580698	 -0.351630
H	 0.686863	 0.586009	 1.314975
C	 3.022504	 -0.921472	 1.230881
H	 1.710155	 -1.851528	 -0.199962
H	 1.119025	 -1.883579	 1.436348
C	 3.919963	 -0.190004	 0.230918
H	 3.509470	 -1.849135	 1.521735
H	 2.934980	 -0.328067	 2.138853
H	 4.015751	 -0.754632	 -0.692748
H	 4.917229	 -0.051741	 0.637341
H	 3.532816	 0.791944	 -0.020199

	symmetry c1
}
set optking {
	frozen_dihedral = ("
		20 16 13 17,
		17 13 10 7,
		11 7 4 3,
		1 2 3 5,
		7 4 3 2
	")
}

ee = energy('scf')
oeprop('DIPOLE', 'QUADRUPOLE', 'MULLIKEN_CHARGES')
f=open( 'psi4out.xyz', 'w' )
f.write( "24  " )
f.write( str(ee) + "\n" )
f.write( MOL.save_string_xyz() )
f.close()
--------------------------------------------------------------------------

    Molecular point group: c1

    Geometry (in Angstrom), charge = 0, multiplicity = 1:

       Center              X                  Y                   Z               Mass
    ------------   -----------------  -----------------  -----------------  -----------------
           H         -3.395041853291     1.498967820835    -1.365783191008     1.007825032070
           O         -3.426385853291     0.555444820835    -1.287084191008    15.994914619560
           C         -3.155463853291     0.191670820835     0.042611808992    12.000000000000
           C         -1.740302853291     0.548669820835     0.483628808992    12.000000000000
           H         -3.302169853291    -0.880420179165     0.089395808992     1.007825032070
           H         -3.880076853291     0.647291820835     0.715390808992     1.007825032070
           C         -0.651972853291    -0.145715179165    -0.336057191008    12.000000000000
           H         -1.612144853291     1.629834820835     0.423461808992     1.007825032070
           H         -1.633966853291     0.289266820835     1.535590808992     1.007825032070
           C          0.763956146709     0.236756820835     0.099877808992    12.000000000000
           H         -0.789355853291     0.093373820835    -1.386139191008     1.007825032070
           H         -0.777108853291    -1.223813179165    -0.249805191008     1.007825032070
           C          1.646687146709    -0.981524179165     0.383885808992    12.000000000000
           H          1.217806146709     0.852294820835    -0.673137191008     1.007825032070
           H          0.712484146709     0.857605820835     0.993467808992     1.007825032070
           C          3.048125146709    -0.649875179165     0.909373808992    12.000000000000
           H          1.735776146709    -1.579931179165    -0.521469191008     1.007825032070
           H          1.144646146709    -1.611982179165     1.114840808992     1.007825032070
           C          3.945584146709     0.081592820835    -0.090589191008    12.000000000000
           H          3.535091146709    -1.577538179165     1.200227808992     1.007825032070
           H          2.960601146709    -0.056470179165     1.817345808992     1.007825032070
           H          4.041372146709    -0.483035179165    -1.014255191008     1.007825032070
           H          4.942850146709     0.219855820835     0.315833808992     1.007825032070
           H          3.558437146709     1.063540820835    -0.341706191008     1.007825032070

  Charge       = 0
  Multiplicity = 1
  Basis Set: 6-31G*
  Basis Set:

    Orbital Energies (a.u.)
    -----------------------

    Doubly Occupied:

       1A    -20.553365     2A    -11.267218     3A    -11.217835
       4A    -11.213906     5A    -11.212550     6A    -11.210701
       7A    -11.209445     8A    -11.207183     9A     -1.359935
      10A     -1.088886    11A     -1.047923    12A     -0.985195
      13A     -0.914973    14A     -0.850802    15A     -0.801087
      16A     -0.776896    17A     -0.679332    18A     -0.651336
      19A     -0.623957    20A     -0.620519    21A     -0.594436
      22A     -0.577407    23A     -0.572684    24A     -0.529826
      25A     -0.524973    26A     -0.511649    27A     -0.491164
      28A     -0.480432    29A     -0.466295    30A     -0.459431
      31A     -0.455739    32A     -0.441377    33A     -0.419857

  @DF-RHF Final Energy:  -349.24215814615792

   => Energetics <=

    Nuclear Repulsion Energy =            384.7636665567499108
    One-Electron Energy =               -1235.9750009751091966
    Two-Electron Energy =                 501.9691762722015369
    DFT Exchange-Correlation Energy =       0.0000000000000000
    Empirical Dispersion Energy =           0.0000000000000000
    PCM Polarization Energy =               0.0000000000000000
    EFP Energy =                            0.0000000000000000
    Total Energy =                       -349.2421581461576920

  Mulliken Charges: (a.u.)
   Center  Symbol    Alpha    Beta     Spin     Total
       1     H     0.28342  0.28342  0.00000  0.43317
       2     O     4.36831  4.36831  0.00000 -0.73662
       3     C     2.99661  2.99661  0.00000  0.00678
       4     C     3.17128  3.17128  0.00000 -0.34255
       5     H     0.41629  0.41629  0.00000  0.16742
       6     H     0.42840  0.42840  0.00000  0.14320
       7     C     3.15463  3.15463  0.00000 -0.30925
       8     H     0.42764  0.42764  0.00000  0.14473
       9     H     0.42224  0.42224  0.00000  0.15552
      10     C     3.15611  3.15611  0.00000 -0.31222
      11     H     0.40992  0.40992  0.00000  0.18016
      12     H     0.42099  0.42099  0.00000  0.15802
      13     C     3.15472  3.15472  0.00000 -0.30944
      14     H     0.41923  0.41923  0.00000  0.16154
      15     H     0.42339  0.42339  0.00000  0.15321
      16     C     3.15277  3.15277  0.00000 -0.30554
      17     H     0.42282  0.42282  0.00000  0.15435
      18     H     0.42288  0.42288  0.00000  0.15425
      19     C     3.24096  3.24096  0.00000 -0.48193
      20     H     0.42138  0.42138  0.00000  0.15724
      21     H     0.42393  0.42393  0.00000  0.15214
      22     H     0.42208  0.42208  0.00000  0.15584
      23     H     0.41963  0.41963  0.00000  0.16073
      24     H     0.42037  0.42037  0.00000  0.15926

   Total alpha = 33.00000, Total beta = 33.00000, Total charge = -0.00000
