  ==> Input File <==

--------------------------------------------------------------------------
set {
	reference rhf
	basis 6-31G*
}

set_num_threads( 1 )
memory 2 gb

molecule MOL {
0 1

H	 0.392775	 1.239255	 2.250317
C	 1.147434	 0.811186	 1.579461
C	 0.692068	 0.589600	 0.160137
O	 2.233797	 0.556702	 1.988340
C	 -0.558097	 -0.297372	 0.091132
H	 1.514835	 0.157176	 -0.397129
H	 0.467294	 1.563895	 -0.272362
C	 -1.850991	 0.512573	 -0.019058
H	 -0.476753	 -0.965681	 -0.762987
H	 -0.604799	 -0.930658	 0.975228
C	 -3.096943	 -0.368295	 -0.099594
H	 -1.800724	 1.150330	 -0.898172
H	 -1.931651	 1.177355	 0.838044
H	 -3.060452	 -1.020287	 -0.967456
H	 -3.996858	 0.233488	 -0.175704
H	 -3.191959	 -0.995686	 0.782074

	symmetry c1
}
set optking {
	frozen_dihedral = ("
		9 5 8 12,
		4 2 3 6
	")
}

ee = energy('scf')
oeprop('DIPOLE', 'QUADRUPOLE', 'MULLIKEN_CHARGES')
f=open( 'psi4out.xyz', 'w' )
f.write( "16  " )
f.write( str(ee) + "\n" )
f.write( MOL.save_string_xyz() )
f.close()
--------------------------------------------------------------------------

    Molecular point group: c1

    Geometry (in Angstrom), charge = 0, multiplicity = 1:

       Center              X                  Y                   Z               Mass
    ------------   -----------------  -----------------  -----------------  -----------------
           H          0.637410293869     0.943013030553     1.626070728056     1.007825032070
           C          1.392069293869     0.514944030553     0.955214728056    12.000000000000
           C          0.936703293869     0.293358030553    -0.464109271944    12.000000000000
           O          2.478432293869     0.260460030553     1.364093728056    15.994914619560
           C         -0.313461706131    -0.593613969447    -0.533114271944    12.000000000000
           H          1.759470293869    -0.139065969447    -1.021375271944     1.007825032070
           H          0.711929293869     1.267653030553    -0.896608271944     1.007825032070
           C         -1.606355706131     0.216331030553    -0.643304271944    12.000000000000
           H         -0.232117706131    -1.261922969447    -1.387233271944     1.007825032070
           H         -0.360163706131    -1.226899969447     0.350981728056     1.007825032070
           C         -2.852307706131    -0.664536969447    -0.723840271944    12.000000000000
           H         -1.556088706131     0.854088030553    -1.522418271944     1.007825032070
           H         -1.687015706131     0.881113030553     0.213797728056     1.007825032070
           H         -2.815816706131    -1.316528969447    -1.591702271944     1.007825032070
           H         -3.752222706131    -0.062753969447    -0.799950271944     1.007825032070
           H         -2.947323706131    -1.291927969447     0.157827728056     1.007825032070

  Charge       = 0
  Multiplicity = 1
  Basis Set: 6-31G*
  Basis Set:

    Orbital Energies (a.u.)
    -----------------------

    Doubly Occupied:

       1A    -20.562112     2A    -11.326648     3A    -11.236037
       4A    -11.234027     5A    -11.230894     6A    -11.219287
       7A     -1.402060     8A     -1.098201     9A     -1.018008
      10A     -0.905372    11A     -0.821734    12A     -0.789072
      13A     -0.672181    14A     -0.657591    15A     -0.614097
      16A     -0.607596    17A     -0.584242    18A     -0.554897
      19A     -0.536530    20A     -0.509703    21A     -0.485943
      22A     -0.482926    23A     -0.472492    24A     -0.409134

  @DF-RHF Final Energy:  -270.01587760217564

   => Energetics <=

    Nuclear Repulsion Energy =            230.9006766897270495
    One-Electron Energy =                -822.9716441445434612
    Two-Electron Energy =                 322.0550898526405490
    DFT Exchange-Correlation Energy =       0.0000000000000000
    Empirical Dispersion Energy =           0.0000000000000000
    PCM Polarization Energy =               0.0000000000000000
    EFP Energy =                            0.0000000000000000
    Total Energy =                       -270.0158776021758058

  Mulliken Charges: (a.u.)
   Center  Symbol    Alpha    Beta     Spin     Total
       1     H     0.43200  0.43200  0.00000  0.13601
       2     C     2.83117  2.83117  0.00000  0.33767
       3     C     3.20993  3.20993  0.00000 -0.41987
       4     O     4.23777  4.23777  0.00000 -0.47555
       5     C     3.16654  3.16654  0.00000 -0.33309
       6     H     0.39700  0.39700  0.00000  0.20599
       7     H     0.40777  0.40777  0.00000  0.18446
       8     C     3.15528  3.15528  0.00000 -0.31057
       9     H     0.41042  0.41042  0.00000  0.17916
      10     H     0.41452  0.41452  0.00000  0.17096
      11     C     3.24056  3.24056  0.00000 -0.48111
      12     H     0.41923  0.41923  0.00000  0.16154
      13     H     0.42221  0.42221  0.00000  0.15557
      14     H     0.41945  0.41945  0.00000  0.16111
      15     H     0.41658  0.41658  0.00000  0.16684
      16     H     0.41956  0.41956  0.00000  0.16087

   Total alpha = 24.00000, Total beta = 24.00000, Total charge = -0.00000
