                              Psi4 1.0.54 Driver

  ==> Input File <==

--------------------------------------------------------------------------
set {
	reference rhf
	basis cc-pvtz
}

set_num_threads( 4 )
memory 2 gb

molecule MOL {
0 1

H	 -2.498963	 -0.741158	 -0.729149
O	 -2.346257	 -0.289210	 0.080372
C	 -1.183935	 0.486039	 -0.009831
C	 0.062853	 -0.375310	 0.027457
H	 -1.178881	 1.094526	 -0.908634
H	 -1.184406	 1.155156	 0.838676
O	 1.016632	 0.200509	 -0.803319
H	 -0.173787	 -1.387211	 -0.305640
H	 0.425903	 -0.445185	 1.050632
C	 2.232110	 -0.471984	 -0.843155
H	 2.111805	 -1.488959	 -1.209984
H	 2.885754	 0.065052	 -1.514741
H	 2.695734	 -0.513190	 0.139634

	symmetry c1
}
set optking {
	frozen_dihedral = ("
		8 4 3 5
	")
}

ee,wfn = optimize('scf', return_wfn=True)
oeprop( wfn, 'DIPOLE', 'QUADRUPOLE', 'MULLIKEN_CHARGES')
f=open( 'psi4out.xyz', 'w' )
f.write( "13  " )
f.write( str(ee) + "\n" )
f.write( MOL.save_string_xyz() )
f.close()
--------------------------------------------------------------------------

    Molecular point group: c1
  Charge       = 0
  Multiplicity = 1
  Basis Set: CC-PVTZ
  Basis Set:
  @DF-RHF Final Energy:  -268.05821458920661
    Total Energy =                       -268.0582145892066137
    Molecular point group: c1
  Basis Set: CC-PVTZ
  Basis Set:
  Basis Set: CC-PVTZ
  Basis Set:
  @DF-RHF Final Energy:  -268.05864547568677
    Total Energy =                       -268.0586454756866033
  Basis Set: CC-PVTZ
  Basis Set:
  Basis Set: CC-PVTZ
  Basis Set:
  @DF-RHF Final Energy:  -268.05878937023306
    Total Energy =                       -268.0587893702330575
  Basis Set: CC-PVTZ
  Basis Set:
  Basis Set: CC-PVTZ
  Basis Set:
  @DF-RHF Final Energy:  -268.05879303447443
    Total Energy =                       -268.0587930344744905
  Basis Set: CC-PVTZ
  Basis Set:
  Charge       = 0
  Multiplicity = 1
  Basis Set: CC-PVTZ
  Basis Set:

    Orbital Energies (a.u.)
    -----------------------

    Doubly Occupied:

       1A    -20.557052     2A    -20.552038     3A    -11.269970
       4A    -11.268256     5A    -11.267451     6A     -1.392581
       7A     -1.368844     8A     -1.017873     9A     -0.915318
      10A     -0.843934    11A     -0.709457    12A     -0.679689
      13A     -0.661590    14A     -0.632844    15A     -0.609175
      16A     -0.568060    17A     -0.541641    18A     -0.493328
      19A     -0.484616    20A     -0.440921    21A     -0.423152

  @DF-RHF Final Energy:  -268.05879347574830

   => Energetics <=

    Nuclear Repulsion Energy =            190.3502753453891216
    One-Electron Energy =                -743.4225564971907261
    Two-Electron Energy =                 285.0134876760532734
    DFT Exchange-Correlation Energy =       0.0000000000000000
    Empirical Dispersion Energy =           0.0000000000000000
    PCM Polarization Energy =               0.0000000000000000
    EFP Energy =                            0.0000000000000000
    Total Energy =                       -268.0587934757483026
    Molecular point group: c1
  Basis Set: CC-PVTZ
  Basis Set:

  -Total Gradient:
     Atom            X                  Y                   Z
    ------   -----------------  -----------------  -----------------
       1       -0.000011878100    -0.000002460761     0.000000977247
       2        0.000014134898     0.000002349401    -0.000025170906
       3       -0.002758533725    -0.003839124911    -0.001270899212
       4        0.001366362049     0.001803702199    -0.004391980210
       5        0.002110413402     0.002928591292     0.001819616322
       6        0.000011662795     0.000002337175     0.000004145817
       7        0.000014671504    -0.000014731483     0.000009964049
       8       -0.000773181899    -0.000897616028     0.003874386606
       9        0.000007271815     0.000017454331    -0.000016227622
      10        0.000011019599    -0.000006090136     0.000004327406
      11        0.000003315832     0.000001470283    -0.000006685029
      12       -0.000001389127     0.000000407454    -0.000003343988
      13        0.000006130959     0.000003711185     0.000000889520

  **** Optimization is complete! (in 5 steps) ****
    Final optimized geometry and variables:
    Molecular point group: c1

    Geometry (in Angstrom), charge = 0, multiplicity = 1:

    H           -2.487673132760    -0.601104236412    -0.296379868754
    O           -2.304485352627    -0.075953006436     0.461338402435
    C           -1.109597306960     0.626791431387     0.279151412182
    C            0.119589154350    -0.277501213179     0.316636346300
    H           -1.093874619283     1.190765992025    -0.647296953009
    H           -1.062745014320     1.349296751292     1.081963060144
    O            1.092711110679     0.242121164163    -0.529155267881
    H           -0.165429489432    -1.289236793916     0.028827742626
    H            0.503851678863    -0.349768455315     1.332620616940
    C            2.303116479132    -0.440406926909    -0.503987354400
    H            2.180017744528    -1.479120409122    -0.802632047170
    H            2.971025959942     0.045186997187    -1.200255922376
    H            2.751607568050    -0.418318053401     0.486404555205

  Mulliken Charges: (a.u.)
   Center  Symbol    Alpha    Beta     Spin     Total
       1     H     0.39335  0.39335  0.00000  0.21331
       2     O     4.20266  4.20266  0.00000 -0.40532
       3     C     2.97087  2.97087  0.00000  0.05825
       4     C     2.96596  2.96596  0.00000  0.06808
       5     H     0.46528  0.46528  0.00000  0.06944
       6     H     0.45710  0.45710  0.00000  0.08580
       7     O     4.17418  4.17418  0.00000 -0.34836
       8     H     0.47893  0.47893  0.00000  0.04213
       9     H     0.47449  0.47449  0.00000  0.05103
      10     C     3.02987  3.02987  0.00000 -0.05974
      11     H     0.47125  0.47125  0.00000  0.05750
      12     H     0.44611  0.44611  0.00000  0.10778
      13     H     0.46995  0.46995  0.00000  0.06011

   Total alpha = 21.00000, Total beta = 21.00000, Total charge =  0.00000

*** Psi4 exiting successfully. Buy a developer a beer!
