  ==> Input File <==

--------------------------------------------------------------------------
set {
	reference rhf
	basis 6-31G*
}

set_num_threads( 4 )
memory 2 gb

molecule MOL {
0 1

H	 1.598514	 1.700138	 -1.622895
O	 0.709842	 1.526488	 -1.347894
C	 0.702312	 0.627605	 -0.264544
C	 -0.714990	 0.596302	 0.266387
H	 1.375725	 0.964266	 0.519056
H	 1.007800	 -0.367334	 -0.581243
O	 -1.405996	 -0.526611	 -0.195820
H	 -1.257453	 1.468809	 -0.075599
H	 -0.688972	 0.618407	 1.353696
H	 -0.890587	 -1.292708	 0.022039

	symmetry c1
}
set optking {
	frozen_dihedral = ("
		5 3 4 7
	")
}

ee = optimize('scf')
oeprop('DIPOLE', 'QUADRUPOLE', 'MULLIKEN_CHARGES')
f=open( 'psi4out.xyz', 'w' )
f.write( "10  " )
f.write( str(ee) + "\n" )
f.write( MOL.save_string_xyz() )
f.close()
--------------------------------------------------------------------------

    Molecular point group: c1
  Charge       = 0
  Multiplicity = 1
  Basis Set: 6-31G*
  Basis Set:
  @DF-RHF Final Energy:  -228.91317089310056
    Total Energy =                       -228.9131708931005846
    Molecular point group: c1
  Basis Set: 6-31G*
  Basis Set:
  Basis Set: 6-31G*
  Basis Set:
  @DF-RHF Final Energy:  -228.91463968266379
    Total Energy =                       -228.9146396826637897
  Basis Set: 6-31G*
  Basis Set:
  Basis Set: 6-31G*
  Basis Set:
  @DF-RHF Final Energy:  -228.91525799414407
    Total Energy =                       -228.9152579941440706
  Basis Set: 6-31G*
  Basis Set:
  Basis Set: 6-31G*
  Basis Set:
  @DF-RHF Final Energy:  -228.91532463652018
    Total Energy =                       -228.9153246365202392
  Basis Set: 6-31G*
  Basis Set:
  Basis Set: 6-31G*
  Basis Set:
  @DF-RHF Final Energy:  -228.91533818711432
    Total Energy =                       -228.9153381871142869
  Basis Set: 6-31G*
  Basis Set:
  Charge       = 0
  Multiplicity = 1
  Basis Set: 6-31G*
  Basis Set:

    Orbital Energies (a.u.)
    -----------------------

    Doubly Occupied:

       1A    -20.559159     2A    -20.555272     3A    -11.274640
       4A    -11.269898     5A     -1.372959     6A     -1.356611
       7A     -0.998083     8A     -0.846741     9A     -0.716797
      10A     -0.688521    11A     -0.644494    12A     -0.593917
      13A     -0.578623    14A     -0.531775    15A     -0.486237
      16A     -0.444549    17A     -0.434509

  @DF-RHF Final Energy:  -228.91533884413474

   => Energetics <=

    Nuclear Repulsion Energy =            131.8674676119736091
    One-Electron Energy =                -574.8600422339704892
    Two-Electron Energy =                 214.0772357778620858
    DFT Exchange-Correlation Energy =       0.0000000000000000
    Empirical Dispersion Energy =           0.0000000000000000
    PCM Polarization Energy =               0.0000000000000000
    EFP Energy =                            0.0000000000000000
    Total Energy =                       -228.9153388441347943
    Molecular point group: c1
  Basis Set: 6-31G*
  Basis Set:

  -Total Gradient:
     Atom            X                  Y                   Z
    ------   -----------------  -----------------  -----------------
       1       -0.000021010412     0.000000186891     0.000005512295
       2        0.000027577185    -0.000069584264     0.000077329743
       3       -0.000450444342     0.004022842257    -0.000402362529
       4       -0.001201887797     0.001357441768    -0.002953715847
       5        0.000638069167    -0.003658217045     0.000896630711
       6        0.000035125697    -0.000027503275     0.000016587249
       7        0.001007286459    -0.001603137505     0.002343884261
       8       -0.000021910128    -0.000005704533     0.000000852060
       9       -0.000022913156    -0.000017257000     0.000013169443
      10        0.000010107327     0.000000932703     0.000002112618

  **** Optimization is complete! (in 6 steps) ****
    Final optimized geometry and variables:
    Molecular point group: c1

    Geometry (in Angstrom), charge = 0, multiplicity = 1:

    H            1.757937763723     1.052471068190    -1.300189721332
    O            0.895227969462     1.036850795324    -0.910912857809
    C            0.870198375862     0.126612413825     0.153327939041
    C           -0.561361008280     0.001886327837     0.671594237643
    H            1.535268013151     0.438774860004     0.957221236052
    H            1.208690033690    -0.856457805249    -0.170353635122
    O           -1.249120820086    -1.106615221579     0.156817051853
    H           -1.114569282725     0.879942604978     0.372459409769
    H           -0.555890698228    -0.036690181226     1.759066998985
    H           -0.892173103409    -1.900840978279     0.527636350845

  Mulliken Charges: (a.u.)
   Center  Symbol    Alpha    Beta     Spin     Total
       1     H     0.27986  0.27986  0.00000  0.44027
       2     O     4.36692  4.36692  0.00000 -0.73383
       3     C     3.00425  3.00425  0.00000 -0.00850
       4     C     3.00791  3.00791  0.00000 -0.01582
       5     H     0.43128  0.43128  0.00000  0.13745
       6     H     0.43089  0.43089  0.00000  0.13823
       7     O     4.36640  4.36640  0.00000 -0.73279
       8     H     0.39883  0.39883  0.00000  0.20235
       9     H     0.43015  0.43015  0.00000  0.13970
      10     H     0.28352  0.28352  0.00000  0.43295

   Total alpha = 17.00000, Total beta = 17.00000, Total charge = -0.00000
