  ==> Input File <==

--------------------------------------------------------------------------
set {
	reference rhf
	basis cc-pvtz
}

set_num_threads( 4 )
memory 2 gb

molecule MOL {
0 1

H	 -2.698799	 -0.000846	 0.036018
C	 -1.694291	 -0.000483	 0.434279
O	 -0.828718	 -0.000608	 -0.655022
H	 -1.576855	 0.881100	 1.056504
H	 -1.576401	 -0.881658	 1.057001
C	 0.557892	 0.000078	 -0.420099
C	 1.266653	 1.165557	 -1.100972
C	 0.900835	 -0.099883	 1.062010
H	 0.890295	 -0.912982	 -0.898063
H	 0.971905	 1.230215	 -2.141165
H	 2.339596	 1.017734	 -1.059887
H	 1.049370	 2.113426	 -0.622522
H	 0.352463	 -0.912843	 1.521824
H	 1.960509	 -0.293600	 1.181753
H	 0.673743	 0.814359	 1.597857

	symmetry c1
}
set optking {
	frozen_dihedral = ("
		9 6 3 2
	")
}

ee = optimize('scf')
oeprop('DIPOLE', 'QUADRUPOLE', 'MULLIKEN_CHARGES')
f=open( 'psi4out.xyz', 'w' )
f.write( "15  " )
f.write( str(ee) + "\n" )
f.write( MOL.save_string_xyz() )
f.close()
--------------------------------------------------------------------------

    Molecular point group: c1
  Charge       = 0
  Multiplicity = 1
  Basis Set: CC-PVTZ
  Basis Set:
  @DF-RHF Final Energy:  -232.21779388217681
    Total Energy =                       -232.2177938821769771
    Molecular point group: c1
  Basis Set: CC-PVTZ
  Basis Set:
  Basis Set: CC-PVTZ
  Basis Set:
  @DF-RHF Final Energy:  -232.21840716110421
    Total Energy =                       -232.2184071611041531
  Basis Set: CC-PVTZ
  Basis Set:
  Basis Set: CC-PVTZ
  Basis Set:
  @DF-RHF Final Energy:  -232.22147669784502
    Total Energy =                       -232.2214766978448779
  Basis Set: CC-PVTZ
  Basis Set:
  Basis Set: CC-PVTZ
  Basis Set:
  @DF-RHF Final Energy:  -232.22176417269154
    Total Energy =                       -232.2217641726917918
  Basis Set: CC-PVTZ
  Basis Set:
  Basis Set: CC-PVTZ
  Basis Set:
  @DF-RHF Final Energy:  -232.22182294212618
    Total Energy =                       -232.2218229421262663
  Basis Set: CC-PVTZ
  Basis Set:
  Basis Set: CC-PVTZ
  Basis Set:
  @DF-RHF Final Energy:  -232.22183907262894
    Total Energy =                       -232.2218390726288817
  Basis Set: CC-PVTZ
  Basis Set:
  Charge       = 0
  Multiplicity = 1
  Basis Set: CC-PVTZ
  Basis Set:

    Orbital Energies (a.u.)
    -----------------------

    Doubly Occupied:

       1A    -20.538648     2A    -11.273276     3A    -11.259849
       4A    -11.213526     5A    -11.203480     6A     -1.369356
       7A     -1.053990     8A     -0.949449     9A     -0.917265
      10A     -0.782457    11A     -0.676769    12A     -0.643776
      13A     -0.631987    14A     -0.585825    15A     -0.554082
      16A     -0.541721    17A     -0.533627    18A     -0.507846
      19A     -0.493213    20A     -0.448711    21A     -0.400664

  @DF-RHF Final Energy:  -232.22183942507098

   => Energetics <=

    Nuclear Repulsion Energy =            198.1233555800334329
    One-Electron Energy =                -707.5313599754819052
    Two-Electron Energy =                 277.1861649703773764
    DFT Exchange-Correlation Energy =       0.0000000000000000
    Empirical Dispersion Energy =           0.0000000000000000
    PCM Polarization Energy =               0.0000000000000000
    EFP Energy =                            0.0000000000000000
    Total Energy =                       -232.2218394250710958
    Molecular point group: c1
  Basis Set: CC-PVTZ
  Basis Set:

  -Total Gradient:
     Atom            X                  Y                   Z
    ------   -----------------  -----------------  -----------------
       1       -0.000000975297    -0.000005213768     0.000001296532
       2        0.000014144801     0.000533772208     0.000016907595
       3        0.000043007543    -0.000633171991    -0.000072330595
       4       -0.000018675686    -0.000011402165     0.000001802088
       5        0.000014379428    -0.000014977702    -0.000006414416
       6       -0.000119180792    -0.000196254041     0.000466733916
       7       -0.000036995606     0.000039076777     0.000036628412
       8       -0.000001937418     0.000023145637    -0.000016672728
       9        0.000130600835     0.000251834683    -0.000439817854
      10        0.000001653855    -0.000023190733     0.000005070279
      11       -0.000027248314    -0.000014412249     0.000022828837
      12        0.000007914975     0.000043028214    -0.000008351713
      13       -0.000013216583     0.000001543841    -0.000005794274
      14       -0.000005010542    -0.000000023580    -0.000011697729
      15        0.000011538801     0.000006244868     0.000009811647

  **** Optimization is complete! (in 7 steps) ****
    Final optimized geometry and variables:
    Molecular point group: c1

    Geometry (in Angstrom), charge = 0, multiplicity = 1:

    H           -2.739421822050    -0.080455679840     0.048080208239
    C           -1.766870436761    -0.170117061154     0.510965324617
    O           -0.837717149917    -0.187907572291    -0.522425147561
    H           -1.633138144510     0.673645180358     1.180444115933
    H           -1.755837202337    -1.083509030222     1.097983632748
    C            0.551095608757    -0.256807383221    -0.272960598036
    C            1.201550922286     0.927323650633    -0.971874083089
    C            0.955709091652    -0.330669011146     1.194290361196
    H            0.897517655056    -1.166710867002    -0.755108766660
    H            0.903152782710     0.953486653619    -2.011780961740
    H            2.282952500203     0.859415245787    -0.924835517498
    H            0.895104838305     1.859199676080    -0.508741193185
    H            0.516757669954    -1.183018207586     1.696002038209
    H            2.032190153457    -0.437731570133     1.249504502558
    H            0.685797837583     0.566959776723     1.737564122584

  Mulliken Charges: (a.u.)
   Center  Symbol    Alpha    Beta     Spin     Total
       1     H     0.44194  0.44194  0.00000  0.11613
       2     C     3.03695  3.03695  0.00000 -0.07390
       3     O     4.18959  4.18959  0.00000 -0.37918
       4     H     0.47107  0.47107  0.00000  0.05785
       5     H     0.46963  0.46963  0.00000  0.06075
       6     C     2.92230  2.92230  0.00000  0.15540
       7     C     3.13892  3.13892  0.00000 -0.27783
       8     C     3.17215  3.17215  0.00000 -0.34430
       9     H     0.45551  0.45551  0.00000  0.08898
      10     H     0.44604  0.44604  0.00000  0.10793
      11     H     0.45934  0.45934  0.00000  0.08133
      12     H     0.45793  0.45793  0.00000  0.08413
      13     H     0.44479  0.44479  0.00000  0.11042
      14     H     0.44316  0.44316  0.00000  0.11369
      15     H     0.45069  0.45069  0.00000  0.09862

   Total alpha = 21.00000, Total beta = 21.00000, Total charge = -0.00000
