  ==> Input File <==

--------------------------------------------------------------------------
set {
	reference rhf
	basis 6-31G*
}

set_num_threads( 1 )
memory 2 gb

molecule MOL {
0 1

O	 -2.439739	 -0.935931	 -0.423848
C	 -1.921153	 0.064240	 -0.045697
C	 -2.624470	 1.379923	 0.150949
O	 -0.632575	 0.154573	 0.251549
H	 -2.168117	 2.136577	 -0.476876
H	 -3.669540	 1.273223	 -0.098610
H	 -2.519365	 1.700893	 1.180846
C	 0.160891	 -1.019931	 0.106212
C	 1.589627	 -0.672828	 0.480843
H	 0.089836	 -1.367806	 -0.916050
H	 -0.238459	 -1.792301	 0.749618
C	 2.643941	 -1.496290	 -0.261271
H	 1.693211	 -0.827976	 1.552819
H	 1.752335	 0.386590	 0.300795
C	 4.069040	 -1.139765	 0.159424
H	 2.466698	 -2.554157	 -0.077960
H	 2.531369	 -1.344313	 -1.329722
H	 4.797412	 -1.735924	 -0.381041
H	 4.221655	 -1.313572	 1.220922
H	 4.285962	 -0.093870	 -0.038379

	symmetry c1
}
set optking {
	frozen_dihedral = ("
		16 12 9 8,
		2 4 8 10,
		1 2 4 8
	")
}

ee = energy('scf')
oeprop('DIPOLE', 'QUADRUPOLE', 'MULLIKEN_CHARGES')
f=open( 'psi4out.xyz', 'w' )
f.write( "20  " )
f.write( str(ee) + "\n" )
f.write( MOL.save_string_xyz() )
f.close()
--------------------------------------------------------------------------

    Molecular point group: c1

    Geometry (in Angstrom), charge = 0, multiplicity = 1:

       Center              X                  Y                   Z               Mass
    ------------   -----------------  -----------------  -----------------  -----------------
           O         -2.536391095846    -0.482038833353    -0.475786114516    15.994914619560
           C         -2.017805095846     0.518132166647    -0.097635114516    12.000000000000
           C         -2.721122095846     1.833815166647     0.099010885484    12.000000000000
           O         -0.729227095846     0.608465166647     0.199610885484    15.994914619560
           H         -2.264769095846     2.590469166647    -0.528814114516     1.007825032070
           H         -3.766192095846     1.727115166647    -0.150548114516     1.007825032070
           H         -2.616017095846     2.154785166647     1.128907885484     1.007825032070
           C          0.064238904154    -0.566038833353     0.054273885484    12.000000000000
           C          1.492974904154    -0.218935833353     0.428904885484    12.000000000000
           H         -0.006816095846    -0.913913833353    -0.967988114516     1.007825032070
           H         -0.335111095846    -1.338408833353     0.697679885484     1.007825032070
           C          2.547288904154    -1.042397833353    -0.313209114516    12.000000000000
           H          1.596558904154    -0.374083833353     1.500880885484     1.007825032070
           H          1.655682904154     0.840482166647     0.248856885484     1.007825032070
           C          3.972387904154    -0.685872833353     0.107485885484    12.000000000000
           H          2.370045904154    -2.100264833353    -0.129898114516     1.007825032070
           H          2.434716904154    -0.890420833353    -1.381660114516     1.007825032070
           H          4.700759904154    -1.282031833353    -0.432979114516     1.007825032070
           H          4.125002904154    -0.859679833353     1.168983885484     1.007825032070
           H          4.189309904154     0.360022166647    -0.090317114516     1.007825032070

  Charge       = 0
  Multiplicity = 1
  Basis Set: 6-31G*
  Basis Set:

    Orbital Energies (a.u.)
    -----------------------

    Doubly Occupied:

       1A    -20.601270     2A    -20.543515     3A    -11.373839
       4A    -11.281232     5A    -11.232937     6A    -11.226198
       7A    -11.223323     8A    -11.215936     9A     -1.467300
      10A     -1.361574    11A     -1.087450    12A     -1.029641
      13A     -0.981007    14A     -0.881320    15A     -0.807766
      16A     -0.777585    17A     -0.690619    18A     -0.685007
      19A     -0.667960    20A     -0.636972    21A     -0.596897
      22A     -0.593833    23A     -0.570232    24A     -0.558252
      25A     -0.544797    26A     -0.520340    27A     -0.509058
      28A     -0.483613    29A     -0.480909    30A     -0.476112
      31A     -0.450011    32A     -0.436838

  @DF-RHF Final Energy:  -383.94225805652837

   => Energetics <=

    Nuclear Repulsion Energy =            378.9863756922472362
    One-Electron Energy =               -1273.8706378772344578
    Two-Electron Energy =                 510.9420041284588478
    DFT Exchange-Correlation Energy =       0.0000000000000000
    Empirical Dispersion Energy =           0.0000000000000000
    PCM Polarization Energy =               0.0000000000000000
    EFP Energy =                            0.0000000000000000
    Total Energy =                       -383.9422580565283170

  Mulliken Charges: (a.u.)
   Center  Symbol    Alpha    Beta     Spin     Total
       1     O     4.28336  4.28336  0.00000 -0.56672
       2     C     2.61996  2.61996  0.00000  0.76008
       3     C     3.28154  3.28154  0.00000 -0.56309
       4     O     4.31071  4.31071  0.00000 -0.62141
       5     H     0.40065  0.40065  0.00000  0.19869
       6     H     0.39701  0.39701  0.00000  0.20598
       7     H     0.40060  0.40060  0.00000  0.19879
       8     C     2.99689  2.99689  0.00000  0.00622
       9     C     3.16740  3.16740  0.00000 -0.33480
      10     H     0.41034  0.41034  0.00000  0.17932
      11     H     0.40995  0.40995  0.00000  0.18010
      12     C     3.15954  3.15954  0.00000 -0.31908
      13     H     0.41709  0.41709  0.00000  0.16582
      14     H     0.40916  0.40916  0.00000  0.18168
      15     C     3.24012  3.24012  0.00000 -0.48024
      16     H     0.42040  0.42040  0.00000  0.15920
      17     H     0.41866  0.41866  0.00000  0.16268
      18     H     0.41689  0.41689  0.00000  0.16622
      19     H     0.41993  0.41993  0.00000  0.16014
      20     H     0.41979  0.41979  0.00000  0.16042

   Total alpha = 32.00000, Total beta = 32.00000, Total charge = -0.00000
