                              Psi4 1.0.54 Driver

  ==> Input File <==

--------------------------------------------------------------------------
set {
	reference rhf
	basis cc-pvtz
}

set_num_threads( 4 )
memory 2 gb

molecule MOL {
0 1

H	 1.498732	 -1.323122	 -0.686686
O	 1.583947	 -0.677544	 -0.001533
C	 0.489979	 0.078084	 0.002623
C	 -0.763662	 -0.754014	 0.000816
O	 0.539051	 1.259395	 -0.000088
C	 -2.038001	 0.074705	 -0.000833
H	 -0.712945	 -1.405886	 -0.864342
H	 -0.715137	 -1.405770	 0.866182
H	 -2.087267	 0.710831	 -0.874232
H	 -2.903419	 -0.576199	 -0.001922
H	 -2.089467	 0.710909	 0.872389

	symmetry c1
}
set optking {
	frozen_dihedral = ("
		1 2 3 5
	")
}

ee,wfn = optimize('scf', return_wfn=True)
oeprop( wfn, 'DIPOLE', 'QUADRUPOLE', 'MULLIKEN_CHARGES')
f=open( 'psi4out.xyz', 'w' )
f.write( "11  " )
f.write( str(ee) + "\n" )
f.write( MOL.save_string_xyz() )
f.close()
--------------------------------------------------------------------------

    Molecular point group: c1
  Charge       = 0
  Multiplicity = 1
  Basis Set: CC-PVTZ
  Basis Set:
  @DF-RHF Final Energy:  -266.93574189767230
    Total Energy =                       -266.9357418976724148
    Molecular point group: c1
  Basis Set: CC-PVTZ
  Basis Set:
  Basis Set: CC-PVTZ
  Basis Set:
  @DF-RHF Final Energy:  -266.93707647443182
    Total Energy =                       -266.9370764744318194
  Basis Set: CC-PVTZ
  Basis Set:
  Basis Set: CC-PVTZ
  Basis Set:
  @DF-RHF Final Energy:  -266.93706066705261
    Total Energy =                       -266.9370606670527195
  Basis Set: CC-PVTZ
  Basis Set:
  Basis Set: CC-PVTZ
  Basis Set:
  @DF-RHF Final Energy:  -266.93718543173463
    Total Energy =                       -266.9371854317345765
  Basis Set: CC-PVTZ
  Basis Set:
  Basis Set: CC-PVTZ
  Basis Set:
  @DF-RHF Final Energy:  -266.93721276389795
    Total Energy =                       -266.9372127638981169
  Basis Set: CC-PVTZ
  Basis Set:
  Charge       = 0
  Multiplicity = 1
  Basis Set: CC-PVTZ
  Basis Set:

    Orbital Energies (a.u.)
    -----------------------

    Doubly Occupied:

       1A    -20.594981     2A    -20.545852     3A    -11.374438
       4A    -11.250374     5A    -11.222913     6A     -1.467298
       7A     -1.374134     8A     -1.067928     9A     -0.909607
      10A     -0.822442    11A     -0.718381    12A     -0.672408
      13A     -0.662331    14A     -0.617877    15A     -0.581200
      16A     -0.533597    17A     -0.524290    18A     -0.509974
      19A     -0.489914    20A     -0.448036

  @DF-RHF Final Energy:  -266.93721331002064

   => Energetics <=

    Nuclear Repulsion Energy =            179.6893407273153116
    One-Electron Energy =                -720.4771627667271332
    Two-Electron Energy =                 273.8506087293911264
    DFT Exchange-Correlation Energy =       0.0000000000000000
    Empirical Dispersion Energy =           0.0000000000000000
    PCM Polarization Energy =               0.0000000000000000
    EFP Energy =                            0.0000000000000000
    Total Energy =                       -266.9372133100206952
    Molecular point group: c1
  Basis Set: CC-PVTZ
  Basis Set:

  -Total Gradient:
     Atom            X                  Y                   Z
    ------   -----------------  -----------------  -----------------
       1        0.002628685834     0.004469293003    -0.004306211074
       2       -0.003413091080    -0.005594607157     0.002849284963
       3        0.000994944991     0.000942744139     0.007268567071
       4        0.000022326991     0.000022058770     0.000079032921
       5       -0.000220056768     0.000155071610    -0.005834518632
       6       -0.000015156366     0.000003124838    -0.000023403686
       7        0.000003341875     0.000010384466    -0.000026815178
       8       -0.000005946727    -0.000001773180    -0.000021542089
       9        0.000005546616    -0.000003805155     0.000005928706
      10       -0.000004286785     0.000000389428     0.000005416498
      11        0.000003691424    -0.000002880767     0.000004260498

  **** Optimization is complete! (in 6 steps) ****
    Final optimized geometry and variables:
    Molecular point group: c1

    Geometry (in Angstrom), charge = 0, multiplicity = 1:

    H            1.617162683781    -1.276165501137    -0.736290731092
    O            1.638214363635    -0.628416781163    -0.052705009972
    C            0.496566874884     0.088435775654    -0.002235660070
    C           -0.762839820270    -0.744307804402     0.028699038839
    O            0.526444389279     1.261837220061     0.022990830955
    C           -2.039123273970     0.080994288885     0.054373647453
    H           -0.747325196460    -1.404157352013    -0.835339720955
    H           -0.693461295927    -1.391804886296     0.896369225135
    H           -2.110768237792     0.713327880040    -0.820306509389
    H           -2.904154152033    -0.570164436217     0.079215161433
    H           -2.066201232556     0.721093031039     0.925425536391

  Mulliken Charges: (a.u.)
   Center  Symbol    Alpha    Beta     Spin     Total
       1     H     0.38855  0.38855  0.00000  0.22290
       2     O     4.15983  4.15983  0.00000 -0.31966
       3     C     2.80606  2.80606  0.00000  0.38788
       4     C     3.10861  3.10861  0.00000 -0.21721
       5     O     4.16468  4.16468  0.00000 -0.32936
       6     C     3.13972  3.13972  0.00000 -0.27945
       7     H     0.45324  0.45324  0.00000  0.09351
       8     H     0.43688  0.43688  0.00000  0.12624
       9     H     0.44757  0.44757  0.00000  0.10486
      10     H     0.45026  0.45026  0.00000  0.09948
      11     H     0.44460  0.44460  0.00000  0.11080

   Total alpha = 20.00000, Total beta = 20.00000, Total charge =  0.00000

*** Psi4 exiting successfully. Buy a developer a beer!
