  ==> Input File <==

--------------------------------------------------------------------------
set {
	reference rhf
	basis 6-31G*
}

set_num_threads( 4 )
memory 2 gb

molecule MOL {
0 1

H	 1.691013	 1.985671	 -2.489128
O	 0.929521	 1.892063	 -1.935002
C	 1.274014	 1.178390	 -0.774328
C	 0.031547	 1.023609	 0.088541
H	 2.037095	 1.712748	 -0.211250
H	 1.685215	 0.205140	 -1.032783
C	 -1.134819	 0.293262	 -0.585751
H	 -0.296667	 2.016226	 0.383961
H	 0.316428	 0.501061	 1.000136
C	 -1.917817	 -0.639439	 0.339494
H	 -0.758119	 -0.268455	 -1.433105
H	 -1.813832	 1.041889	 -0.986690
H	 -2.777680	 -1.057197	 -0.174994
H	 -1.310268	 -1.471279	 0.680599
H	 -2.283753	 -0.111424	 1.216626

	symmetry c1
}
set optking {
	frozen_dihedral = ("
		8 4 7 11
	")
}

ee = optimize('scf')
oeprop('DIPOLE', 'QUADRUPOLE', 'MULLIKEN_CHARGES')
f=open( 'psi4out.xyz', 'w' )
f.write( "15  " )
f.write( str(ee) + "\n" )
f.write( MOL.save_string_xyz() )
f.close()
--------------------------------------------------------------------------

    Molecular point group: c1
  Charge       = 0
  Multiplicity = 1
  Basis Set: 6-31G*
  Basis Set:
  @DF-RHF Final Energy:  -232.14090224910524
    Total Energy =                       -232.1409022491051815
    Molecular point group: c1
  Basis Set: 6-31G*
  Basis Set:
  Basis Set: 6-31G*
  Basis Set:
  @DF-RHF Final Energy:  -232.14145627849865
    Total Energy =                       -232.1414562784985378
  Basis Set: 6-31G*
  Basis Set:
  Basis Set: 6-31G*
  Basis Set:
  @DF-RHF Final Energy:  -232.14150229967868
    Total Energy =                       -232.1415022996786774
  Basis Set: 6-31G*
  Basis Set:
  Charge       = 0
  Multiplicity = 1
  Basis Set: 6-31G*
  Basis Set:

    Orbital Energies (a.u.)
    -----------------------

    Doubly Occupied:

       1A    -20.552987     2A    -11.267815     3A    -11.211887
       4A    -11.208876     5A    -11.205656     6A     -1.359791
       7A     -1.062635     8A     -0.973859     9A     -0.856540
      10A     -0.786270    11A     -0.703059    12A     -0.645680
      13A     -0.601539    14A     -0.587277    15A     -0.549402
      16A     -0.537027    17A     -0.503970    18A     -0.476050
      19A     -0.467659    20A     -0.452339    21A     -0.430197

  @DF-RHF Final Energy:  -232.14150280108677

   => Energetics <=

    Nuclear Repulsion Energy =            188.7017103944288294
    One-Electron Energy =                -688.8053969465247519
    Two-Electron Energy =                 267.9621837510091495
    DFT Exchange-Correlation Energy =       0.0000000000000000
    Empirical Dispersion Energy =           0.0000000000000000
    PCM Polarization Energy =               0.0000000000000000
    EFP Energy =                            0.0000000000000000
    Total Energy =                       -232.1415028010868014
    Molecular point group: c1
  Basis Set: 6-31G*
  Basis Set:

  -Total Gradient:
     Atom            X                  Y                   Z
    ------   -----------------  -----------------  -----------------
       1       -0.000002729181    -0.000020095404     0.000033651892
       2       -0.000089067985    -0.000002602360    -0.000006257343
       3        0.000112325304     0.000070095282    -0.000021256733
       4       -0.001600557741    -0.001052398591     0.003542230298
       5        0.000022677827    -0.000004698136     0.000008099291
       6        0.000001432932    -0.000022713445     0.000044689004
       7        0.000942268206    -0.003302479776     0.002078291891
       8        0.001165904696     0.001354672257    -0.003351923974
       9       -0.000007430662    -0.000009740367    -0.000039516000
      10       -0.000047159948    -0.000053562074    -0.000033361736
      11       -0.000519548290     0.002981499418    -0.002263095318
      12       -0.000006990951     0.000032639994     0.000013387784
      13        0.000009901988    -0.000025283019     0.000011220394
      14        0.000020272752     0.000031897312     0.000011494410
      15       -0.000001298952     0.000022768906    -0.000027653852

  **** Optimization is complete! (in 4 steps) ****
    Final optimized geometry and variables:
    Molecular point group: c1

    Geometry (in Angstrom), charge = 0, multiplicity = 1:

    H            1.778482695464     1.237531280588    -1.879654549226
    O            1.039274198071     1.161671586200    -1.293444786293
    C            1.399398021234     0.395298552863    -0.172101430096
    C            0.171986426359     0.231990998096     0.708410036601
    H            2.194048164048     0.886991446446     0.386638696187
    H            1.769120501985    -0.582198330773    -0.479697866954
    C           -0.986723109664    -0.498429225058     0.004852866831
    H           -0.142330213446     1.228667114463     1.003369939062
    H            0.470464472116    -0.299575606165     1.608926452556
    C           -1.787995993364    -1.403254361850     0.938872090805
    H           -0.604565239803    -1.067258403888    -0.838432565691
    H           -1.649839819451     0.238202275790    -0.437161450243
    H           -2.615851622524    -1.873728788109     0.417298650197
    H           -1.165437724715    -2.191945901644     1.352807906158
    H           -2.200227328355    -0.839264702434     1.771306081822

  Mulliken Charges: (a.u.)
   Center  Symbol    Alpha    Beta     Spin     Total
       1     H     0.28068  0.28068  0.00000  0.43863
       2     O     4.36946  4.36946  0.00000 -0.73892
       3     C     3.00012  3.00012  0.00000 -0.00025
       4     C     3.16088  3.16088  0.00000 -0.32176
       5     H     0.42982  0.42982  0.00000  0.14035
       6     H     0.43276  0.43276  0.00000  0.13449
       7     C     3.15050  3.15050  0.00000 -0.30100
       8     H     0.41322  0.41322  0.00000  0.17356
       9     H     0.42239  0.42239  0.00000  0.15522
      10     C     3.24107  3.24107  0.00000 -0.48214
      11     H     0.41924  0.41924  0.00000  0.16152
      12     H     0.41397  0.41397  0.00000  0.17206
      13     H     0.41994  0.41994  0.00000  0.16012
      14     H     0.42395  0.42395  0.00000  0.15210
      15     H     0.42199  0.42199  0.00000  0.15602

   Total alpha = 21.00000, Total beta = 21.00000, Total charge =  0.00000
