                              Psi4 1.0.54 Driver

  ==> Input File <==

--------------------------------------------------------------------------
set {
	reference rhf
	basis cc-pvtz
}

set_num_threads( 4 )
memory 2 gb

molecule MOL {
0 1

H	 0.114685	 -0.025620	 0.151368
N	 -0.625934	 -0.663929	 -0.000707
C	 -1.978635	 -0.158664	 0.001017
C	 -0.313361	 -1.963467	 -0.200909
H	 -2.519057	 -0.493535	 -0.876362
H	 -1.938890	 0.917202	 -0.004137
H	 -2.514266	 -0.485137	 0.884506
C	 1.168155	 -2.267865	 -0.165238
O	 -1.131899	 -2.812219	 -0.397611
H	 1.585721	 -2.002060	 0.798912
H	 1.313143	 -3.320998	 -0.341182
H	 1.690367	 -1.699315	 -0.925938

	symmetry c1
}
set optking {
	frozen_dihedral = ("
		4 2 3 5
	")
}

ee,wfn = optimize('scf', return_wfn=True)
oeprop( wfn, 'DIPOLE', 'QUADRUPOLE', 'MULLIKEN_CHARGES')
f=open( 'psi4out.xyz', 'w' )
f.write( "12  " )
f.write( str(ee) + "\n" )
f.write( MOL.save_string_xyz() )
f.close()
--------------------------------------------------------------------------

    Molecular point group: c1
  Charge       = 0
  Multiplicity = 1
  Basis Set: CC-PVTZ
  Basis Set:
  @DF-RHF Final Energy:  -247.10101526512702
    Total Energy =                       -247.1010152651269891
    Molecular point group: c1
  Basis Set: CC-PVTZ
  Basis Set:
  Basis Set: CC-PVTZ
  Basis Set:
  @DF-RHF Final Energy:  -247.10119927730261
    Total Energy =                       -247.1011992773025554
  Basis Set: CC-PVTZ
  Basis Set:
  Basis Set: CC-PVTZ
  Basis Set:
  @DF-RHF Final Energy:  -247.10094737974151
    Total Energy =                       -247.1009473797413989
  Basis Set: CC-PVTZ
  Basis Set:
  Basis Set: CC-PVTZ
  Basis Set:
  @DF-RHF Final Energy:  -247.10125707409904
    Total Energy =                       -247.1012570740988963
  Basis Set: CC-PVTZ
  Basis Set:
  @DF-RHF Final Energy:  -247.10126101449077
    Total Energy =                       -247.1012610144908876
  Basis Set: CC-PVTZ
  Basis Set:
  @DF-RHF Final Energy:  -247.10127588647961
    Total Energy =                       -247.1012758864794705
  Basis Set: CC-PVTZ
  Basis Set:
  Basis Set: CC-PVTZ
  Basis Set:
  @DF-RHF Final Energy:  -247.10128023019234
    Total Energy =                       -247.1012802301924580
  Basis Set: CC-PVTZ
  Basis Set:
  Basis Set: CC-PVTZ
  Basis Set:
  @DF-RHF Final Energy:  -247.10128323572877
    Total Energy =                       -247.1012832357285447
  Basis Set: CC-PVTZ
  Basis Set:
  Charge       = 0
  Multiplicity = 1
  Basis Set: CC-PVTZ
  Basis Set:

    Orbital Energies (a.u.)
    -----------------------

    Doubly Occupied:

       1A    -20.507269     2A    -15.574311     3A    -11.335189
       4A    -11.253850     5A    -11.228121     6A     -1.388932
       7A     -1.230418     8A     -1.016456     9A     -0.932936
      10A     -0.789106    11A     -0.690541    12A     -0.650979
      13A     -0.636274    14A     -0.584682    15A     -0.582748
      16A     -0.558055    17A     -0.546828    18A     -0.507630
      19A     -0.417580    20A     -0.390412

  @DF-RHF Final Energy:  -247.10128380739798

   => Energetics <=

    Nuclear Repulsion Energy =            181.8613390019228291
    One-Electron Energy =                -696.2806207753333183
    Two-Electron Energy =                 267.3179979660123990
    DFT Exchange-Correlation Energy =       0.0000000000000000
    Empirical Dispersion Energy =           0.0000000000000000
    PCM Polarization Energy =               0.0000000000000000
    EFP Energy =                            0.0000000000000000
    Total Energy =                       -247.1012838073980902
    Molecular point group: c1
  Basis Set: CC-PVTZ
  Basis Set:

  -Total Gradient:
     Atom            X                  Y                   Z
    ------   -----------------  -----------------  -----------------
       1        0.000003898447     0.000013646207    -0.000063441555
       2       -0.000016220157    -0.000079640842     0.000295171908
       3        0.000041227426     0.000126624936    -0.000157219227
       4       -0.000004061873     0.000026590761    -0.000115084597
       5       -0.000027062210    -0.000083455283     0.000059221634
       6        0.000000018369     0.000005916044     0.000014471068
       7       -0.000005748325    -0.000011378921    -0.000009311753
       8       -0.000000179545    -0.000006376583     0.000019764776
       9        0.000006689699     0.000006629752    -0.000029120135
      10        0.000008156306     0.000018515807    -0.000010299145
      11        0.000000634591    -0.000003564401     0.000014818874
      12       -0.000007352728    -0.000013507479    -0.000018971848

  **** Optimization is complete! (in 9 steps) ****
    Final optimized geometry and variables:
    Molecular point group: c1

    Geometry (in Angstrom), charge = 0, multiplicity = 1:

    H            0.692634866359     1.550278283220     0.325451558247
    N           -0.032067947788     0.911445098353     0.114999209383
    C           -1.399903957791     1.375887739909     0.138033098099
    C            0.277087044851    -0.392777865873    -0.046866016241
    H           -1.940680835312     0.985355053930    -0.710912574891
    H           -1.401701241718     2.455714397670     0.089340097661
    H           -1.915658059752     1.064612821217     1.038414047703
    C            1.753529365242    -0.715766857634     0.008399648205
    O           -0.557059575400    -1.230109050972    -0.226653688016
    H            2.159151661417    -0.458443444723     0.980190529313
    H            1.888099735965    -1.770535032397    -0.166991251117
    H            2.294871763507    -0.151403714796    -0.741697192778

  Mulliken Charges: (a.u.)
   Center  Symbol    Alpha    Beta     Spin     Total
       1     H     0.41180  0.41180  0.00000  0.17641
       2     N     3.61800  3.61800  0.00000 -0.23601
       3     C     3.07720  3.07720  0.00000 -0.15441
       4     C     2.83770  2.83770  0.00000  0.32460
       5     H     0.44336  0.44336  0.00000  0.11328
       6     H     0.45572  0.45572  0.00000  0.08855
       7     H     0.45446  0.45446  0.00000  0.09108
       8     C     3.15363  3.15363  0.00000 -0.30727
       9     O     4.21485  4.21485  0.00000 -0.42969
      10     H     0.45009  0.45009  0.00000  0.09983
      11     H     0.43365  0.43365  0.00000  0.13270
      12     H     0.44954  0.44954  0.00000  0.10093

   Total alpha = 20.00000, Total beta = 20.00000, Total charge = -0.00000

*** Psi4 exiting successfully. Buy a developer a beer!
