  ==> Input File <==

--------------------------------------------------------------------------
set {
	reference rhf
	basis 6-31G*
}

set_num_threads( 4 )
memory 2 gb

molecule MOL {
0 1

O	 -0.988096	 -1.408613	 0.050699
C	 -0.676749	 -0.249230	 -0.009274
C	 -1.746085	 0.827156	 -0.009539
N	 0.623947	 0.147590	 -0.102813
H	 -1.701500	 1.431508	 -0.908902
H	 -2.703425	 0.330732	 0.036390
H	 -1.647323	 1.487769	 0.845106
C	 1.039087	 0.897071	 -1.272349
C	 1.698606	 -0.405156	 0.692061
H	 1.748961	 1.662143	 -0.977796
H	 0.179955	 1.361738	 -1.723920
H	 1.516209	 0.251447	 -2.006479
H	 2.446901	 0.360773	 0.857734
H	 1.349439	 -0.734176	 1.657857
H	 2.181881	 -1.244104	 0.194644

	symmetry c1
}
set optking {
	frozen_dihedral = ("
		8 4 2 3
	")
}

ee = optimize('scf')
oeprop('DIPOLE', 'QUADRUPOLE', 'MULLIKEN_CHARGES')
f=open( 'psi4out.xyz', 'w' )
f.write( "15  " )
f.write( str(ee) + "\n" )
f.write( MOL.save_string_xyz() )
f.close()
--------------------------------------------------------------------------

    Molecular point group: c1
  Charge       = 0
  Multiplicity = 1
  Basis Set: 6-31G*
  Basis Set:
  @DF-RHF Final Energy:  -286.00737476072322
    Total Energy =                       -286.0073747607232804
    Molecular point group: c1
  Basis Set: 6-31G*
  Basis Set:
  Basis Set: 6-31G*
  Basis Set:
  @DF-RHF Final Energy:  -286.01629071495455
    Total Energy =                       -286.0162907149543798
  Basis Set: 6-31G*
  Basis Set:
  Basis Set: 6-31G*
  Basis Set:
  @DF-RHF Final Energy:  -286.02061866468841
    Total Energy =                       -286.0206186646885271
  Basis Set: 6-31G*
  Basis Set:
  Basis Set: 6-31G*
  Basis Set:
  @DF-RHF Final Energy:  -286.02201523349282
    Total Energy =                       -286.0220152334928230
  Basis Set: 6-31G*
  Basis Set:
  @DF-RHF Final Energy:  -286.02237962342213
    Total Energy =                       -286.0223796234220117
  @DF-RHF Final Energy:  -286.02254703543616
    Total Energy =                       -286.0225470354361619
  @DF-RHF Final Energy:  -286.02260649562720
    Total Energy =                       -286.0226064956273149
  @DF-RHF Final Energy:  -286.02267856958338
    Total Energy =                       -286.0226785695836043
  @DF-RHF Final Energy:  -286.02275378017077
    Total Energy =                       -286.0227537801708877
  @DF-RHF Final Energy:  -286.02282430361186
    Total Energy =                       -286.0228243036120830
  Basis Set: 6-31G*
  Basis Set:
  @DF-RHF Final Energy:  -286.02292731591149
    Total Energy =                       -286.0229273159114882
  Basis Set: 6-31G*
  Basis Set:
  Basis Set: 6-31G*
  Basis Set:
  @DF-RHF Final Energy:  -286.02294606153328
    Total Energy =                       -286.0229460615332755
  Basis Set: 6-31G*
  Basis Set:
  Basis Set: 6-31G*
  Basis Set:
  @DF-RHF Final Energy:  -286.02295637760892
    Total Energy =                       -286.0229563776090913
  Basis Set: 6-31G*
  Basis Set:
  Charge       = 0
  Multiplicity = 1
  Basis Set: 6-31G*
  Basis Set:

    Orbital Energies (a.u.)
    -----------------------

    Doubly Occupied:

       1A    -20.534600     2A    -15.576727     3A    -11.344839
       4A    -11.264140     5A    -11.244351     6A    -11.228222
       7A     -1.398945     8A     -1.240665     9A     -1.012512
      10A     -0.966995    11A     -0.909209    12A     -0.736398
      13A     -0.679776    14A     -0.657978    15A     -0.648510
      16A     -0.597513    17A     -0.580456    18A     -0.570245
      19A     -0.558306    20A     -0.538135    21A     -0.524812
      22A     -0.497344    23A     -0.421454    24A     -0.378533

  @DF-RHF Final Energy:  -286.02295677445238

   => Energetics <=

    Nuclear Repulsion Energy =            252.8138872208156442
    One-Electron Energy =                -889.4523555798714369
    Two-Electron Energy =                 350.6155115846036097
    DFT Exchange-Correlation Energy =       0.0000000000000000
    Empirical Dispersion Energy =           0.0000000000000000
    PCM Polarization Energy =               0.0000000000000000
    EFP Energy =                            0.0000000000000000
    Total Energy =                       -286.0229567744521546
    Molecular point group: c1
  Basis Set: 6-31G*
  Basis Set:

  -Total Gradient:
     Atom            X                  Y                   Z
    ------   -----------------  -----------------  -----------------
       1        0.000009170372     0.000027439799     0.000054097070
       2        0.002289693028    -0.004470588130    -0.011527695687
       3       -0.000649934677     0.001000814505     0.006842875436
       4       -0.004569139669     0.009652212793     0.007144560577
       5        0.000000086863     0.000002036425     0.000036293864
       6       -0.000010570237     0.000018811824     0.000018338024
       7       -0.000011909618     0.000005620310     0.000024511082
       8        0.002924265051    -0.006224095055    -0.002544401990
       9       -0.000008341162    -0.000002099923    -0.000057168993
      10       -0.000001782546    -0.000007148043     0.000000357447
      11        0.000018495071     0.000000296075     0.000002542499
      12        0.000002646702     0.000006639336     0.000000791340
      13        0.000005682428    -0.000001862674     0.000005786343
      14       -0.000003764096    -0.000003504317    -0.000003028042
      15        0.000005402491    -0.000004572922     0.000002141029

  **** Optimization is complete! (in 14 steps) ****
    Final optimized geometry and variables:
    Molecular point group: c1

    Geometry (in Angstrom), charge = 0, multiplicity = 1:

    O           -0.844461450567    -1.366132897530     0.388766108624
    C           -0.659569646422    -0.220512038625     0.101819860410
    C           -1.824742950955     0.718355728231    -0.148129527060
    N            0.602323938436     0.360888038350     0.134300922514
    H           -2.098039261132     0.729172021137    -1.199084209383
    H           -2.671279338460     0.342120957648     0.408758581230
    H           -1.597219996702     1.729783455337     0.161018907677
    C            1.025024729187     1.049666440855    -1.077562001544
    C            1.645803330518    -0.511702363415     0.652069779750
    H            1.904453193156     1.642780702067    -0.862000307554
    H            0.252626815699     1.720298844808    -1.429500062737
    H            1.268970501117     0.351436297925    -1.876613672672
    H            2.533301963595     0.084456289105     0.826551433396
    H            1.327183395400    -0.947469391476     1.586197643430
    H            1.892511325973    -1.318549158475    -0.033688378269

  Mulliken Charges: (a.u.)
   Center  Symbol    Alpha    Beta     Spin     Total
       1     O     4.28189  4.28189  0.00000 -0.56378
       2     C     2.64649  2.64649  0.00000  0.70702
       3     C     3.28968  3.28968  0.00000 -0.57937
       4     N     3.80980  3.80980  0.00000 -0.61960
       5     H     0.40523  0.40523  0.00000  0.18955
       6     H     0.39295  0.39295  0.00000  0.21411
       7     H     0.40445  0.40445  0.00000  0.19109
       8     C     3.15467  3.15467  0.00000 -0.30933
       9     C     3.14449  3.14449  0.00000 -0.28898
      10     H     0.40816  0.40816  0.00000  0.18368
      11     H     0.40864  0.40864  0.00000  0.18272
      12     H     0.41738  0.41738  0.00000  0.16524
      13     H     0.41779  0.41779  0.00000  0.16442
      14     H     0.40003  0.40003  0.00000  0.19994
      15     H     0.41836  0.41836  0.00000  0.16328

   Total alpha = 24.00000, Total beta = 24.00000, Total charge =  0.00000
