  ==> Input File <==

--------------------------------------------------------------------------
set {
	reference rhf
	basis cc-pvtz
}

set_num_threads( 4 )
memory 2 gb

molecule MOL {
0 1

H	 -2.596638	 1.074188	 -0.840293
N	 -1.615606	 1.106732	 -0.662561
C	 -0.869421	 0.490722	 -1.744171
H	 -1.447053	 0.617413	 0.190759
C	 0.614087	 0.537284	 -1.458370
H	 -1.151103	 -0.544962	 -1.930074
H	 -1.056442	 1.047257	 -2.655951
O	 0.881195	 -0.248324	 -0.336237
H	 1.167984	 0.162342	 -2.317899
H	 0.919450	 1.565485	 -1.278132
C	 2.208068	 -0.234417	 0.074171
H	 2.725499	 -1.027054	 -0.446768
H	 2.688377	 0.712084	 -0.164856
H	 2.295137	 -0.403407	 1.144883

	symmetry c1
}
set optking {
	frozen_dihedral = ("
		5 8 11 13
	")
}

ee = optimize('scf')
oeprop('DIPOLE', 'QUADRUPOLE', 'MULLIKEN_CHARGES')
f=open( 'psi4out.xyz', 'w' )
f.write( "14  " )
f.write( str(ee) + "\n" )
f.write( MOL.save_string_xyz() )
f.close()
--------------------------------------------------------------------------

    Molecular point group: c1
  Charge       = 0
  Multiplicity = 1
  Basis Set: CC-PVTZ
  Basis Set:
  @DF-RHF Final Energy:  -248.22363315791509
    Total Energy =                       -248.2236331579151738
    Molecular point group: c1
  Basis Set: CC-PVTZ
  Basis Set:
  Basis Set: CC-PVTZ
  Basis Set:
  @DF-RHF Final Energy:  -248.22423527064697
    Total Energy =                       -248.2242352706468296
  Basis Set: CC-PVTZ
  Basis Set:
  Basis Set: CC-PVTZ
  Basis Set:
  @DF-RHF Final Energy:  -248.22436282578511
    Total Energy =                       -248.2243628257851356
  Basis Set: CC-PVTZ
  Basis Set:
  Charge       = 0
  Multiplicity = 1
  Basis Set: CC-PVTZ
  Basis Set:

    Orbital Energies (a.u.)
    -----------------------

    Doubly Occupied:

       1A    -20.549071     2A    -15.523283     3A    -11.264309
       4A    -11.263456     5A    -11.239632     6A     -1.382305
       7A     -1.175768     8A     -1.000576     9A     -0.907814
      10A     -0.815740    11A     -0.684181    12A     -0.675047
      13A     -0.646732    14A     -0.611976    15A     -0.607618
      16A     -0.541595    17A     -0.532321    18A     -0.498158
      19A     -0.474200    20A     -0.417218    21A     -0.383669

  @DF-RHF Final Energy:  -248.22436382393721

   => Energetics <=

    Nuclear Repulsion Energy =            194.5681312671449632
    One-Electron Energy =                -723.1956509392615544
    Two-Electron Energy =                 280.4031558481791535
    DFT Exchange-Correlation Energy =       0.0000000000000000
    Empirical Dispersion Energy =           0.0000000000000000
    PCM Polarization Energy =               0.0000000000000000
    EFP Energy =                            0.0000000000000000
    Total Energy =                       -248.2243638239374377
    Molecular point group: c1
  Basis Set: CC-PVTZ
  Basis Set:

  -Total Gradient:
     Atom            X                  Y                   Z
    ------   -----------------  -----------------  -----------------
       1        0.000004673420     0.000000052413    -0.000016926172
       2        0.000003969470     0.000004473729    -0.000000013771
       3       -0.000002898989    -0.000085247016     0.000049409040
       4        0.000013401055     0.000009363704    -0.000010808852
       5       -0.000356326345     0.001909020250     0.001334376391
       6       -0.000023476396    -0.000007908492    -0.000007533555
       7        0.000015787277     0.000003504087     0.000009824655
       8        0.000842164870    -0.002883182553    -0.002575565983
       9       -0.000013746668    -0.000030959211     0.000050785925
      10        0.000023882634     0.000015558484    -0.000006517737
      11       -0.001157031687     0.002058010319     0.003691490877
      12       -0.000006590241    -0.000007469325    -0.000005524974
      13        0.000727746991    -0.001005532002    -0.002496919284
      14       -0.000071555393     0.000020315609    -0.000016076561

  **** Optimization is complete! (in 4 steps) ****
    Final optimized geometry and variables:
    Molecular point group: c1

    Geometry (in Angstrom), charge = 0, multiplicity = 1:

    H           -2.843370969092     0.741991411326    -0.016656427627
    N           -1.861097179136     0.779293912833     0.152984859962
    C           -1.120883525133     0.167219207466    -0.934839359851
    H           -1.683033459389     0.290463408872     1.004587147008
    C            0.364559151598     0.218725772521    -0.659767718612
    H           -1.400587349383    -0.869050174705    -1.120358072446
    H           -1.315948249099     0.724412924439    -1.844603247407
    O            0.638877648526    -0.563966481884     0.463225869210
    H            0.910908339004    -0.154572461703    -1.525015612533
    H            0.667850032580     1.247136286387    -0.481545485109
    C            1.966266652851    -0.565781530642     0.881648787335
    H            2.524315725228    -1.363680385426     0.397410461011
    H            2.461708701520     0.371728206047     0.647267331231
    H            1.990865977794    -0.724371474512     1.950630207794

  Mulliken Charges: (a.u.)
   Center  Symbol    Alpha    Beta     Spin     Total
       1     H     0.43029  0.43029  0.00000  0.13942
       2     N     3.69424  3.69424  0.00000 -0.38847
       3     C     3.02299  3.02299  0.00000 -0.04598
       4     H     0.42233  0.42233  0.00000  0.15535
       5     C     2.96894  2.96894  0.00000  0.06212
       6     H     0.46458  0.46458  0.00000  0.07084
       7     H     0.45872  0.45872  0.00000  0.08256
       8     O     4.18237  4.18237  0.00000 -0.36475
       9     H     0.47093  0.47093  0.00000  0.05814
      10     H     0.46723  0.46723  0.00000  0.06553
      11     C     3.02953  3.02953  0.00000 -0.05907
      12     H     0.46493  0.46493  0.00000  0.07013
      13     H     0.47254  0.47254  0.00000  0.05493
      14     H     0.45038  0.45038  0.00000  0.09924

   Total alpha = 21.00000, Total beta = 21.00000, Total charge =  0.00000
