  ==> Input File <==

--------------------------------------------------------------------------
set {
	reference rhf
	basis 6-31G*
}

set_num_threads( 1 )
memory 2 gb

molecule MOL {
0 1

H	 -2.172150	 0.880146	 0.502514
C	 -2.018062	 -0.000025	 -0.114509
O	 -0.774054	 0.001095	 -0.743181
H	 -2.760490	 0.003458	 -0.901350
H	 -2.173624	 -0.884374	 0.496163
C	 0.367737	 -0.454540	 -0.039446
C	 1.500572	 -0.302413	 -1.052142
C	 0.644432	 0.418225	 1.188931
C	 0.219392	 -1.925700	 0.361550
H	 1.590887	 0.733700	 -1.358319
H	 1.294676	 -0.897412	 -1.934727
H	 2.447597	 -0.623419	 -0.630525
H	 0.676496	 1.465131	 0.906106
H	 1.600184	 0.154434	 1.630013
H	 -0.111608	 0.295321	 1.956950
H	 -0.046699	 -2.525442	 -0.502484
H	 1.154638	 -2.301983	 0.763123
H	 -0.540348	 -2.067807	 1.122623

	symmetry c1
}
set optking {
	frozen_dihedral = ("
		2 3 6 7
	")
}

ee = energy('scf')
oeprop('DIPOLE', 'QUADRUPOLE', 'MULLIKEN_CHARGES')
f=open( 'psi4out.xyz', 'w' )
f.write( "18  " )
f.write( str(ee) + "\n" )
f.write( MOL.save_string_xyz() )
f.close()
--------------------------------------------------------------------------

    Molecular point group: c1

    Geometry (in Angstrom), charge = 0, multiplicity = 1:

       Center              X                  Y                   Z               Mass
    ------------   -----------------  -----------------  -----------------  -----------------
           H         -2.139852959101     1.254419456677     0.567089504223     1.007825032070
           C         -1.985764959101     0.374248456677    -0.049933495777    12.000000000000
           O         -0.741756959101     0.375368456677    -0.678605495777    15.994914619560
           H         -2.728192959101     0.377731456677    -0.836774495777     1.007825032070
           H         -2.141326959101    -0.510100543323     0.560738504223     1.007825032070
           C          0.400034040899    -0.080266543323     0.025129504223    12.000000000000
           C          1.532869040899     0.071860456677    -0.987566495777    12.000000000000
           C          0.676729040899     0.792498456677     1.253506504223    12.000000000000
           C          0.251689040899    -1.551426543323     0.426125504223    12.000000000000
           H          1.623184040899     1.107973456677    -1.293743495777     1.007825032070
           H          1.326973040899    -0.523138543323    -1.870151495777     1.007825032070
           H          2.479894040899    -0.249145543323    -0.565949495777     1.007825032070
           H          0.708793040899     1.839404456677     0.970681504223     1.007825032070
           H          1.632481040899     0.528707456677     1.694588504223     1.007825032070
           H         -0.079310959101     0.669594456677     2.021525504223     1.007825032070
           H         -0.014401959101    -2.151168543323    -0.437908495777     1.007825032070
           H          1.186935040899    -1.927709543323     0.827698504223     1.007825032070
           H         -0.508050959101    -1.693533543323     1.187198504223     1.007825032070

  Charge       = 0
  Multiplicity = 1
  Basis Set: 6-31G*
  Basis Set:

    Orbital Energies (a.u.)
    -----------------------

    Doubly Occupied:

       1A    -20.546367     2A    -11.281479     3A    -11.260303
       4A    -11.208892     5A    -11.208603     6A    -11.203245
       7A     -1.369901     8A     -1.073068     9A     -0.945966
      10A     -0.939790    11A     -0.912301    12A     -0.752473
      13A     -0.655478    14A     -0.644178    15A     -0.637726
      16A     -0.592178    17A     -0.574092    18A     -0.552745
      19A     -0.535169    20A     -0.523641    21A     -0.514847
      22A     -0.487978    23A     -0.486262    24A     -0.438681
      25A     -0.403754

  @DF-RHF Final Energy:  -271.17464435707433

   => Energetics <=

    Nuclear Repulsion Energy =            272.2943263278762629
    One-Electron Energy =                -907.4393497451810617
    Two-Electron Energy =                 363.9703790602299591
    DFT Exchange-Correlation Energy =       0.0000000000000000
    Empirical Dispersion Energy =           0.0000000000000000
    PCM Polarization Energy =               0.0000000000000000
    EFP Energy =                            0.0000000000000000
    Total Energy =                       -271.1746443570748966

  Mulliken Charges: (a.u.)
   Center  Symbol    Alpha    Beta     Spin     Total
       1     H     0.42771  0.42771  0.00000  0.14459
       2     C     3.07845  3.07845  0.00000 -0.15691
       3     O     4.31892  4.31892  0.00000 -0.63784
       4     H     0.41414  0.41414  0.00000  0.17172
       5     H     0.43058  0.43058  0.00000  0.13885
       6     C     2.84323  2.84323  0.00000  0.31354
       7     C     3.23306  3.23306  0.00000 -0.46613
       8     C     3.24640  3.24640  0.00000 -0.49281
       9     C     3.24750  3.24750  0.00000 -0.49500
      10     H     0.41405  0.41405  0.00000  0.17191
      11     H     0.41413  0.41413  0.00000  0.17174
      12     H     0.42515  0.42515  0.00000  0.14970
      13     H     0.41330  0.41330  0.00000  0.17340
      14     H     0.42001  0.42001  0.00000  0.15998
      15     H     0.42063  0.42063  0.00000  0.15875
      16     H     0.41319  0.41319  0.00000  0.17362
      17     H     0.41943  0.41943  0.00000  0.16113
      18     H     0.42012  0.42012  0.00000  0.15976

   Total alpha = 25.00000, Total beta = 25.00000, Total charge =  0.00000
