                              Psi4 1.0.54 Driver

  ==> Input File <==

--------------------------------------------------------------------------
set {
	reference rhf
	basis cc-pvtz
}

set_num_threads( 4 )
memory 2 gb

molecule MOL {
0 1

H	 -3.436473	 1.252944	 -1.023892
O	 -3.458596	 0.315260	 -0.960865
C	 -3.176635	 -0.080824	 0.355601
C	 -1.763371	 0.265266	 0.799691
H	 -3.321825	 -1.153438	 0.379502
H	 -3.895468	 0.357385	 1.043382
C	 -0.673390	 -0.426948	 -0.013392
H	 -1.631049	 1.344913	 0.747560
H	 -1.664587	 -0.001624	 1.849167
C	 0.737842	 -0.043159	 0.423759
H	 -0.806103	 -0.190518	 -1.063345
H	 -0.797221	 -1.503753	 0.074146
C	 1.824000	 -0.743224	 -0.390623
H	 0.850588	 1.033777	 0.343840
H	 0.868587	 -0.286314	 1.476203
C	 3.255957	 -0.453067	 0.062319
H	 1.718250	 -0.470599	 -1.438164
H	 1.658105	 -1.815850	 -0.339904
C	 4.285272	 -1.495251	 -0.368387
H	 3.265314	 -0.383240	 1.145745
H	 3.557304	 0.524182	 -0.305913
H	 4.006917	 -2.484485	 -0.019085
H	 5.261543	 -1.263850	 0.042211
H	 4.389055	 -1.542241	 -1.445711

	symmetry c1
}
set optking {
	frozen_dihedral = ("
		20 16 13 17
	")
}

ee,wfn = optimize('scf', return_wfn=True)
oeprop( wfn, 'DIPOLE', 'QUADRUPOLE', 'MULLIKEN_CHARGES')
f=open( 'psi4out.xyz', 'w' )
f.write( "24  " )
f.write( str(ee) + "\n" )
f.write( MOL.save_string_xyz() )
f.close()
--------------------------------------------------------------------------

    Molecular point group: c1
  Charge       = 0
  Multiplicity = 1
  Basis Set: CC-PVTZ
  Basis Set:
  @DF-RHF Final Energy:  -349.38020237336627
    Total Energy =                       -349.3802023733661031
    Molecular point group: c1
  Basis Set: CC-PVTZ
  Basis Set:
  Basis Set: CC-PVTZ
  Basis Set:
  @DF-RHF Final Energy:  -349.38087908935108
    Total Energy =                       -349.3808790893507421
  Basis Set: CC-PVTZ
  Basis Set:
  Basis Set: CC-PVTZ
  Basis Set:
  @DF-RHF Final Energy:  -349.38091781418547
    Total Energy =                       -349.3809178141856933
  Basis Set: CC-PVTZ
  Basis Set:
  Basis Set: CC-PVTZ
  Basis Set:
  @DF-RHF Final Energy:  -349.38092169022565
    Total Energy =                       -349.3809216902258186
  Basis Set: CC-PVTZ
  Basis Set:
  Charge       = 0
  Multiplicity = 1
  Basis Set: CC-PVTZ
  Basis Set:

    Orbital Energies (a.u.)
    -----------------------

    Doubly Occupied:

       1A    -20.546309     2A    -11.265523     3A    -11.215189
       4A    -11.211543     5A    -11.210552     6A    -11.209172
       7A    -11.208924     8A    -11.205525     9A     -1.364167
      10A     -1.089742    11A     -1.049962    12A     -0.989108
      13A     -0.914945    14A     -0.842815    15A     -0.798021
      16A     -0.788499    17A     -0.681688    18A     -0.658357
      19A     -0.631115    20A     -0.615840    21A     -0.592268
      22A     -0.587133    23A     -0.551150    24A     -0.541552
      25A     -0.531521    26A     -0.500407    27A     -0.497189
      28A     -0.473261    29A     -0.466367    30A     -0.461064
      31A     -0.457871    32A     -0.456270    33A     -0.420609

  @DF-RHF Final Energy:  -349.38092208118945

   => Energetics <=

    Nuclear Repulsion Energy =            380.9681668289852610
    One-Electron Energy =               -1228.6308598885539141
    Two-Electron Energy =                 498.2817709783790860
    DFT Exchange-Correlation Energy =       0.0000000000000000
    Empirical Dispersion Energy =           0.0000000000000000
    PCM Polarization Energy =               0.0000000000000000
    EFP Energy =                            0.0000000000000000
    Total Energy =                       -349.3809220811896239
    Molecular point group: c1
  Basis Set: CC-PVTZ
  Basis Set:

  -Total Gradient:
     Atom            X                  Y                   Z
    ------   -----------------  -----------------  -----------------
       1        0.000000987762    -0.000015144942     0.000007693924
       2       -0.000004234039     0.000001503876    -0.000001255003
       3        0.000010060942     0.000003762356    -0.000000590663
       4        0.000015697844    -0.000014456068     0.000006536475
       5       -0.000003932086     0.000009991058    -0.000006356456
       6        0.000010102960    -0.000006149125    -0.000007097027
       7       -0.000025032939     0.000024583865     0.000008226961
       8        0.000002075897    -0.000010096454    -0.000005691136
       9        0.000003061615     0.000003494157    -0.000001271154
      10       -0.000051763780     0.000019103525    -0.000015737329
      11       -0.000003103188     0.000005766608     0.000007718229
      12        0.000000049130    -0.000001844864     0.000002276458
      13        0.001144518935    -0.003046288132    -0.001265019549
      14       -0.000003745742     0.000007123202    -0.000011915640
      15        0.000025312751    -0.000001524533    -0.000006884166
      16        0.000779945685    -0.003452602247     0.000438044984
      17       -0.001092288282     0.003082557607     0.001013025995
      18        0.000004281869     0.000022496437    -0.000011846002
      19        0.000015187739     0.000054711049     0.000016714885
      20       -0.000826103730     0.003317872090    -0.000154194881
      21        0.000018314890    -0.000006112767    -0.000004826781
      22       -0.000013206021     0.000024366985    -0.000011283741
      23        0.000005971746    -0.000008987834    -0.000004620147
      24       -0.000012159970    -0.000014125846     0.000008351763

  **** Optimization is complete! (in 5 steps) ****
    Final optimized geometry and variables:
    Molecular point group: c1

    Geometry (in Angstrom), charge = 0, multiplicity = 1:

    H           -3.472788507802     1.690522671627    -0.858039402799
    O           -3.524145954037     0.751943438354    -0.848693632404
    C           -3.245655459893     0.272434396478     0.440404577070
    C           -1.818747694035     0.547338265754     0.890577810591
    H           -3.425301768877    -0.794595473524     0.404080328895
    H           -3.945060142210     0.693017472476     1.158526994409
    C           -0.757606421417    -0.130177117833     0.028501944542
    H           -1.652128433872     1.623457559922     0.899775136671
    H           -1.720607663243     0.216937099931     1.921841982710
    C            0.667996704584     0.182904095039     0.473383735602
    H           -0.891482744318     0.170005556809    -1.004811163948
    H           -0.914488173269    -1.206052734741     0.055695299988
    C            1.733052599776    -0.512018734719    -0.372501846164
    H            0.827610542597     1.258459502581     0.436058813328
    H            0.793818773054    -0.105749321538     1.514332805133
    C            3.159675385751    -0.138949834901     0.033411879449
    H            1.574627622031    -0.235564640470    -1.411555509617
    H            1.598504325347    -1.588196168392    -0.305368608394
    C            4.216860449165    -1.096365852547    -0.503155016288
    H            3.225416156730    -0.074285190228     1.115991417895
    H            3.372899648127     0.864925550691    -0.324810488403
    H            4.071486380236    -2.097882175664    -0.112408876581
    H            5.215409500962    -0.775349433226    -0.229307858910
    H            4.174477599643    -1.157030430351    -1.585796403195

  Mulliken Charges: (a.u.)
   Center  Symbol    Alpha    Beta     Spin     Total
       1     H     0.39532  0.39532  0.00000  0.20937
       2     O     4.20371  4.20371  0.00000 -0.40742
       3     C     2.97768  2.97768  0.00000  0.04464
       4     C     3.10249  3.10249  0.00000 -0.20498
       5     H     0.45888  0.45888  0.00000  0.08223
       6     H     0.46027  0.46027  0.00000  0.07946
       7     C     3.08818  3.08818  0.00000 -0.17637
       8     H     0.45903  0.45903  0.00000  0.08194
       9     H     0.45332  0.45332  0.00000  0.09336
      10     C     3.08877  3.08877  0.00000 -0.17755
      11     H     0.44642  0.44642  0.00000  0.10716
      12     H     0.45534  0.45534  0.00000  0.08931
      13     C     3.08632  3.08632  0.00000 -0.17263
      14     H     0.45545  0.45545  0.00000  0.08910
      15     H     0.45614  0.45614  0.00000  0.08772
      16     C     3.08474  3.08474  0.00000 -0.16947
      17     H     0.45384  0.45384  0.00000  0.09233
      18     H     0.45531  0.45531  0.00000  0.08938
      19     C     3.14932  3.14932  0.00000 -0.29863
      20     H     0.45578  0.45578  0.00000  0.08845
      21     H     0.45457  0.45457  0.00000  0.09087
      22     H     0.45541  0.45541  0.00000  0.08918
      23     H     0.44909  0.44909  0.00000  0.10181
      24     H     0.45463  0.45463  0.00000  0.09074

   Total alpha = 33.00000, Total beta = 33.00000, Total charge =  0.00000

*** Psi4 exiting successfully. Buy a developer a beer!
