                              Psi4 1.0.54 Driver

  ==> Input File <==

--------------------------------------------------------------------------
set {
	reference rhf
	basis cc-pvtz
}

set_num_threads( 4 )
memory 2 gb

molecule MOL {
0 1

O	 1.208913	 0.537409	 0.990386
C	 1.704209	 0.119472	 -0.000093
C	 1.286039	 0.472373	 -1.404456
O	 2.715427	 -0.733672	 0.000025
C	 0.123717	 1.452667	 -1.470445
H	 2.161500	 0.866091	 -1.910425
H	 1.045778	 -0.456853	 -1.910672
C	 -0.272884	 1.787127	 -2.905319
H	 0.391248	 2.360222	 -0.941253
H	 -0.725703	 1.035838	 -0.941265
C	 -1.437796	 2.768943	 -2.991840
H	 0.584038	 2.202373	 -3.431158
H	 -0.536917	 0.872352	 -3.431352
C	 -1.833901	 3.103635	 -4.425888
H	 -1.174813	 3.683358	 -2.467585
H	 -2.294750	 2.354510	 -2.468357
H	 -1.006829	 3.552247	 -4.966198
H	 -2.662308	 3.802084	 -4.451269
H	 -2.136002	 2.212954	 -4.966866
C	 4.020999	 -0.192556	 0.000019
H	 4.182809	 0.412891	 -0.879449
H	 4.692590	 -1.035653	 0.000152
H	 4.182726	 0.413087	 0.879368

	symmetry c1
}
set optking {
	frozen_dihedral = ("
		1 2 4 20
	")
}

ee,wfn = optimize('scf', return_wfn=True)
oeprop( wfn, 'DIPOLE', 'QUADRUPOLE', 'MULLIKEN_CHARGES')
f=open( 'psi4out.xyz', 'w' )
f.write( "23  " )
f.write( str(ee) + "\n" )
f.write( MOL.save_string_xyz() )
f.close()
--------------------------------------------------------------------------

    Molecular point group: c1
  Charge       = 0
  Multiplicity = 1
  Basis Set: CC-PVTZ
  Basis Set:
  @DF-RHF Final Energy:  -423.11016856372765
    Total Energy =                       -423.1101685637277114
    Molecular point group: c1
  Basis Set: CC-PVTZ
  Basis Set:
  Basis Set: CC-PVTZ
  Basis Set:
  @DF-RHF Final Energy:  -423.00972385080314
    Total Energy =                       -423.0097238508033115
  Basis Set: CC-PVTZ
  Basis Set:
  Basis Set: CC-PVTZ
  Basis Set:
  @DF-RHF Final Energy:  -423.09380594107012
    Total Energy =                       -423.0938059410700589
  Basis Set: CC-PVTZ
  Basis Set:
  Basis Set: CC-PVTZ
  Basis Set:
  @DF-RHF Final Energy:  -423.10985667854993
    Total Energy =                       -423.1098566785500452
  Basis Set: CC-PVTZ
  Basis Set:
  @DF-RHF Final Energy:  -423.08880960966121
    Total Energy =                       -423.0888096096616664
  @DF-RHF Final Energy:  -423.10421208067726
    Total Energy =                       -423.1042120806772573
  @DF-RHF Final Energy:  -423.11153347381452
    Total Energy =                       -423.1115334738144611
  @DF-RHF Final Energy:  -423.11173865135197
    Total Energy =                       -423.1117386513523115
  @DF-RHF Final Energy:  -423.11175052712787
    Total Energy =                       -423.1117505271273558
  @DF-RHF Final Energy:  -423.11175356771241
    Total Energy =                       -423.1117535677126398
  @DF-RHF Final Energy:  -422.87407571093991
    Total Energy =                       -422.8740757109396782
  @DF-RHF Final Energy:  -423.04815344065247
    Total Energy =                       -423.0481534406528681
  @DF-RHF Final Energy:  -423.09898721709743
    Total Energy =                       -423.0989872170978288
  @DF-RHF Final Energy:  -423.06377402544376
    Total Energy =                       -423.0637740254438768
  @DF-RHF Final Energy:  -423.10783512409643
    Total Energy =                       -423.1078351240969369
  @DF-RHF Final Energy:  -423.11143438377411
    Total Energy =                       -423.1114343837741671
  @DF-RHF Final Energy:  -423.03444514144542
    Total Energy =                       -423.0344451414457581
  @DF-RHF Final Energy:  -423.10340184936138
    Total Energy =                       -423.1034018493611484
  @DF-RHF Final Energy:  -423.00038172412201
    Total Energy =                       -423.0003817241218940
  @DF-RHF Final Energy:  -422.96514862673843
    Total Energy =                       -422.9651486267384826
  @DF-RHF Final Energy:  -423.03745310109286
    Total Energy =                       -423.0374531010921828
  @DF-RHF Final Energy:  -423.07149061103723
    Total Energy =                       -423.0714906110374613
  @DF-RHF Final Energy:  -423.02292306286597
    Total Energy =                       -423.0229230628658570
  @DF-RHF Final Energy:  -423.03894446926836
    Total Energy =                       -423.0389444692686993
  @DF-RHF Final Energy:  -423.07930805526996
    Total Energy =                       -423.0793080552697347
  @DF-RHF Final Energy:  -423.10859212526583
    Total Energy =                       -423.1085921252655453
  @DF-RHF Final Energy:  -423.11080171480381
    Total Energy =                       -423.1108017148037561
  @DF-RHF Final Energy:  -423.11121875948982
    Total Energy =                       -423.1112187594900433
  @DF-RHF Final Energy:  -423.11141609133097
    Total Energy =                       -423.1114160913313071
  @DF-RHF Final Energy:  -423.11149499768408
    Total Energy =                       -423.1114949976844173
  @DF-RHF Final Energy:  -423.11161501632182
    Total Energy =                       -423.1116150163212524
  Basis Set: CC-PVTZ
  Basis Set:
  @DF-RHF Final Energy:  -423.11169436410876
    Total Energy =                       -423.1116943641085300
  Basis Set: CC-PVTZ
  Basis Set:
  Basis Set: CC-PVTZ
  Basis Set:
  @DF-RHF Final Energy:  -423.11174075041782
    Total Energy =                       -423.1117407504177663
  Basis Set: CC-PVTZ
  Basis Set:
  Basis Set: CC-PVTZ
  Basis Set:
  @DF-RHF Final Energy:  -423.11175288400108
    Total Energy =                       -423.1117528840010209
  Basis Set: CC-PVTZ
  Basis Set:
  Charge       = 0
  Multiplicity = 1
  Basis Set: CC-PVTZ
  Basis Set:

    Orbital Energies (a.u.)
    -----------------------

    Doubly Occupied:

       1A    -20.577699     2A    -20.545831     3A    -11.367711
       4A    -11.288838     5A    -11.238307     6A    -11.220332
       7A    -11.218562     8A    -11.216625     9A    -11.209520
      10A     -1.461554    11A     -1.369822    12A     -1.096497
      13A     -1.043203    14A     -0.981054    15A     -0.943449
      16A     -0.851322    17A     -0.798154    18A     -0.766489
      19A     -0.698181    20A     -0.681587    21A     -0.676543
      22A     -0.650853    23A     -0.619831    24A     -0.607806
      25A     -0.580497    26A     -0.569231    27A     -0.557049
      28A     -0.536537    29A     -0.511353    30A     -0.499152
      31A     -0.488260    32A     -0.481969    33A     -0.471206
      34A     -0.468569    35A     -0.452695    36A     -0.434404

  @DF-RHF Final Energy:  -423.11175386109124

   => Energetics <=

    Nuclear Repulsion Energy =            453.4021710451510785
    One-Electron Energy =               -1474.6664686940716820
    Two-Electron Energy =                 598.1525437878292450
    DFT Exchange-Correlation Energy =       0.0000000000000000
    Empirical Dispersion Energy =           0.0000000000000000
    PCM Polarization Energy =               0.0000000000000000
    EFP Energy =                            0.0000000000000000
    Total Energy =                       -423.1117538610913016
    Molecular point group: c1
  Basis Set: CC-PVTZ
  Basis Set:

  -Total Gradient:
     Atom            X                  Y                   Z
    ------   -----------------  -----------------  -----------------
       1        0.000583558053     0.002363241530    -0.001983651148
       2        0.000174812483    -0.003176701897     0.003445799713
       3        0.000008804577    -0.000022385313     0.000013271464
       4       -0.002893893348     0.000305441040    -0.002591689444
       5       -0.000023483159     0.000041655357     0.000006337268
       6       -0.000016071603     0.000000577980    -0.000004168858
       7       -0.000011056361     0.000012526424    -0.000009802663
       8        0.000042863205    -0.000042501102    -0.000029605006
       9        0.000004950401    -0.000016461868     0.000000817437
      10        0.000007584309     0.000000959916     0.000001980419
      11       -0.000039189121     0.000042654050     0.000033193728
      12       -0.000018821896     0.000012121698     0.000000270056
      13       -0.000002994115     0.000008649845    -0.000000807131
      14        0.000019997795    -0.000029902284    -0.000018004013
      15        0.000002405196    -0.000011161761     0.000000503543
      16        0.000016124785    -0.000012675583    -0.000001092259
      17       -0.000013127374     0.000008174917    -0.000000567015
      18       -0.000003129828     0.000010424158     0.000010613000
      19        0.000000698799     0.000009883521    -0.000001088024
      20        0.002158776510     0.000498584325     0.001120289061
      21        0.000009656503     0.000004603509     0.000005269268
      22       -0.000004275362     0.000005512722     0.000002759097
      23       -0.000004190447    -0.000013221184    -0.000000628495

  **** Optimization is complete! (in 35 steps) ****
    Final optimized geometry and variables:
    Molecular point group: c1

    Geometry (in Angstrom), charge = 0, multiplicity = 1:

    O           -1.674669099140    -0.811470393142    -1.491352289287
    C           -0.519618642251    -1.013326478224    -1.402812156715
    C            0.414631081674    -0.296671988632    -0.462474403633
    O            0.110274986154    -1.880309738895    -2.226182848234
    C           -0.275074855408     0.673291402796     0.485873762492
    H            0.976402703567    -1.047220112305     0.085613464373
    H            1.143462186484     0.212513782698    -1.086015824707
    C            0.709430639623     1.387785925244     1.406946202676
    H           -1.007732346684     0.134894234492     1.077254395057
    H           -0.832377183627     1.400018926704    -0.093573592124
    C            0.033535059123     2.366519556282     2.362939708658
    H            1.266727190067     0.652796844445     1.983735587150
    H            1.442988622909     1.922609285634     0.807853048512
    C            1.017589882700     3.081202653910     3.282792749018
    H           -0.698711467305     1.833215571731     2.962626779244
    H           -0.522035291685     3.101798024471     1.787954944613
    H            1.564825681879     2.373553321055     3.896808725009
    H            0.505680790307     3.767691875554     3.947149546547
    H            1.742812548884     3.652266254812     2.712605701878
    C            0.182928430757    -3.222880283288    -1.805429435017
    H            0.733953151483    -3.314501895001    -0.875824608705
    H            0.705245469740    -3.763331484853    -2.577974070841
    H           -0.808565336669    -3.639579557320    -1.681899433306

  Mulliken Charges: (a.u.)
   Center  Symbol    Alpha    Beta     Spin     Total
       1     O     4.16914  4.16914  0.00000 -0.33828
       2     C     2.78494  2.78494  0.00000  0.43012
       3     C     3.12113  3.12113  0.00000 -0.24227
       4     O     4.16956  4.16956  0.00000 -0.33912
       5     C     3.08478  3.08478  0.00000 -0.16957
       6     H     0.44399  0.44399  0.00000  0.11202
       7     H     0.43745  0.43745  0.00000  0.12509
       8     C     3.08840  3.08840  0.00000 -0.17681
       9     H     0.44767  0.44767  0.00000  0.10467
      10     H     0.44339  0.44339  0.00000  0.11322
      11     C     3.08435  3.08435  0.00000 -0.16869
      12     H     0.45624  0.45624  0.00000  0.08752
      13     H     0.45490  0.45490  0.00000  0.09019
      14     C     3.15033  3.15033  0.00000 -0.30066
      15     H     0.45336  0.45336  0.00000  0.09328
      16     H     0.45254  0.45254  0.00000  0.09492
      17     H     0.45554  0.45554  0.00000  0.08891
      18     H     0.44740  0.44740  0.00000  0.10520
      19     H     0.45501  0.45501  0.00000  0.08999
      20     C     3.03551  3.03551  0.00000 -0.07102
      21     H     0.46748  0.46748  0.00000  0.06505
      22     H     0.44264  0.44264  0.00000  0.11471
      23     H     0.45423  0.45423  0.00000  0.09154

   Total alpha = 36.00000, Total beta = 36.00000, Total charge =  0.00000

*** Psi4 exiting successfully. Buy a developer a beer!
