                              Psi4 1.0.54 Driver

  ==> Input File <==

--------------------------------------------------------------------------
set {
	reference rhf
	basis cc-pvtz
}

set_num_threads( 4 )
memory 2 gb

molecule MOL {
0 1

H	 -1.752232	 -2.214755	 -0.011938
C	 -1.343852	 -1.221619	 -0.018179
N	 -0.058800	 -1.097635	 -0.261688
C	 -2.148159	 -0.124236	 0.219734
C	 0.449026	 0.119242	 -0.273393
H	 -3.196988	 -0.237571	 0.417076
N	 -1.655094	 1.094230	 0.209506
C	 -0.370318	 1.215445	 -0.035100
C	 1.924033	 0.265863	 -0.538106
H	 0.033214	 2.210441	 -0.046812
C	 2.522709	 1.503902	 0.131443
H	 2.423528	 -0.620920	 -0.166779
H	 2.094892	 0.307161	 -1.607365
H	 3.589093	 1.556432	 -0.052950
H	 2.363390	 1.472946	 1.201321
H	 2.070407	 2.411849	 -0.251441

	symmetry c1
}
set optking {
	frozen_dihedral = ("
		12 9 5 3
	")
}

ee,wfn = optimize('scf', return_wfn=True)
oeprop( wfn, 'DIPOLE', 'QUADRUPOLE', 'MULLIKEN_CHARGES')
f=open( 'psi4out.xyz', 'w' )
f.write( "16  " )
f.write( str(ee) + "\n" )
f.write( MOL.save_string_xyz() )
f.close()
--------------------------------------------------------------------------

    Molecular point group: c1
  Charge       = 0
  Multiplicity = 1
  Basis Set: CC-PVTZ
  Basis Set:
  @DF-RHF Final Energy:  -340.86876170061271
    Total Energy =                       -340.8687617006125947
    Molecular point group: c1
  Basis Set: CC-PVTZ
  Basis Set:
  Basis Set: CC-PVTZ
  Basis Set:
  @DF-RHF Final Energy:  -340.86783327153688
    Total Energy =                       -340.8678332715368242
  Basis Set: CC-PVTZ
  Basis Set:
  Basis Set: CC-PVTZ
  Basis Set:
  @DF-RHF Final Energy:  -340.86992406166905
    Total Energy =                       -340.8699240616693373
  Basis Set: CC-PVTZ
  Basis Set:
  Basis Set: CC-PVTZ
  Basis Set:
  @DF-RHF Final Energy:  -340.87004502841455
    Total Energy =                       -340.8700450284145518
  Basis Set: CC-PVTZ
  Basis Set:
  Basis Set: CC-PVTZ
  Basis Set:
  @DF-RHF Final Energy:  -340.87005804865100
    Total Energy =                       -340.8700580486510603
  Basis Set: CC-PVTZ
  Basis Set:
  Basis Set: CC-PVTZ
  Basis Set:
  @DF-RHF Final Energy:  -340.87006482729686
    Total Energy =                       -340.8700648272968010
  Basis Set: CC-PVTZ
  Basis Set:
  Charge       = 0
  Multiplicity = 1
  Basis Set: CC-PVTZ
  Basis Set:

    Orbital Energies (a.u.)
    -----------------------

    Doubly Occupied:

       1A    -15.579884     2A    -15.574838     3A    -11.279241
       4A    -11.271599     5A    -11.267411     6A    -11.266968
       7A    -11.231959     8A    -11.221656     9A     -1.315228
      10A     -1.222981    11A     -1.086704    12A     -1.016427
      13A     -0.909456    14A     -0.894044    15A     -0.831679
      16A     -0.716685    17A     -0.712178    18A     -0.654230
      19A     -0.627756    20A     -0.610454    21A     -0.573919
      22A     -0.565984    23A     -0.521616    24A     -0.512781
      25A     -0.507032    26A     -0.484700    27A     -0.431950
      28A     -0.397113    29A     -0.346381

  @DF-RHF Final Energy:  -340.87006511021315

   => Energetics <=

    Nuclear Repulsion Energy =            349.9323908005528097
    One-Electron Energy =               -1154.3391977513651909
    Two-Electron Energy =                 463.5367418405991202
    DFT Exchange-Correlation Energy =       0.0000000000000000
    Empirical Dispersion Energy =           0.0000000000000000
    PCM Polarization Energy =               0.0000000000000000
    EFP Energy =                            0.0000000000000000
    Total Energy =                       -340.8700651102132042
    Molecular point group: c1
  Basis Set: CC-PVTZ
  Basis Set:

  -Total Gradient:
     Atom            X                  Y                   Z
    ------   -----------------  -----------------  -----------------
       1       -0.000003563075    -0.000003979635    -0.000028052486
       2        0.000013903254     0.000000215342     0.000083749882
       3        0.000042230302    -0.000044577473     0.000187700779
       4       -0.000001428760     0.000005585877    -0.000008966801
       5       -0.000057443140     0.000030651048    -0.000416435384
       6       -0.000004694062     0.000001939030     0.000003196753
       7       -0.000002797759     0.000022267533    -0.000014487782
       8       -0.000029079843    -0.000002228591     0.000019634846
       9        0.000019380849     0.000057580065     0.000319419436
      10       -0.000011131396    -0.000011461724     0.000030868734
      11        0.000052417252     0.000002257434     0.000025429668
      12        0.000000934254    -0.000057022215    -0.000174864008
      13       -0.000002705711     0.000006895342    -0.000015903555
      14       -0.000047060217     0.000014466319     0.000019919950
      15        0.000002191307     0.000015024590    -0.000043841518
      16        0.000028846748    -0.000037612939     0.000012631485

  **** Optimization is complete! (in 7 steps) ****
    Final optimized geometry and variables:
    Molecular point group: c1

    Geometry (in Angstrom), charge = 0, multiplicity = 1:

    H           -1.626344036519    -2.489920666856    -0.364055335890
    C           -1.264343855783    -1.491017121262    -0.208636797978
    N            0.025596204126    -1.286815147965    -0.354382699564
    C           -2.126836825335    -0.469797390414     0.133259467774
    C            0.484032312481    -0.064868651430    -0.165367349484
    H           -3.178872460529    -0.645937246285     0.251046354559
    N           -1.684769144760     0.752800341340     0.328391187384
    C           -0.395152325783     0.954853904605     0.182409524097
    C            1.965878157511     0.144830476867    -0.370077269220
    H           -0.044868659812     1.954205656530     0.346904182879
    C            2.596742467045     1.291312059813     0.414836303943
    H            2.451983278581    -0.788225930122    -0.118707470658
    H            2.139337336547     0.296585743403    -1.431788940270
    H            3.668564440845     1.294534397715     0.261077281404
    H            2.413348585125     1.190830703723     1.478414084896
    H            2.223568013905     2.257993494450     0.099893562663

  Mulliken Charges: (a.u.)
   Center  Symbol    Alpha    Beta     Spin     Total
       1     H     0.41386  0.41386  0.00000  0.17228
       2     C     3.04215  3.04215  0.00000 -0.08430
       3     N     3.59255  3.59255  0.00000 -0.18510
       4     C     3.04812  3.04812  0.00000 -0.09624
       5     C     2.95540  2.95540  0.00000  0.08919
       6     H     0.41398  0.41398  0.00000  0.17204
       7     N     3.58847  3.58847  0.00000 -0.17693
       8     C     3.07358  3.07358  0.00000 -0.14715
       9     C     3.06690  3.06690  0.00000 -0.13380
      10     H     0.41314  0.41314  0.00000  0.17372
      11     C     3.15866  3.15866  0.00000 -0.31733
      12     H     0.44198  0.44198  0.00000  0.11605
      13     H     0.44627  0.44627  0.00000  0.10746
      14     H     0.44387  0.44387  0.00000  0.11225
      15     H     0.44699  0.44699  0.00000  0.10601
      16     H     0.45409  0.45409  0.00000  0.09183

   Total alpha = 29.00000, Total beta = 29.00000, Total charge = -0.00000

*** Psi4 exiting successfully. Buy a developer a beer!
