  ==> Input File <==

--------------------------------------------------------------------------
set {
	reference rhf
	basis cc-pvtz
}

set_num_threads( 4 )
memory 2 gb

molecule MOL {
0 1

H	 2.158259	 -0.040747	 -1.032729
O	 1.675515	 -0.612943	 -0.465627
C	 1.135873	 0.113391	 0.608264
C	 0.027642	 1.012027	 0.090274
H	 1.902972	 0.727968	 1.072615
H	 0.756163	 -0.561896	 1.370018
C	 -1.138737	 0.285728	 -0.581921
H	 0.464661	 1.708096	 -0.618252
H	 -0.340737	 1.603071	 0.925246
C	 -1.933983	 -0.631436	 0.343653
H	 -0.763151	 -0.285569	 -1.422081
H	 -1.808359	 1.035291	 -0.992333
H	 -2.789188	 -1.049673	 -0.174718
H	 -1.335629	 -1.461368	 0.700418
H	 -2.305435	 -0.092167	 1.209725

	symmetry c1
}
set optking {
	frozen_dihedral = ("
		1 2 3 4
	")
}

ee = optimize('scf')
oeprop('DIPOLE', 'QUADRUPOLE', 'MULLIKEN_CHARGES')
f=open( 'psi4out.xyz', 'w' )
f.write( "15  " )
f.write( str(ee) + "\n" )
f.write( MOL.save_string_xyz() )
f.close()
--------------------------------------------------------------------------

    Molecular point group: c1
  Charge       = 0
  Multiplicity = 1
  Basis Set: CC-PVTZ
  Basis Set:
  @DF-RHF Final Energy:  -232.23562767602905
    Total Energy =                       -232.2356276760290257
    Molecular point group: c1
  Basis Set: CC-PVTZ
  Basis Set:
  Basis Set: CC-PVTZ
  Basis Set:
  @DF-RHF Final Energy:  -232.23704111382025
    Total Energy =                       -232.2370411138202826
  Basis Set: CC-PVTZ
  Basis Set:
  Basis Set: CC-PVTZ
  Basis Set:
  @DF-RHF Final Energy:  -232.23732074678131
    Total Energy =                       -232.2373207467813927
  Basis Set: CC-PVTZ
  Basis Set:
  Charge       = 0
  Multiplicity = 1
  Basis Set: CC-PVTZ
  Basis Set:

    Orbital Energies (a.u.)
    -----------------------

    Doubly Occupied:

       1A    -20.546740     2A    -11.265281     3A    -11.215139
       4A    -11.211523     5A    -11.204590     6A     -1.364486
       7A     -1.067581     8A     -0.971743     9A     -0.876198
      10A     -0.788040    11A     -0.684641    12A     -0.641635
      13A     -0.630946    14A     -0.581558    15A     -0.564893
      16A     -0.538929    17A     -0.505945    18A     -0.487662
      19A     -0.471329    20A     -0.455494    21A     -0.429652

  @DF-RHF Final Energy:  -232.23732001346372

   => Energetics <=

    Nuclear Repulsion Energy =            191.6142139936436593
    One-Electron Energy =                -694.6950627822052411
    Two-Electron Energy =                 270.8435287750976954
    DFT Exchange-Correlation Energy =       0.0000000000000000
    Empirical Dispersion Energy =           0.0000000000000000
    PCM Polarization Energy =               0.0000000000000000
    EFP Energy =                            0.0000000000000000
    Total Energy =                       -232.2373200134638864
    Molecular point group: c1
  Basis Set: CC-PVTZ
  Basis Set:

  -Total Gradient:
     Atom            X                  Y                   Z
    ------   -----------------  -----------------  -----------------
       1        0.000470414369    -0.000027444440     0.000323202372
       2       -0.000657392235     0.000009762390    -0.000192132407
       3        0.000260597686     0.000377721200     0.000014416328
       4       -0.000172023032    -0.000227974302    -0.000060872526
       5        0.000049483782    -0.000065771572    -0.000069625442
       6       -0.000015058449    -0.000146434018    -0.000034847254
       7       -0.000090196029     0.000094055383    -0.000012617476
       8        0.000009970523     0.000005467814    -0.000025171409
       9        0.000029110251    -0.000025129341    -0.000046167679
      10        0.000063041776     0.000007229637     0.000023142281
      11        0.000004700338     0.000055470000     0.000005973835
      12       -0.000028900321     0.000007398429     0.000018850680
      13        0.000014682219    -0.000032612932    -0.000002782024
      14        0.000074837435    -0.000017492762     0.000079869828
      15       -0.000013268313    -0.000014245487    -0.000021239108

  **** Optimization is complete! (in 4 steps) ****
    Final optimized geometry and variables:
    Molecular point group: c1

    Geometry (in Angstrom), charge = 0, multiplicity = 1:

    H            2.202468328618    -0.116773676142    -1.007952675950
    O            1.711565323828    -0.664786805555    -0.423052811513
    C            1.136832337761     0.113750838475     0.593544262577
    C            0.012275726234     1.012402691901     0.097330545633
    H            1.895665580775     0.719662731856     1.081748255950
    H            0.769973442784    -0.586945524657     1.330564776837
    C           -1.153169938929     0.283808960822    -0.573499746977
    H            0.428844607667     1.732080263768    -0.604396015333
    H           -0.353802777687     1.590332358851     0.942877321224
    C           -1.934074308070    -0.644412809753     0.353184866586
    H           -0.779175505040    -0.283174616214    -1.418021977950
    H           -1.831460050290     1.028972440418    -0.977580818544
    H           -2.783172425598    -1.075381952751    -0.164552587646
    H           -1.323158899565    -1.464506046896     0.710381654434
    H           -2.312910546462    -0.108885855999     1.218210741601

  Mulliken Charges: (a.u.)
   Center  Symbol    Alpha    Beta     Spin     Total
       1     H     0.39446  0.39446  0.00000  0.21107
       2     O     4.20460  4.20460  0.00000 -0.40919
       3     C     2.98123  2.98123  0.00000  0.03753
       4     C     3.10416  3.10416  0.00000 -0.20832
       5     H     0.45885  0.45885  0.00000  0.08229
       6     H     0.45643  0.45643  0.00000  0.08715
       7     C     3.08106  3.08106  0.00000 -0.16213
       8     H     0.45392  0.45392  0.00000  0.09217
       9     H     0.45424  0.45424  0.00000  0.09153
      10     C     3.15497  3.15497  0.00000 -0.30995
      11     H     0.45135  0.45135  0.00000  0.09730
      12     H     0.45040  0.45040  0.00000  0.09920
      13     H     0.44672  0.44672  0.00000  0.10655
      14     H     0.45096  0.45096  0.00000  0.09808
      15     H     0.45665  0.45665  0.00000  0.08670

   Total alpha = 21.00000, Total beta = 21.00000, Total charge = -0.00000
