                              Psi4 1.0.54 Driver

  ==> Input File <==

--------------------------------------------------------------------------
set {
	reference rhf
	basis cc-pvtz
}

set_num_threads( 4 )
memory 2 gb

molecule MOL {
0 1

O	 -2.071633	 -1.227563	 -0.223463
C	 -1.652164	 -0.152425	 0.058082
C	 -0.327811	 0.006324	 0.778296
C	 -2.402515	 1.108629	 -0.298924
C	 0.472381	 1.184012	 0.208939
H	 -0.493135	 0.153382	 1.840448
H	 0.230239	 -0.911479	 0.643924
C	 1.822313	 1.366227	 0.896481
H	 -0.103871	 2.100790	 0.304571
H	 0.621951	 1.021042	 -0.852868
C	 2.627060	 2.528550	 0.325035
H	 1.666741	 1.522933	 1.960325
H	 2.396314	 0.448969	 0.803209
H	 2.093356	 3.466638	 0.435423
H	 2.825633	 2.384321	 -0.731438
H	 3.580456	 2.629484	 0.830256
H	 -3.240910	 0.874416	 -0.936711
H	 -1.747554	 1.818823	 -0.790984
H	 -2.760419	 1.579708	 0.610998

	symmetry c1
}
set optking {
	frozen_dihedral = ("
		5 3 2 4
	")
}

ee,wfn = optimize('scf', return_wfn=True)
oeprop( wfn, 'DIPOLE', 'QUADRUPOLE', 'MULLIKEN_CHARGES')
f=open( 'psi4out.xyz', 'w' )
f.write( "19  " )
f.write( str(ee) + "\n" )
f.write( MOL.save_string_xyz() )
f.close()
--------------------------------------------------------------------------

    Molecular point group: c1
  Charge       = 0
  Multiplicity = 1
  Basis Set: CC-PVTZ
  Basis Set:
  @DF-RHF Final Energy:  -309.17265178446456
    Total Energy =                       -309.1726517844643354
    Molecular point group: c1
  Basis Set: CC-PVTZ
  Basis Set:
  Basis Set: CC-PVTZ
  Basis Set:
  @DF-RHF Final Energy:  -309.13006159492022
    Total Energy =                       -309.1300615949202211
  Basis Set: CC-PVTZ
  Basis Set:
  Basis Set: CC-PVTZ
  Basis Set:
  @DF-RHF Final Energy:  -309.17348669684691
    Total Energy =                       -309.1734866968469078
  Basis Set: CC-PVTZ
  Basis Set:
  Basis Set: CC-PVTZ
  Basis Set:
  @DF-RHF Final Energy:  -309.17588895881897
    Total Energy =                       -309.1758889588187458
  Basis Set: CC-PVTZ
  Basis Set:
  @DF-RHF Final Energy:  -309.15703765863759
    Total Energy =                       -309.1570376586375914
  @DF-RHF Final Energy:  -309.17588879654647
    Total Energy =                       -309.1758887965462463
  @DF-RHF Final Energy:  -309.17624113096866
    Total Energy =                       -309.1762411309685490
  @DF-RHF Final Energy:  -309.17627852483986
    Total Energy =                       -309.1762785248396312
  Basis Set: CC-PVTZ
  Basis Set:
  @DF-RHF Final Energy:  -309.17606153724756
    Total Energy =                       -309.1760615372479606
  Basis Set: CC-PVTZ
  Basis Set:
  Basis Set: CC-PVTZ
  Basis Set:
  @DF-RHF Final Energy:  -309.17631152163995
    Total Energy =                       -309.1763115216397750
  Basis Set: CC-PVTZ
  Basis Set:
  Basis Set: CC-PVTZ
  Basis Set:
  @DF-RHF Final Energy:  -309.17631633863522
    Total Energy =                       -309.1763163386351607
  Basis Set: CC-PVTZ
  Basis Set:
  Charge       = 0
  Multiplicity = 1
  Basis Set: CC-PVTZ
  Basis Set:

    Orbital Energies (a.u.)
    -----------------------

    Doubly Occupied:

       1A    -20.536449     2A    -11.319967     3A    -11.230289
       4A    -11.229007     5A    -11.226519     6A    -11.224980
       7A    -11.215409     8A     -1.396690     9A     -1.095765
      10A     -1.029944    11A     -0.983259    12A     -0.896005
      13A     -0.810660    14A     -0.733387    15A     -0.664684
      16A     -0.649429    17A     -0.629706    18A     -0.614365
      19A     -0.585486    20A     -0.574593    21A     -0.555383
      22A     -0.532598    23A     -0.517992    24A     -0.497956
      25A     -0.486926    26A     -0.480306    27A     -0.473408
      28A     -0.399515

  @DF-RHF Final Energy:  -309.17631728374954

   => Energetics <=

    Nuclear Repulsion Energy =            301.6114788575555394
    One-Electron Energy =               -1016.3942353908576024
    Two-Electron Energy =                 405.6064392495524089
    DFT Exchange-Correlation Energy =       0.0000000000000000
    Empirical Dispersion Energy =           0.0000000000000000
    PCM Polarization Energy =               0.0000000000000000
    EFP Energy =                            0.0000000000000000
    Total Energy =                       -309.1763172837496541
    Molecular point group: c1
  Basis Set: CC-PVTZ
  Basis Set:

  -Total Gradient:
     Atom            X                  Y                   Z
    ------   -----------------  -----------------  -----------------
       1       -0.000053195078    -0.000064011310    -0.000070340622
       2       -0.001349281190     0.000894268184     0.001277860656
       3        0.001051516155    -0.001365935078    -0.000886840657
       4        0.000765180147    -0.000422657404    -0.000654647158
       5       -0.000439927812     0.000842141005     0.000397975263
       6       -0.000006963992     0.000012513334     0.000011843854
       7        0.000005800589    -0.000015692163    -0.000010319004
       8        0.000003620744     0.000009364368    -0.000023075088
       9       -0.000005335849     0.000017509970    -0.000007517875
      10       -0.000001159312    -0.000021185908    -0.000022124694
      11        0.000000784267    -0.000001675623     0.000042020274
      12        0.000002697861     0.000008174744     0.000027065142
      13        0.000015980877    -0.000017042939    -0.000000514246
      14       -0.000010408898     0.000028175673    -0.000006063967
      15        0.000007184228    -0.000020093806    -0.000015922333
      16        0.000024058679     0.000009116752     0.000013567307
      17       -0.000114276765    -0.000024925476    -0.000083423930
      18        0.000133749962     0.000017428806    -0.000094402772
      19       -0.000030024613     0.000114526871     0.000104859849

  **** Optimization is complete! (in 12 steps) ****
    Final optimized geometry and variables:
    Molecular point group: c1

    Geometry (in Angstrom), charge = 0, multiplicity = 1:

    O           -2.104121511249    -1.487301968957    -0.873746880006
    C           -1.490225796123    -0.493853452902    -0.654515589908
    C           -0.465848780977    -0.449529827722     0.464218493350
    C           -1.723323399931     0.758056975398    -1.469167493921
    C            0.819332975692     0.325800458998     0.174009210800
    H           -0.967855330097    -0.000536127645     1.319748623837
    H           -0.248090157559    -1.475065710789     0.730442865506
    C            1.809311531164     0.260923320696     1.334195824171
    H            0.590325115765     1.365133222479    -0.037637384857
    H            1.292058970574    -0.074347629639    -0.719404213115
    C            3.097744777289     1.029394610801     1.061647833995
    H            1.336700969804     0.654090487922     2.230105124629
    H            2.045877123993    -0.777692062448     1.545326768772
    H            2.896921594186     2.080094664968     0.880425634983
    H            3.610987172884     0.636413635370     0.190433497059
    H            3.777574921358     0.963528736511     1.902930313711
    H           -2.592658044584     0.620991239452    -2.093750674109
    H           -0.860262341985     0.955311827179    -2.095194241236
    H           -1.860819498304     1.620443031156    -0.826266534581

  Mulliken Charges: (a.u.)
   Center  Symbol    Alpha    Beta     Spin     Total
       1     O     4.17271  4.17271  0.00000 -0.34543
       2     C     2.85902  2.85902  0.00000  0.28195
       3     C     3.09734  3.09734  0.00000 -0.19468
       4     C     3.16534  3.16534  0.00000 -0.33069
       5     C     3.10175  3.10175  0.00000 -0.20350
       6     H     0.44654  0.44654  0.00000  0.10692
       7     H     0.43744  0.43744  0.00000  0.12511
       8     C     3.08632  3.08632  0.00000 -0.17263
       9     H     0.45067  0.45067  0.00000  0.09865
      10     H     0.44769  0.44769  0.00000  0.10463
      11     C     3.14914  3.14914  0.00000 -0.29828
      12     H     0.45322  0.45322  0.00000  0.09356
      13     H     0.44996  0.44996  0.00000  0.10008
      14     H     0.45509  0.45509  0.00000  0.08981
      15     H     0.45389  0.45389  0.00000  0.09222
      16     H     0.44649  0.44649  0.00000  0.10703
      17     H     0.43192  0.43192  0.00000  0.13615
      18     H     0.44691  0.44691  0.00000  0.10617
      19     H     0.44854  0.44854  0.00000  0.10293

   Total alpha = 28.00000, Total beta = 28.00000, Total charge = -0.00000

*** Psi4 exiting successfully. Buy a developer a beer!
