  ==> Input File <==

--------------------------------------------------------------------------
set {
	reference rhf
	basis 6-31G*
}

set_num_threads( 1 )
memory 2 gb

molecule MOL {
0 1

H	 2.338604	 -0.954222	 0.891682
O	 2.016064	 -0.864478	 0.000222
C	 1.050492	 0.053836	 0.000068
C	 -0.318135	 -0.576402	 0.000164
O	 1.285279	 1.218255	 -0.000078
C	 -1.454360	 0.441875	 -0.000474
H	 -0.374042	 -1.230163	 -0.866135
H	 -0.374274	 -1.229227	 0.867154
C	 -2.826123	 -0.230780	 0.000056
H	 -1.357605	 1.085198	 -0.868380
H	 -1.357504	 1.086451	 0.866496
H	 -2.959731	 -0.858053	 -0.876869
H	 -3.619374	 0.509403	 -0.000080
H	 -2.959371	 -0.857318	 0.877556

	symmetry c1
}
set optking {
	frozen_dihedral = ("
		7 4 6 10,
		2 3 4 7
	")
}

ee = energy('scf')
oeprop('DIPOLE', 'QUADRUPOLE', 'MULLIKEN_CHARGES')
f=open( 'psi4out.xyz', 'w' )
f.write( "14  " )
f.write( str(ee) + "\n" )
f.write( MOL.save_string_xyz() )
f.close()
--------------------------------------------------------------------------

    Molecular point group: c1

    Geometry (in Angstrom), charge = 0, multiplicity = 1:

       Center              X                  Y                   Z               Mass
    ------------   -----------------  -----------------  -----------------  -----------------
           H          2.344504464406    -0.948019953874     0.881478185134     1.007825032070
           O          2.021964464406    -0.858275953874    -0.009981814866    15.994914619560
           C          1.056392464406     0.060038046126    -0.010135814866    12.000000000000
           C         -0.312234535594    -0.570199953874    -0.010039814866    12.000000000000
           O          1.291179464406     1.224457046126    -0.010281814866    15.994914619560
           C         -1.448459535594     0.448077046126    -0.010677814866    12.000000000000
           H         -0.368141535594    -1.223960953874    -0.876338814866     1.007825032070
           H         -0.368373535594    -1.223024953874     0.856950185134     1.007825032070
           C         -2.820222535594    -0.224577953874    -0.010147814866    12.000000000000
           H         -1.351704535594     1.091400046126    -0.878583814866     1.007825032070
           H         -1.351603535594     1.092653046126     0.856292185134     1.007825032070
           H         -2.953830535594    -0.851850953874    -0.887072814866     1.007825032070
           H         -3.613473535594     0.515605046126    -0.010283814866     1.007825032070
           H         -2.953470535594    -0.851115953874     0.867352185134     1.007825032070

  Charge       = 0
  Multiplicity = 1
  Basis Set: 6-31G*
  Basis Set:

    Orbital Energies (a.u.)
    -----------------------

    Doubly Occupied:

       1A    -20.598639     2A    -20.560227     3A    -11.380433
       4A    -11.241815     5A    -11.225671     6A    -11.217798
       7A     -1.469708     8A     -1.368815     9A     -1.082933
      10A     -0.976773    11A     -0.852864    12A     -0.798850
      13A     -0.711511    14A     -0.680739    15A     -0.664935
      16A     -0.633225    17A     -0.578566    18A     -0.559784
      19A     -0.543468    20A     -0.501975    21A     -0.497274
      22A     -0.483499    23A     -0.479304    24A     -0.444496

  @DF-RHF Final Energy:  -305.85898008085502

   => Energetics <=

    Nuclear Repulsion Energy =            240.0266894061547305
    One-Electron Energy =                -892.6647930198139420
    Two-Electron Energy =                 346.7791235328040784
    DFT Exchange-Correlation Energy =       0.0000000000000000
    Empirical Dispersion Energy =           0.0000000000000000
    PCM Polarization Energy =               0.0000000000000000
    EFP Energy =                            0.0000000000000000
    Total Energy =                       -305.8589800808551900

  Mulliken Charges: (a.u.)
   Center  Symbol    Alpha    Beta     Spin     Total
       1     H     0.26481  0.26481  0.00000  0.47037
       2     O     4.35742  4.35742  0.00000 -0.71485
       3     C     2.63652  2.63652  0.00000  0.72696
       4     C     3.20769  3.20769  0.00000 -0.41539
       5     O     4.25325  4.25325  0.00000 -0.50650
       6     C     3.15315  3.15315  0.00000 -0.30630
       7     H     0.39755  0.39755  0.00000  0.20491
       8     H     0.40874  0.40874  0.00000  0.18252
       9     C     3.24267  3.24267  0.00000 -0.48533
      10     H     0.40909  0.40909  0.00000  0.18182
      11     H     0.41201  0.41201  0.00000  0.17599
      12     H     0.42055  0.42055  0.00000  0.15890
      13     H     0.41447  0.41447  0.00000  0.17105
      14     H     0.42208  0.42208  0.00000  0.15585

   Total alpha = 24.00000, Total beta = 24.00000, Total charge =  0.00000
