  ==> Input File <==

--------------------------------------------------------------------------
set {
	reference rhf
	basis cc-pvtz
}

set_num_threads( 4 )
memory 2 gb

molecule MOL {
0 1

H	 2.444575	 -0.671278	 0.178978
C	 1.726754	 0.130709	 0.216157
O	 0.462329	 -0.453336	 -0.000137
H	 1.959941	 0.852781	 -0.556148
H	 1.775348	 0.606740	 1.187379
C	 -0.590565	 0.341382	 0.000062
O	 -1.693898	 -0.053880	 0.000252
H	 -0.340426	 1.403822	 0.000200

	symmetry c1
}
set optking {
	frozen_dihedral = ("
		2 3 6 7
	")
}

ee = optimize('scf')
oeprop('DIPOLE', 'QUADRUPOLE', 'MULLIKEN_CHARGES')
f=open( 'psi4out.xyz', 'w' )
f.write( "8  " )
f.write( str(ee) + "\n" )
f.write( MOL.save_string_xyz() )
f.close()
--------------------------------------------------------------------------

    Molecular point group: c1
  Charge       = 0
  Multiplicity = 1
  Basis Set: CC-PVTZ
  Basis Set:
  @DF-RHF Final Energy:  -227.86982926594229
    Total Energy =                       -227.8698292659422862
    Molecular point group: c1
  Basis Set: CC-PVTZ
  Basis Set:
  Basis Set: CC-PVTZ
  Basis Set:
  @DF-RHF Final Energy:  -227.86984595934828
    Total Energy =                       -227.8698459593483108
  Basis Set: CC-PVTZ
  Basis Set:
  Basis Set: CC-PVTZ
  Basis Set:
  @DF-RHF Final Energy:  -227.86989037109583
    Total Energy =                       -227.8698903710958632
  Basis Set: CC-PVTZ
  Basis Set:
  Basis Set: CC-PVTZ
  Basis Set:
  @DF-RHF Final Energy:  -227.86990872931298
    Total Energy =                       -227.8699087293128969
  Basis Set: CC-PVTZ
  Basis Set:
  Basis Set: CC-PVTZ
  Basis Set:
  @DF-RHF Final Energy:  -227.86991020732412
    Total Energy =                       -227.8699102073241249
  Basis Set: CC-PVTZ
  Basis Set:
  Charge       = 0
  Multiplicity = 1
  Basis Set: CC-PVTZ
  Basis Set:

    Orbital Energies (a.u.)
    -----------------------

    Doubly Occupied:

       1A    -20.610036     2A    -20.547003     3A    -11.374401
       4A    -11.302201     5A     -1.480093     6A     -1.386222
       7A     -0.994352     8A     -0.849844     9A     -0.740704
      10A     -0.689194    11A     -0.685323    12A     -0.607840
      13A     -0.574133    14A     -0.542647    15A     -0.465802
      16A     -0.457369

  @DF-RHF Final Energy:  -227.86991037016156

   => Energetics <=

    Nuclear Repulsion Energy =            121.5076820398058430
    One-Electron Energy =                -552.1408583998154427
    Two-Electron Energy =                 202.7632659898478664
    DFT Exchange-Correlation Energy =       0.0000000000000000
    Empirical Dispersion Energy =           0.0000000000000000
    PCM Polarization Energy =               0.0000000000000000
    EFP Energy =                            0.0000000000000000
    Total Energy =                       -227.8699103701617332
    Molecular point group: c1
  Basis Set: CC-PVTZ
  Basis Set:

  -Total Gradient:
     Atom            X                  Y                   Z
    ------   -----------------  -----------------  -----------------
       1        0.000001859813    -0.000001204461    -0.000004647993
       2       -0.000112702633     0.000014088185     0.001109974682
       3        0.000232258196     0.000093313436    -0.000986080847
       4        0.000002494339    -0.000009295374     0.000007711424
       5       -0.000020187377    -0.000004151425     0.000004664352
       6       -0.000130679289    -0.000304311202    -0.001569799611
       7        0.000014106362     0.000223460328     0.001433019852
       8        0.000012850586    -0.000011899487     0.000005158140

  **** Optimization is complete! (in 6 steps) ****
    Final optimized geometry and variables:
    Molecular point group: c1

    Geometry (in Angstrom), charge = 0, multiplicity = 1:

    H            2.454510364276    -0.650661261095    -0.011657916152
    C            1.731897675011     0.130304442500     0.156444197807
    O            0.459395304759    -0.456604622092     0.013004374256
    H            1.886633642020     0.918150418982    -0.570559763555
    H            1.859295229492     0.527261940181     1.155179244052
    C           -0.583363906728     0.342292688909    -0.111685116092
    O           -1.691693045264    -0.035611140441    -0.066080264962
    H           -0.318374653926     1.389937165407    -0.263547380628

  Mulliken Charges: (a.u.)
   Center  Symbol    Alpha    Beta     Spin     Total
       1     H     0.44022  0.44022  0.00000  0.11956
       2     C     3.03107  3.03107  0.00000 -0.06214
       3     O     4.12120  4.12120  0.00000 -0.24239
       4     H     0.46334  0.46334  0.00000  0.07333
       5     H     0.45615  0.45615  0.00000  0.08769
       6     C     2.83603  2.83603  0.00000  0.32795
       7     O     4.17432  4.17432  0.00000 -0.34863
       8     H     0.47768  0.47768  0.00000  0.04464

   Total alpha = 16.00000, Total beta = 16.00000, Total charge = -0.00000
