  ==> Input File <==

--------------------------------------------------------------------------
set {
	reference rhf
	basis 6-31G*
}

set_num_threads( 4 )
memory 2 gb

molecule MOL {
0 1

H	 -0.066720	 2.155416	 -1.201090
C	 0.390238	 2.017934	 -0.213624
C	 0.692068	 0.589600	 0.160137
O	 0.612890	 2.958900	 0.477128
C	 -0.558097	 -0.297372	 0.091132
H	 1.127355	 0.582754	 1.152588
H	 1.439351	 0.214489	 -0.538213
C	 -1.850991	 0.512573	 -0.019058
H	 -0.476753	 -0.965681	 -0.762987
H	 -0.604799	 -0.930658	 0.975228
C	 -3.096943	 -0.368295	 -0.099594
H	 -1.800724	 1.150330	 -0.898172
H	 -1.931651	 1.177355	 0.838044
H	 -3.060452	 -1.020287	 -0.967456
H	 -3.996858	 0.233488	 -0.175704
H	 -3.191959	 -0.995686	 0.782074

	symmetry c1
}
set optking {
	frozen_dihedral = ("
		6 3 5 9
	")
}

ee = optimize('scf')
oeprop('DIPOLE', 'QUADRUPOLE', 'MULLIKEN_CHARGES')
f=open( 'psi4out.xyz', 'w' )
f.write( "16  " )
f.write( str(ee) + "\n" )
f.write( MOL.save_string_xyz() )
f.close()
--------------------------------------------------------------------------

    Molecular point group: c1
  Charge       = 0
  Multiplicity = 1
  Basis Set: 6-31G*
  Basis Set:
  @DF-RHF Final Energy:  -270.00858659165215
    Total Energy =                       -270.0085865916520902
    Molecular point group: c1
  Basis Set: 6-31G*
  Basis Set:
  Basis Set: 6-31G*
  Basis Set:
  @DF-RHF Final Energy:  -270.01193304895776
    Total Energy =                       -270.0119330489575304
  Basis Set: 6-31G*
  Basis Set:
  Basis Set: 6-31G*
  Basis Set:
  @DF-RHF Final Energy:  -270.01117562683919
    Total Energy =                       -270.0111756268391900
  Basis Set: 6-31G*
  Basis Set:
  Basis Set: 6-31G*
  Basis Set:
  @DF-RHF Final Energy:  -270.01211755465692
    Total Energy =                       -270.0121175546568111
  Basis Set: 6-31G*
  Basis Set:
  @DF-RHF Final Energy:  -270.01237290683218
    Total Energy =                       -270.0123729068321268
  Basis Set: 6-31G*
  Basis Set:
  @DF-RHF Final Energy:  -270.01240128125858
    Total Energy =                       -270.0124012812588035
  Basis Set: 6-31G*
  Basis Set:
  Basis Set: 6-31G*
  Basis Set:
  @DF-RHF Final Energy:  -270.01240498857635
    Total Energy =                       -270.0124049885765203
  Basis Set: 6-31G*
  Basis Set:
  Basis Set: 6-31G*
  Basis Set:
  @DF-RHF Final Energy:  -270.01240709275567
    Total Energy =                       -270.0124070927557796
  Basis Set: 6-31G*
  Basis Set:
  Charge       = 0
  Multiplicity = 1
  Basis Set: 6-31G*
  Basis Set:

    Orbital Energies (a.u.)
    -----------------------

    Doubly Occupied:

       1A    -20.561494     2A    -11.326216     3A    -11.236085
       4A    -11.234865     5A    -11.228933     6A    -11.218181
       7A     -1.401420     8A     -1.092436     9A     -1.015725
      10A     -0.905821    11A     -0.831721    12A     -0.775747
      13A     -0.672111    14A     -0.645326    15A     -0.626061
      16A     -0.603587    17A     -0.584126    18A     -0.559007
      19A     -0.520940    20A     -0.510999    21A     -0.493899
      22A     -0.475224    23A     -0.467945    24A     -0.408835

  @DF-RHF Final Energy:  -270.01240788983455

   => Energetics <=

    Nuclear Repulsion Energy =            233.8708196441479004
    One-Electron Energy =                -828.9730500873251913
    Two-Electron Energy =                 325.0898225533424011
    DFT Exchange-Correlation Energy =       0.0000000000000000
    Empirical Dispersion Energy =           0.0000000000000000
    PCM Polarization Energy =               0.0000000000000000
    EFP Energy =                            0.0000000000000000
    Total Energy =                       -270.0124078898348898
    Molecular point group: c1
  Basis Set: 6-31G*
  Basis Set:

  -Total Gradient:
     Atom            X                  Y                   Z
    ------   -----------------  -----------------  -----------------
       1        0.000006838699     0.000007872078    -0.000023946576
       2       -0.000038149642     0.000004369359     0.000017171093
       3       -0.002634401240     0.003659877636     0.001968475983
       4       -0.000058159106    -0.000063500073    -0.000009927771
       5       -0.001620131171     0.002962261631    -0.003458294023
       6        0.002531274948    -0.003533814490    -0.001089128281
       7       -0.000031885406     0.000007972677    -0.000001429278
       8        0.000070835528     0.000032037013     0.000021480081
       9        0.001831651986    -0.003117737367     0.002585654529
      10       -0.000015100920     0.000014973020    -0.000006858181
      11       -0.000016205368     0.000010471038    -0.000024290028
      12       -0.000015410707     0.000002305674     0.000008198117
      13        0.000001324296     0.000012276489     0.000007525606
      14        0.000006320461    -0.000002447101     0.000007334404
      15       -0.000017688428    -0.000005313582    -0.000003269814
      16       -0.000001113929     0.000008395994     0.000001304137

  **** Optimization is complete! (in 9 steps) ****
    Final optimized geometry and variables:
    Molecular point group: c1

    Geometry (in Angstrom), charge = 0, multiplicity = 1:

    H            0.900002812951     1.319365316117    -1.338370491756
    C            1.165801595897     1.141270622319    -0.290784985921
    C            1.319440576629    -0.304579503526     0.105659875338
    O            1.332235071023     2.059959301534     0.444873771874
    C            0.040611647437    -1.173089425553    -0.049295856875
    H            1.698649888645    -0.346322769974     1.118902645605
    H            2.101350457620    -0.717468264205    -0.529477546416
    C           -1.286842136524    -0.410559049988    -0.113015869676
    H            0.140602086705    -1.827434194566    -0.910098366224
    H            0.003457870546    -1.843179615739     0.804672801146
    C           -2.491172230272    -1.350907396667    -0.120628353189
    H           -1.321435284209     0.213295031200    -1.002470628257
    H           -1.358176811037     0.263240847716     0.737205738002
    H           -2.458224324231    -2.023678324887    -0.972879615050
    H           -3.420886776304    -0.793909753035    -0.174209612863
    H           -2.519616161378    -1.958041043121     0.779427513206

  Mulliken Charges: (a.u.)
   Center  Symbol    Alpha    Beta     Spin     Total
       1     H     0.43067  0.43067  0.00000  0.13866
       2     C     2.83308  2.83308  0.00000  0.33384
       3     C     3.21173  3.21173  0.00000 -0.42346
       4     O     4.23742  4.23742  0.00000 -0.47484
       5     C     3.15949  3.15949  0.00000 -0.31899
       6     H     0.39808  0.39808  0.00000  0.20384
       7     H     0.40897  0.40897  0.00000  0.18205
       8     C     3.16390  3.16390  0.00000 -0.32779
       9     H     0.41622  0.41622  0.00000  0.16755
      10     H     0.41246  0.41246  0.00000  0.17508
      11     C     3.23994  3.23994  0.00000 -0.47988
      12     H     0.42075  0.42075  0.00000  0.15851
      13     H     0.41188  0.41188  0.00000  0.17624
      14     H     0.42060  0.42060  0.00000  0.15880
      15     H     0.41546  0.41546  0.00000  0.16908
      16     H     0.41935  0.41935  0.00000  0.16131

   Total alpha = 24.00000, Total beta = 24.00000, Total charge =  0.00000
