  ==> Input File <==

--------------------------------------------------------------------------
set {
	reference rhf
	basis 6-31G*
}

set_num_threads( 4 )
memory 2 gb

molecule MOL {
0 1

O	 -0.682937	 1.318834	 -0.186099
C	 -0.860635	 0.152188	 -0.042321
C	 -2.173363	 -0.477127	 0.338347
O	 0.083258	 -0.765189	 -0.202595
H	 -2.477673	 -1.180929	 -0.427595
H	 -2.923125	 0.290956	 0.455536
H	 -2.058825	 -1.029004	 1.264191
C	 1.128560	 -0.506622	 -1.137092
C	 2.231918	 0.332472	 -0.519705
H	 0.713179	 -0.027323	 -2.010518
H	 1.494272	 -1.485418	 -1.412253
H	 3.045790	 0.448109	 -1.228909
H	 1.866808	 1.317558	 -0.257655
H	 2.622202	 -0.146729	 0.371620

	symmetry c1
}
set optking {
	frozen_dihedral = ("
		8 4 2 1
	")
}

ee = optimize('scf')
oeprop('DIPOLE', 'QUADRUPOLE', 'MULLIKEN_CHARGES')
f=open( 'psi4out.xyz', 'w' )
f.write( "14  " )
f.write( str(ee) + "\n" )
f.write( MOL.save_string_xyz() )
f.close()
--------------------------------------------------------------------------

    Molecular point group: c1
  Charge       = 0
  Multiplicity = 1
  Basis Set: 6-31G*
  Basis Set:
  @DF-RHF Final Energy:  -305.87002767838680
    Total Energy =                       -305.8700276783868048
    Molecular point group: c1
  Basis Set: 6-31G*
  Basis Set:
  Basis Set: 6-31G*
  Basis Set:
  @DF-RHF Final Energy:  -305.86751373813217
    Total Energy =                       -305.8675137381320042
  Basis Set: 6-31G*
  Basis Set:
  Basis Set: 6-31G*
  Basis Set:
  @DF-RHF Final Energy:  -305.87081717700880
    Total Energy =                       -305.8708171770090303
  Basis Set: 6-31G*
  Basis Set:
  Basis Set: 6-31G*
  Basis Set:
  @DF-RHF Final Energy:  -305.87094213526257
    Total Energy =                       -305.8709421352626237
  Basis Set: 6-31G*
  Basis Set:
  Basis Set: 6-31G*
  Basis Set:
  @DF-RHF Final Energy:  -305.87098741089227
    Total Energy =                       -305.8709874108923259
  Basis Set: 6-31G*
  Basis Set:
  Basis Set: 6-31G*
  Basis Set:
  @DF-RHF Final Energy:  -305.87099498482394
    Total Energy =                       -305.8709949848239376
  Basis Set: 6-31G*
  Basis Set:
  Basis Set: 6-31G*
  Basis Set:
  @DF-RHF Final Energy:  -305.87099601481248
    Total Energy =                       -305.8709960148126470
  Basis Set: 6-31G*
  Basis Set:
  Charge       = 0
  Multiplicity = 1
  Basis Set: 6-31G*
  Basis Set:

    Orbital Energies (a.u.)
    -----------------------

    Doubly Occupied:

       1A    -20.597672     2A    -20.547153     3A    -11.376541
       4A    -11.288137     5A    -11.233813     6A    -11.216039
       7A     -1.465270     8A     -1.363323     9A     -1.053834
      10A     -0.998767    11A     -0.879952    12A     -0.769764
      13A     -0.698409    14A     -0.681000    15A     -0.653305
      16A     -0.611771    17A     -0.584706    18A     -0.571036
      19A     -0.562205    20A     -0.530379    21A     -0.508848
      22A     -0.497582    23A     -0.448443    24A     -0.439185

  @DF-RHF Final Energy:  -305.87099631738226

   => Energetics <=

    Nuclear Repulsion Energy =            247.7824029437041702
    One-Electron Energy =                -908.1525262186587497
    Two-Electron Energy =                 354.4991269575724573
    DFT Exchange-Correlation Energy =       0.0000000000000000
    Empirical Dispersion Energy =           0.0000000000000000
    PCM Polarization Energy =               0.0000000000000000
    EFP Energy =                            0.0000000000000000
    Total Energy =                       -305.8709963173821507
    Molecular point group: c1
  Basis Set: 6-31G*
  Basis Set:

  -Total Gradient:
     Atom            X                  Y                   Z
    ------   -----------------  -----------------  -----------------
       1        0.001792132869     0.001740193348     0.008240739425
       2       -0.004391720490    -0.004485228905    -0.014635190707
       3       -0.000024927450    -0.000009768926    -0.000025819482
       4        0.005873650922     0.006461427800     0.011018481804
       5        0.000007549596    -0.000008547046     0.000016173012
       6        0.000001093078    -0.000000292305     0.000004056260
       7       -0.000001703019     0.000015852943     0.000012743324
       8       -0.003305437308    -0.003697355366    -0.004641995903
       9        0.000041612859    -0.000035832930     0.000001763325
      10        0.000010780605    -0.000005206633     0.000004159342
      11        0.000005090972    -0.000000687346    -0.000000573729
      12        0.000000117674     0.000006962243     0.000002641524
      13       -0.000006433732     0.000014767628     0.000003777876
      14       -0.000001806575     0.000003715491    -0.000000956071

  **** Optimization is complete! (in 8 steps) ****
    Final optimized geometry and variables:
    Molecular point group: c1

    Geometry (in Angstrom), charge = 0, multiplicity = 1:

    O           -0.767016569242     1.290923094984    -0.079646441621
    C           -0.866558294146     0.137766952865     0.186851393276
    C           -2.119366756549    -0.519999245706     0.697631301919
    O            0.151312447024    -0.717724310195     0.145362810153
    H           -2.440202033203    -1.284015105476    -0.001769992916
    H           -2.896942174659     0.219193391790     0.819857777294
    H           -1.915262851951    -1.008114436376     1.643449302815
    C            1.200429073621    -0.478279096373    -0.791593797140
    C            2.354778355276     0.272588954234    -0.155492503629
    H            0.802921532168     0.066118063763    -1.636265697140
    H            1.508731119884    -1.460921315623    -1.119759951408
    H            3.166523864427     0.377610204026    -0.869191715938
    H            2.039662455423     1.259658363234     0.157564403589
    H            2.727891563085    -0.266318127447     0.708559822479

  Mulliken Charges: (a.u.)
   Center  Symbol    Alpha    Beta     Spin     Total
       1     O     4.27810  4.27810  0.00000 -0.55621
       2     C     2.62197  2.62197  0.00000  0.75607
       3     C     3.28222  3.28222  0.00000 -0.56445
       4     O     4.30872  4.30872  0.00000 -0.61745
       5     H     0.40248  0.40248  0.00000  0.19504
       6     H     0.39739  0.39739  0.00000  0.20521
       7     H     0.39879  0.39879  0.00000  0.20241
       8     C     3.00591  3.00591  0.00000 -0.01183
       9     C     3.25070  3.25070  0.00000 -0.50140
      10     H     0.40871  0.40871  0.00000  0.18257
      11     H     0.41045  0.41045  0.00000  0.17909
      12     H     0.42011  0.42011  0.00000  0.15978
      13     H     0.40030  0.40030  0.00000  0.19941
      14     H     0.41412  0.41412  0.00000  0.17175

   Total alpha = 24.00000, Total beta = 24.00000, Total charge = -0.00000
