  ==> Input File <==

--------------------------------------------------------------------------
set {
	reference rhf
	basis 6-31G*
}

set_num_threads( 1 )
memory 2 gb

molecule MOL {
0 1

H	 -3.161837	 0.500524	 -0.000234
C	 -2.367097	 -0.232926	 -0.000000
O	 -1.158440	 0.455814	 -0.000122
H	 -2.468853	 -0.861886	 -0.882833
H	 -2.468942	 -0.861421	 0.883154
C	 -0.029776	 -0.365156	 0.000148
C	 1.212217	 0.508981	 0.000007
H	 -0.036772	 -1.013236	 -0.877259
H	 -0.036869	 -1.012778	 0.877897
C	 2.177999	 0.152341	 1.129145
H	 1.705420	 0.406137	 -0.961677
H	 0.903154	 1.546325	 0.084256
H	 2.518889	 -0.876166	 1.049205
H	 3.054281	 0.791415	 1.105478
H	 1.710669	 0.271447	 2.102706

	symmetry c1
}
set optking {
	frozen_dihedral = ("
		6 3 2 4,
		8 6 3 2
	")
}

ee = energy('scf')
oeprop('DIPOLE', 'QUADRUPOLE', 'MULLIKEN_CHARGES')
f=open( 'psi4out.xyz', 'w' )
f.write( "15  " )
f.write( str(ee) + "\n" )
f.write( MOL.save_string_xyz() )
f.close()
--------------------------------------------------------------------------

    Molecular point group: c1

    Geometry (in Angstrom), charge = 0, multiplicity = 1:

       Center              X                  Y                   Z               Mass
    ------------   -----------------  -----------------  -----------------  -----------------
           H         -3.096004244370     0.406950786850    -0.229153550896     1.007825032070
           C         -2.301264244370    -0.326499213150    -0.228919550896    12.000000000000
           O         -1.092607244370     0.362240786850    -0.229041550896    15.994914619560
           H         -2.403020244370    -0.955459213150    -1.111752550896     1.007825032070
           H         -2.403109244370    -0.954994213150     0.654234449104     1.007825032070
           C          0.036056755630    -0.458729213150    -0.228771550896    12.000000000000
           C          1.278049755630     0.415407786850    -0.228912550896    12.000000000000
           H          0.029060755630    -1.106809213150    -1.106178550896     1.007825032070
           H          0.028963755630    -1.106351213150     0.648977449104     1.007825032070
           C          2.243831755630     0.058767786850     0.900225449104    12.000000000000
           H          1.771252755630     0.312563786850    -1.190596550896     1.007825032070
           H          0.968986755630     1.452751786850    -0.144663550896     1.007825032070
           H          2.584721755630    -0.969739213150     0.820285449104     1.007825032070
           H          3.120113755630     0.697841786850     0.876558449104     1.007825032070
           H          1.776501755630     0.177873786850     1.873786449104     1.007825032070

  Charge       = 0
  Multiplicity = 1
  Basis Set: 6-31G*
  Basis Set:

    Orbital Energies (a.u.)
    -----------------------

    Doubly Occupied:

       1A    -20.553353     2A    -11.264848     3A    -11.263386
       4A    -11.212178     5A    -11.210665     6A     -1.378317
       7A     -1.056272     8A     -0.953843     9A     -0.878826
      10A     -0.807997    11A     -0.671166    12A     -0.658053
      13A     -0.631506    14A     -0.595381    15A     -0.571976
      16A     -0.544582    17A     -0.493811    18A     -0.488857
      19A     -0.479168    20A     -0.461868    21A     -0.410965

  @DF-RHF Final Energy:  -232.13326117917549

   => Energetics <=

    Nuclear Repulsion Energy =            190.4995654839881638
    One-Electron Energy =                -692.0918655484296096
    Two-Electron Energy =                 269.4590388852652723
    DFT Exchange-Correlation Energy =       0.0000000000000000
    Empirical Dispersion Energy =           0.0000000000000000
    PCM Polarization Energy =               0.0000000000000000
    EFP Energy =                            0.0000000000000000
    Total Energy =                       -232.1332611791762019

  Mulliken Charges: (a.u.)
   Center  Symbol    Alpha    Beta     Spin     Total
       1     H     0.41241  0.41241  0.00000  0.17519
       2     C     3.07977  3.07977  0.00000 -0.15953
       3     O     4.30468  4.30468  0.00000 -0.60936
       4     H     0.43052  0.43052  0.00000  0.13896
       5     H     0.43050  0.43050  0.00000  0.13899
       6     C     2.98724  2.98724  0.00000  0.02552
       7     C     3.16547  3.16547  0.00000 -0.33094
       8     H     0.43128  0.43128  0.00000  0.13743
       9     H     0.43014  0.43014  0.00000  0.13972
      10     C     3.24637  3.24637  0.00000 -0.49274
      11     H     0.41954  0.41954  0.00000  0.16092
      12     H     0.40296  0.40296  0.00000  0.19409
      13     H     0.42269  0.42269  0.00000  0.15463
      14     H     0.41844  0.41844  0.00000  0.16313
      15     H     0.41800  0.41800  0.00000  0.16399

   Total alpha = 21.00000, Total beta = 21.00000, Total charge =  0.00000
