  ==> Input File <==

--------------------------------------------------------------------------
set {
	reference rhf
	basis 6-31G*
}

set_num_threads( 4 )
memory 2 gb

molecule MOL {
0 1

O	 3.780578	 -1.625394	 2.397051
C	 2.997309	 -1.329956	 1.553092
C	 1.502655	 -1.225299	 1.737068
O	 3.347903	 -1.046386	 0.304773
C	 1.050954	 -1.531093	 3.163452
H	 1.212445	 -0.228003	 1.423427
H	 1.041228	 -1.906066	 1.026197
C	 -0.471086	 -1.531895	 3.342026
H	 1.500721	 -0.813966	 3.843568
H	 1.442659	 -2.501188	 3.449641
C	 -1.143925	 -0.169479	 3.151709
H	 -0.692414	 -1.891629	 4.344188
H	 -0.916010	 -2.253043	 2.657922
C	 -2.644696	 -0.200539	 3.447889
H	 -0.664183	 0.560338	 3.802118
H	 -0.994225	 0.183410	 2.133852
C	 -3.328555	 1.154313	 3.255947
H	 -2.802699	 -0.540257	 4.470073
H	 -3.123375	 -0.937844	 2.805280
C	 -4.826324	 1.115590	 3.557428
H	 -2.850789	 1.892494	 3.896628
H	 -3.175429	 1.493507	 2.233558
H	 -5.282510	 2.089993	 3.412375
H	 -5.011823	 0.813219	 4.584247
H	 -5.338762	 0.410690	 2.908739
C	 4.728119	 -1.109107	 -0.004993
H	 4.882018	 -1.033965	 -1.071845
H	 5.068212	 -2.067527	 0.355250
H	 5.265056	 -0.311663	 0.488280

	symmetry c1
}
set optking {
	frozen_dihedral = ("
		2 4 26 27
	")
}

ee = optimize('scf')
oeprop('DIPOLE', 'QUADRUPOLE', 'MULLIKEN_CHARGES')
f=open( 'psi4out.xyz', 'w' )
f.write( "29  " )
f.write( str(ee) + "\n" )
f.write( MOL.save_string_xyz() )
f.close()
--------------------------------------------------------------------------

    Molecular point group: c1
  Charge       = 0
  Multiplicity = 1
  Basis Set: 6-31G*
  Basis Set:
  @DF-RHF Final Energy:  -501.04225914184383
    Total Energy =                       -501.0422591418440561
    Molecular point group: c1
  Basis Set: 6-31G*
  Basis Set:
  Basis Set: 6-31G*
  Basis Set:
  @DF-RHF Final Energy:  -501.04359225256633
    Total Energy =                       -501.0435922525659862
  Basis Set: 6-31G*
  Basis Set:
  Basis Set: 6-31G*
  Basis Set:
  @DF-RHF Final Energy:  -501.04391700051576
    Total Energy =                       -501.0439170005155347
  Basis Set: 6-31G*
  Basis Set:
  Basis Set: 6-31G*
  Basis Set:
  @DF-RHF Final Energy:  -501.04295603235528
    Total Energy =                       -501.0429560323552778
  Basis Set: 6-31G*
  Basis Set:
  Basis Set: 6-31G*
  Basis Set:
  @DF-RHF Final Energy:  -501.04394239697046
    Total Energy =                       -501.0439423969710333
  Basis Set: 6-31G*
  Basis Set:
  Basis Set: 6-31G*
  Basis Set:
  @DF-RHF Final Energy:  -501.04394416052992
    Total Energy =                       -501.0439441605302591
  Basis Set: 6-31G*
  Basis Set:
  Charge       = 0
  Multiplicity = 1
  Basis Set: 6-31G*
  Basis Set:

    Orbital Energies (a.u.)
    -----------------------

    Doubly Occupied:

       1A    -20.603290     2A    -20.545132     3A    -11.372096
       4A    -11.280562     5A    -11.234670     6A    -11.219046
       7A    -11.217610     8A    -11.215974     9A    -11.215836
      10A    -11.214440    11A    -11.209055    12A     -1.468843
      13A     -1.362559    14A     -1.098061    15A     -1.066778
      16A     -1.019498    17A     -0.977282    18A     -0.928564
      19A     -0.861598    20A     -0.799233    21A     -0.790482
      22A     -0.763695    23A     -0.700783    24A     -0.682163
      25A     -0.672196    26A     -0.650891    27A     -0.628881
      28A     -0.604753    29A     -0.594645    30A     -0.580963
      31A     -0.567253    32A     -0.549299    33A     -0.532150
      34A     -0.530096    35A     -0.515697    36A     -0.511939
      37A     -0.496273    38A     -0.477789    39A     -0.470161
      40A     -0.462362    41A     -0.458668    42A     -0.455848
      43A     -0.440916    44A     -0.435466

  @DF-RHF Final Energy:  -501.04394346153310

   => Energetics <=

    Nuclear Repulsion Energy =            610.2289690402905080
    One-Electron Energy =               -1891.5788318402449022
    Two-Electron Energy =                 780.3059193384211767
    DFT Exchange-Correlation Energy =       0.0000000000000000
    Empirical Dispersion Energy =           0.0000000000000000
    PCM Polarization Energy =               0.0000000000000000
    EFP Energy =                            0.0000000000000000
    Total Energy =                       -501.0439434615331038
    Molecular point group: c1
  Basis Set: 6-31G*
  Basis Set:

  -Total Gradient:
     Atom            X                  Y                   Z
    ------   -----------------  -----------------  -----------------
       1       -0.000007250924     0.000001040427     0.000031112345
       2       -0.000073126044    -0.000794527048    -0.000223497951
       3       -0.000009967625     0.000010582651    -0.000001606450
       4        0.000159888143     0.000966701909     0.000250172785
       5        0.000012042494    -0.000048719216    -0.000017138758
       6       -0.000025475557     0.000028792529    -0.000005658121
       7        0.000000708635     0.000001945135     0.000008340975
       8       -0.000000597466    -0.000001087968     0.000035485642
       9        0.000002450712    -0.000018830806     0.000011752115
      10        0.000003863675    -0.000003525839    -0.000022049654
      11        0.000018393819     0.000003715795    -0.000009168715
      12        0.000000175227     0.000024049461     0.000007595689
      13       -0.000008420592    -0.000015791138     0.000027891895
      14       -0.000005715337    -0.000001364626    -0.000018267258
      15       -0.000012695118    -0.000013137117     0.000005318750
      16        0.000043700474     0.000014522383    -0.000029432193
      17       -0.000000637447    -0.000000504993    -0.000004454587
      18        0.000006663213     0.000004514577    -0.000000190867
      19       -0.000005551097    -0.000004176382     0.000003080953
      20       -0.000000737658    -0.000001195702    -0.000004041256
      21       -0.000000156670    -0.000001890276     0.000001616771
      22        0.000000688015     0.000002208278     0.000001023363
      23       -0.000000123406    -0.000000245138    -0.000000943813
      24        0.000000859685     0.000000820980     0.000000008312
      25       -0.000000898306    -0.000000677288     0.000000539777
      26        0.000045315920     0.000829946082    -0.000027494349
      27       -0.000105632714    -0.000945028082    -0.000049389238
      28       -0.000005841802    -0.000030209770     0.000023298352
      29       -0.000031922284    -0.000007928816     0.000006095488

  **** Optimization is complete! (in 7 steps) ****
    Final optimized geometry and variables:
    Molecular point group: c1

    Geometry (in Angstrom), charge = 0, multiplicity = 1:

    O            3.286964990152    -0.949394230474     0.070360851037
    C            2.505324917987    -0.647140781592    -0.772667165523
    C            1.010613965443    -0.541900352372    -0.589406424108
    O            2.856567688962    -0.353774839020    -2.018634144417
    C            0.557332589798    -0.854939245307     0.834892618973
    H            0.722019439722     0.457531447475    -0.897706539264
    H            0.548858853725    -1.218048508180    -1.304452826776
    C           -0.964818437824    -0.853091406419     1.012379070118
    H            1.008312953650    -0.142744209480     1.519367900747
    H            0.946586477272    -1.827557392713     1.115797807335
    C           -1.635155659744     0.510302151740     0.820205935581
    H           -1.187565384210    -1.211560998515     2.014681379568
    H           -1.410423797918    -1.574069221407     0.328537784777
    C           -3.137041378737     0.481121486755     1.110898701516
    H           -1.156802480203     1.239206833610     1.472645445244
    H           -1.481262056006     0.863398869835    -0.196958996905
    C           -3.818618787519     1.836672161391     0.915836760629
    H           -3.299184711434     0.142042077511     2.132642628560
    H           -3.614213361863    -0.255917411346     0.466867897320
    C           -5.317754536249     1.799544705517     1.210667724463
    H           -3.342923361709     2.574403379347     1.558567947505
    H           -3.660609262976     2.175621055142    -0.105889192581
    H           -5.772312777783     2.774354875726     1.063241519620
    H           -5.508114663846     1.497721642484     2.236755535080
    H           -5.828007815753     1.094922716404     0.559957662681
    C            4.233747250438    -0.433301790409    -2.338170712165
    H            4.294506596506    -0.339408906749    -3.411253109093
    H            4.644005220629    -1.381367561937    -2.023827413630
    H            4.779451836358     0.367375047896    -1.858693665377

  Mulliken Charges: (a.u.)
   Center  Symbol    Alpha    Beta     Spin     Total
       1     O     4.28592  4.28592  0.00000 -0.57183
       2     C     2.60478  2.60478  0.00000  0.79044
       3     C     3.20981  3.20981  0.00000 -0.41963
       4     O     4.30762  4.30762  0.00000 -0.61524
       5     C     3.15374  3.15374  0.00000 -0.30749
       6     H     0.39870  0.39870  0.00000  0.20260
       7     H     0.40135  0.40135  0.00000  0.19731
       8     C     3.15660  3.15660  0.00000 -0.31319
       9     H     0.41307  0.41307  0.00000  0.17385
      10     H     0.40878  0.40878  0.00000  0.18244
      11     C     3.15514  3.15514  0.00000 -0.31028
      12     H     0.41823  0.41823  0.00000  0.16354
      13     H     0.42388  0.42388  0.00000  0.15224
      14     C     3.15027  3.15027  0.00000 -0.30055
      15     H     0.42260  0.42260  0.00000  0.15480
      16     H     0.42359  0.42359  0.00000  0.15283
      17     C     3.15146  3.15146  0.00000 -0.30291
      18     H     0.42332  0.42332  0.00000  0.15336
      19     H     0.42398  0.42398  0.00000  0.15203
      20     C     3.23935  3.23935  0.00000 -0.47870
      21     H     0.42280  0.42280  0.00000  0.15441
      22     H     0.42343  0.42343  0.00000  0.15314
      23     H     0.41923  0.41923  0.00000  0.16154
      24     H     0.42155  0.42155  0.00000  0.15691
      25     H     0.42183  0.42183  0.00000  0.15633
      26     C     3.09272  3.09272  0.00000 -0.18544
      27     H     0.40868  0.40868  0.00000  0.18263
      28     H     0.40658  0.40658  0.00000  0.18685
      29     H     0.41099  0.41099  0.00000  0.17803

   Total alpha = 44.00000, Total beta = 44.00000, Total charge =  0.00000
