  ==> Input File <==

--------------------------------------------------------------------------
set {
	reference rhf
	basis 6-31G*
}

set_num_threads( 1 )
memory 2 gb

molecule MOL {
0 1

H	 -3.420663	 1.227371	 -1.044276
O	 -3.452007	 0.283848	 -0.965577
C	 -3.181085	 -0.079926	 0.364119
C	 -1.765924	 0.277073	 0.805136
H	 -3.327791	 -1.152017	 0.410903
H	 -3.905698	 0.375695	 1.036898
C	 -0.677594	 -0.417312	 -0.014550
H	 -1.637766	 1.358238	 0.744969
H	 -1.659588	 0.017670	 1.857098
C	 0.738335	 -0.034840	 0.421385
H	 -0.814977	 -0.178223	 -1.064632
H	 -0.802730	 -1.495410	 0.071702
C	 1.822265	 -0.738362	 -0.399735
H	 0.853533	 1.043532	 0.342250
H	 0.871597	 -0.279636	 1.474438
C	 2.229217	 -2.120090	 0.125025
H	 2.703714	 -0.101217	 -0.452537
H	 1.467277	 -0.848729	 -1.422290
C	 2.920372	 -2.103763	 1.489739
H	 2.898321	 -2.579648	 -0.598437
H	 1.350145	 -2.759718	 0.173085
H	 3.796926	 -1.461436	 1.475281
H	 3.247342	 -3.100952	 1.768205
H	 2.261771	 -1.747128	 2.274735

	symmetry c1
}
set optking {
	frozen_dihedral = ("
		20 16 13 17,
		13 10 7 11,
		11 7 4 3,
		1 2 3 5,
		7 4 3 2
	")
}

ee = energy('scf')
oeprop('DIPOLE', 'QUADRUPOLE', 'MULLIKEN_CHARGES')
f=open( 'psi4out.xyz', 'w' )
f.write( "24  " )
f.write( str(ee) + "\n" )
f.write( MOL.save_string_xyz() )
f.close()
--------------------------------------------------------------------------

    Molecular point group: c1

    Geometry (in Angstrom), charge = 0, multiplicity = 1:

       Center              X                  Y                   Z               Mass
    ------------   -----------------  -----------------  -----------------  -----------------
           H         -3.194382307633     1.828813156275    -1.260876236454     1.007825032070
           O         -3.225726307633     0.885290156275    -1.182177236454    15.994914619560
           C         -2.954804307633     0.521516156275     0.147518763546    12.000000000000
           C         -1.539643307633     0.878515156275     0.588535763546    12.000000000000
           H         -3.101510307633    -0.550574843725     0.194302763546     1.007825032070
           H         -3.679417307633     0.977137156275     0.820297763546     1.007825032070
           C         -0.451313307633     0.184130156275    -0.231150236454    12.000000000000
           H         -1.411485307633     1.959680156275     0.528368763546     1.007825032070
           H         -1.433307307633     0.619112156275     1.640497763546     1.007825032070
           C          0.964615692367     0.566602156275     0.204784763546    12.000000000000
           H         -0.588696307633     0.423219156275    -1.281232236454     1.007825032070
           H         -0.576449307633    -0.893967843725    -0.144898236454     1.007825032070
           C          2.048545692367    -0.136919843725    -0.616335236454    12.000000000000
           H          1.079813692367     1.644974156275     0.125649763546     1.007825032070
           H          1.097877692367     0.321806156275     1.257837763546     1.007825032070
           C          2.455497692367    -1.518647843725    -0.091575236454    12.000000000000
           H          2.929994692367     0.500225156275    -0.669137236454     1.007825032070
           H          1.693557692367    -0.247286843725    -1.638890236454     1.007825032070
           C          3.146652692367    -1.502320843725     1.273138763546    12.000000000000
           H          3.124601692367    -1.978205843725    -0.815037236454     1.007825032070
           H          1.576425692367    -2.158275843725    -0.043515236454     1.007825032070
           H          4.023206692367    -0.859993843725     1.258680763546     1.007825032070
           H          3.473622692367    -2.499509843725     1.551604763546     1.007825032070
           H          2.488051692367    -1.145685843725     2.058134763546     1.007825032070

  Charge       = 0
  Multiplicity = 1
  Basis Set: 6-31G*
  Basis Set:

    Orbital Energies (a.u.)
    -----------------------

    Doubly Occupied:

       1A    -20.553545     2A    -11.267641     3A    -11.217234
       4A    -11.213946     5A    -11.211505     6A    -11.210870
       7A    -11.210586     8A    -11.207457     9A     -1.360136
      10A     -1.089456    11A     -1.047100    12A     -0.984917
      13A     -0.914938    14A     -0.852443    15A     -0.806660
      16A     -0.767649    17A     -0.680063    18A     -0.652042
      19A     -0.625704    20A     -0.617102    21A     -0.606455
      22A     -0.576701    23A     -0.557198    24A     -0.544927
      25A     -0.519905    26A     -0.508179    27A     -0.494837
      28A     -0.476918    29A     -0.467776    30A     -0.460437
      31A     -0.451141    32A     -0.446651    33A     -0.419352

  @DF-RHF Final Energy:  -349.24421464602671

   => Energetics <=

    Nuclear Repulsion Energy =            388.6960350561805058
    One-Electron Energy =               -1243.8379015603054540
    Two-Electron Energy =                 505.8976518580977881
    DFT Exchange-Correlation Energy =       0.0000000000000000
    Empirical Dispersion Energy =           0.0000000000000000
    PCM Polarization Energy =               0.0000000000000000
    EFP Energy =                            0.0000000000000000
    Total Energy =                       -349.2442146460271033

  Mulliken Charges: (a.u.)
   Center  Symbol    Alpha    Beta     Spin     Total
       1     H     0.28337  0.28337  0.00000  0.43325
       2     O     4.36831  4.36831  0.00000 -0.73662
       3     C     2.99607  2.99607  0.00000  0.00785
       4     C     3.16881  3.16881  0.00000 -0.33762
       5     H     0.41646  0.41646  0.00000  0.16707
       6     H     0.42827  0.42827  0.00000  0.14347
       7     C     3.15345  3.15345  0.00000 -0.30690
       8     H     0.42828  0.42828  0.00000  0.14343
       9     H     0.42256  0.42256  0.00000  0.15488
      10     C     3.15580  3.15580  0.00000 -0.31160
      11     H     0.41185  0.41185  0.00000  0.17629
      12     H     0.42306  0.42306  0.00000  0.15389
      13     C     3.15568  3.15568  0.00000 -0.31136
      14     H     0.42235  0.42235  0.00000  0.15530
      15     H     0.42271  0.42271  0.00000  0.15459
      16     C     3.15383  3.15383  0.00000 -0.30766
      17     H     0.42251  0.42251  0.00000  0.15499
      18     H     0.42035  0.42035  0.00000  0.15929
      19     C     3.24059  3.24059  0.00000 -0.48118
      20     H     0.42064  0.42064  0.00000  0.15872
      21     H     0.42262  0.42262  0.00000  0.15476
      22     H     0.42214  0.42214  0.00000  0.15571
      23     H     0.41921  0.41921  0.00000  0.16157
      24     H     0.42106  0.42106  0.00000  0.15788

   Total alpha = 33.00000, Total beta = 33.00000, Total charge = -0.00000
