  ==> Input File <==

--------------------------------------------------------------------------
set {
	reference rhf
	basis 6-31G*
}

set_num_threads( 4 )
memory 2 gb

molecule MOL {
0 1

H	 -3.135461	 -1.215070	 0.001379
O	 -2.310168	 -0.871793	 -0.309793
C	 -2.026376	 0.340750	 0.341611
C	 -0.673256	 0.843270	 -0.132153
H	 -2.792215	 1.080697	 0.115987
H	 -2.013526	 0.200402	 1.421792
C	 0.486613	 -0.083066	 0.235839
H	 -0.715586	 0.970948	 -1.210718
H	 -0.508072	 1.829858	 0.297090
C	 1.409848	 -0.380756	 -0.946884
H	 0.088301	 -1.012092	 0.630517
H	 1.067112	 0.370858	 1.038220
C	 2.572243	 -1.301762	 -0.577753
H	 0.831482	 -0.834916	 -1.748725
H	 1.802422	 0.552805	 -1.345371
H	 2.211693	 -2.257466	 -0.208261
H	 3.208375	 -1.497130	 -1.435722
H	 3.190802	 -0.860480	 0.198884

	symmetry c1
}
set optking {
	frozen_dihedral = ("
		10 7 4 8
	")
}

ee = optimize('scf')
oeprop('DIPOLE', 'QUADRUPOLE', 'MULLIKEN_CHARGES')
f=open( 'psi4out.xyz', 'w' )
f.write( "18  " )
f.write( str(ee) + "\n" )
f.write( MOL.save_string_xyz() )
f.close()
--------------------------------------------------------------------------

    Molecular point group: c1
  Charge       = 0
  Multiplicity = 1
  Basis Set: 6-31G*
  Basis Set:
  @DF-RHF Final Energy:  -271.17533109222484
    Total Energy =                       -271.1753310922247806
    Molecular point group: c1
  Basis Set: 6-31G*
  Basis Set:
  Basis Set: 6-31G*
  Basis Set:
  @DF-RHF Final Energy:  -271.17556091051517
    Total Energy =                       -271.1755609105151734
  Basis Set: 6-31G*
  Basis Set:
  Basis Set: 6-31G*
  Basis Set:
  @DF-RHF Final Energy:  -271.17562526707354
    Total Energy =                       -271.1756252670737695
  Basis Set: 6-31G*
  Basis Set:
  Basis Set: 6-31G*
  Basis Set:
  @DF-RHF Final Energy:  -271.17561898103526
    Total Energy =                       -271.1756189810351998
  Basis Set: 6-31G*
  Basis Set:
  Basis Set: 6-31G*
  Basis Set:
  @DF-RHF Final Energy:  -271.17563016291780
    Total Energy =                       -271.1756301629177415
  Basis Set: 6-31G*
  Basis Set:
  Charge       = 0
  Multiplicity = 1
  Basis Set: 6-31G*
  Basis Set:

    Orbital Energies (a.u.)
    -----------------------

    Doubly Occupied:

       1A    -20.553526     2A    -11.268269     3A    -11.211577
       4A    -11.208023     5A    -11.206431     6A    -11.202582
       7A     -1.360185     8A     -1.071771     9A     -1.007288
      10A     -0.911998    11A     -0.817902    12A     -0.783110
      13A     -0.705387    14A     -0.639199    15A     -0.623052
      16A     -0.580298    17A     -0.568499    18A     -0.558248
      19A     -0.520671    20A     -0.498033    21A     -0.489146
      22A     -0.466296    23A     -0.453685    24A     -0.446536
      25A     -0.429119

  @DF-RHF Final Energy:  -271.17563019860779

   => Energetics <=

    Nuclear Repulsion Energy =            250.7704638497438054
    One-Electron Energy =                -864.7305275715777952
    Two-Electron Energy =                 342.7844335232264257
    DFT Exchange-Correlation Energy =       0.0000000000000000
    Empirical Dispersion Energy =           0.0000000000000000
    PCM Polarization Energy =               0.0000000000000000
    EFP Energy =                            0.0000000000000000
    Total Energy =                       -271.1756301986075641
    Molecular point group: c1
  Basis Set: 6-31G*
  Basis Set:

  -Total Gradient:
     Atom            X                  Y                   Z
    ------   -----------------  -----------------  -----------------
       1       -0.000002009188     0.000001057924    -0.000005364766
       2       -0.000037957132     0.000018384604    -0.000013208975
       3        0.000033681176    -0.000032197718     0.000029639988
       4       -0.001926377087    -0.002558168015    -0.000361771450
       5       -0.000002990852    -0.000009668421    -0.000004026212
       6       -0.000001007251     0.000007239123     0.000003297319
       7        0.001489974592     0.002079362062     0.000562882606
       8        0.001295402640     0.001674385007     0.000144523319
       9       -0.000002576631     0.000002426469     0.000008546389
      10       -0.000869207795    -0.001201553898    -0.000354422170
      11        0.000010366548     0.000018581262    -0.000005203728
      12        0.000008465024     0.000006829072    -0.000007641278
      13        0.000004221079    -0.000002502307     0.000002457456
      14        0.000000606495    -0.000006936971     0.000002567561
      15       -0.000005353696     0.000000052269     0.000000413582
      16       -0.000000086293     0.000005069753     0.000001189587
      17        0.000004550330    -0.000002276408    -0.000001548037
      18        0.000000298046    -0.000000083807    -0.000002331191

  **** Optimization is complete! (in 6 steps) ****
    Final optimized geometry and variables:
    Molecular point group: c1

    Geometry (in Angstrom), charge = 0, multiplicity = 1:

    H           -2.996270718695    -0.946190048494     0.243783744434
    O           -2.185061604966    -0.588515680782    -0.087651959555
    C           -1.890583771374     0.614716797271     0.576295230039
    C           -0.538321567839     1.110113779238     0.095492092792
    H           -2.654040579502     1.361376026609     0.365578414438
    H           -1.869083004972     0.461239777297     1.654539798867
    C            0.632302986148     0.174360249851     0.460388963649
    H           -0.588043721671     1.248766133057    -0.980624737485
    H           -0.373290148771     2.099186610188     0.516274016411
    C            1.561450890108    -0.122733329993    -0.718246837292
    H            0.236866802509    -0.768082266796     0.826560729023
    H            1.208457630980     0.604408735899     1.276333093477
    C            2.729396908381    -1.032824797490    -0.341972868200
    H            0.980585648561    -0.584735943300    -1.512405767659
    H            1.947558092123     0.811341177695    -1.122659671409
    H            2.374765044952    -1.987076217058     0.037453218631
    H            3.364701603976    -1.233611659397    -1.199317716073
    H            3.347753467704    -0.580758545520     0.428810400464

  Mulliken Charges: (a.u.)
   Center  Symbol    Alpha    Beta     Spin     Total
       1     H     0.28061  0.28061  0.00000  0.43877
       2     O     4.36922  4.36922  0.00000 -0.73844
       3     C     2.99997  2.99997  0.00000  0.00006
       4     C     3.16236  3.16236  0.00000 -0.32472
       5     H     0.42952  0.42952  0.00000  0.14096
       6     H     0.43242  0.43242  0.00000  0.13516
       7     C     3.15379  3.15379  0.00000 -0.30758
       8     H     0.41248  0.41248  0.00000  0.17504
       9     H     0.42185  0.42185  0.00000  0.15630
      10     C     3.15378  3.15378  0.00000 -0.30757
      11     H     0.41171  0.41171  0.00000  0.17657
      12     H     0.42514  0.42514  0.00000  0.14971
      13     C     3.24008  3.24008  0.00000 -0.48017
      14     H     0.41651  0.41651  0.00000  0.16698
      15     H     0.42554  0.42554  0.00000  0.14893
      16     H     0.42123  0.42123  0.00000  0.15753
      17     H     0.42029  0.42029  0.00000  0.15943
      18     H     0.42349  0.42349  0.00000  0.15301

   Total alpha = 25.00000, Total beta = 25.00000, Total charge = -0.00000
