                              Psi4 1.0.54 Driver

  ==> Input File <==

--------------------------------------------------------------------------
set {
	reference rhf
	basis cc-pvtz
}

set_num_threads( 4 )
memory 2 gb

molecule MOL {
0 1

H	 2.614283	 2.028610	 0.296620
O	 3.358864	 1.662087	 -0.142800
C	 3.565468	 0.338079	 0.273842
C	 2.533667	 -0.637565	 -0.272227
H	 4.548038	 0.064914	 -0.086598
H	 3.593945	 0.282242	 1.360360
C	 1.114816	 -0.402372	 0.240993
H	 2.544552	 -0.580764	 -1.356576
H	 2.850574	 -1.642962	 -0.005497
C	 0.301162	 0.515446	 -0.670277
H	 1.160039	 0.025170	 1.237068
H	 0.602262	 -1.358398	 0.333683
C	 -1.152519	 0.726778	 -0.243188
H	 0.798150	 1.479925	 -0.741071
H	 0.306922	 0.098680	 -1.673643
C	 -1.337298	 1.500400	 1.061077
H	 -1.666870	 1.260934	 -1.037322
H	 -1.646140	 -0.239039	 -0.161393
C	 -2.802642	 1.771335	 1.392397
H	 -0.805186	 2.446893	 0.994172
H	 -0.887033	 0.955871	 1.885548
C	 -2.990896	 2.540300	 2.695910
H	 -3.257692	 2.327712	 0.577565
H	 -3.337494	 0.827125	 1.451248
H	 -2.494176	 3.504140	 2.656932
H	 -4.040730	 2.717848	 2.899459
H	 -2.579501	 1.992121	 3.537102

	symmetry c1
}
set optking {
	frozen_dihedral = ("
		10 7 4 8
	")
}

ee,wfn = optimize('scf', return_wfn=True)
oeprop( wfn, 'DIPOLE', 'QUADRUPOLE', 'MULLIKEN_CHARGES')
f=open( 'psi4out.xyz', 'w' )
f.write( "27  " )
f.write( str(ee) + "\n" )
f.write( MOL.save_string_xyz() )
f.close()
--------------------------------------------------------------------------

    Molecular point group: c1
  Charge       = 0
  Multiplicity = 1
  Basis Set: CC-PVTZ
  Basis Set:
  @DF-RHF Final Energy:  -388.42302103944701
    Total Energy =                       -388.4230210394471214
    Molecular point group: c1
  Basis Set: CC-PVTZ
  Basis Set:
  Basis Set: CC-PVTZ
  Basis Set:
  @DF-RHF Final Energy:  -388.42360915143956
    Total Energy =                       -388.4236091514396776
  Basis Set: CC-PVTZ
  Basis Set:
  Basis Set: CC-PVTZ
  Basis Set:
  @DF-RHF Final Energy:  -388.42374581805109
    Total Energy =                       -388.4237458180504063
  Basis Set: CC-PVTZ
  Basis Set:
  Basis Set: CC-PVTZ
  Basis Set:
  @DF-RHF Final Energy:  -388.42375087926092
    Total Energy =                       -388.4237508792612061
  Basis Set: CC-PVTZ
  Basis Set:
  Basis Set: CC-PVTZ
  Basis Set:
  @DF-RHF Final Energy:  -388.42375197524689
    Total Energy =                       -388.4237519752462049
  Basis Set: CC-PVTZ
  Basis Set:
  Charge       = 0
  Multiplicity = 1
  Basis Set: CC-PVTZ
  Basis Set:

    Orbital Energies (a.u.)
    -----------------------

    Doubly Occupied:

       1A    -20.546084     2A    -11.265377     3A    -11.216516
       4A    -11.214338     5A    -11.213410     6A    -11.213116
       7A    -11.212601     8A    -11.212046     9A    -11.207860
      10A     -1.363876    11A     -1.094784    12A     -1.061182
      13A     -1.012494    14A     -0.949531    15A     -0.888759
      16A     -0.822032    17A     -0.800881    18A     -0.777261
      19A     -0.700373    20A     -0.648955    21A     -0.639899
      22A     -0.615573    23A     -0.595277    24A     -0.584087
      25A     -0.574293    26A     -0.558005    27A     -0.546015
      28A     -0.531382    29A     -0.513836    30A     -0.496013
      31A     -0.489530    32A     -0.472835    33A     -0.466682
      34A     -0.458221    35A     -0.449657    36A     -0.440774
      37A     -0.424494

  @DF-RHF Final Energy:  -388.42375202429434

   => Energetics <=

    Nuclear Repulsion Energy =            468.0382817694085134
    One-Electron Energy =               -1454.3679735849316330
    Two-Electron Energy =                 597.9059397912285476
    DFT Exchange-Correlation Energy =       0.0000000000000000
    Empirical Dispersion Energy =           0.0000000000000000
    PCM Polarization Energy =               0.0000000000000000
    EFP Energy =                            0.0000000000000000
    Total Energy =                       -388.4237520242945720
    Molecular point group: c1
  Basis Set: CC-PVTZ
  Basis Set:

  -Total Gradient:
     Atom            X                  Y                   Z
    ------   -----------------  -----------------  -----------------
       1       -0.000020719783     0.000021491721     0.000019952219
       2        0.000013912196    -0.000031680471    -0.000023762941
       3        0.000001152089     0.000005939128     0.000006196381
       4       -0.000188249706    -0.000829272506    -0.000149771150
       5        0.000005977449     0.000006945180    -0.000003189057
       6        0.000000078111    -0.000000147665     0.000008626704
       7        0.000206535180     0.000598341625     0.000321811194
       8        0.000101231975     0.000559690244     0.000032909342
       9       -0.000002523838    -0.000000337129    -0.000000219185
      10       -0.000121712100    -0.000320322192    -0.000207400978
      11        0.000011535485    -0.000000696021    -0.000009807450
      12       -0.000008993773    -0.000015012468     0.000006544078
      13        0.000001193650    -0.000026395169    -0.000003314752
      14        0.000007050253     0.000007794721     0.000008013798
      15        0.000004451725     0.000001553941    -0.000003621508
      16        0.000005925897     0.000014297311    -0.000004745384
      17       -0.000003298596    -0.000000409417     0.000005617791
      18       -0.000000706748    -0.000007691106    -0.000004411012
      19       -0.000001016795     0.000006259756    -0.000002319144
      20        0.000001570110     0.000005370188    -0.000000433114
      21       -0.000011491114     0.000008487931    -0.000001265937
      22        0.000000972663    -0.000006459912     0.000002738886
      23        0.000000190800     0.000003554278    -0.000002115050
      24       -0.000001772104    -0.000001698530    -0.000000863052
      25       -0.000000796344     0.000001542377    -0.000002017857
      26       -0.000002369877    -0.000000723444     0.000001970646
      27        0.000001873200    -0.000000422373     0.000004876530

  **** Optimization is complete! (in 6 steps) ****
    Final optimized geometry and variables:
    Molecular point group: c1

    Geometry (in Angstrom), charge = 0, multiplicity = 1:

    H            2.337327917167     1.106163355178    -0.011400983411
    O            3.039229433161     0.755289250022    -0.527030600540
    C            3.250261529080    -0.594060975956    -0.204109340631
    C            2.216645725385    -1.546477612330    -0.790001078760
    H            4.228216325833    -0.843552515601    -0.594111184442
    H            3.293555189299    -0.719521495141     0.875817375776
    C            0.775393196357    -1.327361111634    -0.302008938635
    H            2.253429093836    -1.477736953296    -1.872653172165
    H            2.536247169477    -2.551480959304    -0.529695977803
    C           -0.060086550163    -0.408460364512    -1.197410008668
    H            0.795931866183    -0.951911615595     0.717578961626
    H            0.271500445074    -2.287746290913    -0.250185880682
    C           -1.505343766631    -0.211096726040    -0.736344705326
    H            0.421750747731     0.558462101699    -1.300067907620
    H           -0.072979359493    -0.837206491431    -2.195170225676
    C           -1.668700699483     0.605457533443     0.544636212437
    H           -2.053261852297     0.285282666685    -1.532386939931
    H           -1.977091284059    -1.182475662684    -0.606077639342
    C           -3.128770139945     0.846199400344     0.919531634040
    H           -1.170547252288     1.565228404400     0.421947638984
    H           -1.173204788091     0.107006453135     1.372410547853
    C           -3.294094155782     1.660500602130     2.198312283231
    H           -3.629721868930     1.355697449937     0.101084617129
    H           -3.631022349273    -0.110466129268     1.034752181975
    H           -2.830909143279     2.637086170942     2.103188250878
    H           -4.340929077697     1.813532079643     2.434268804928
    H           -2.834881678705     1.159372073197     3.044093402752

  Mulliken Charges: (a.u.)
   Center  Symbol    Alpha    Beta     Spin     Total
       1     H     0.39112  0.39112  0.00000  0.21776
       2     O     4.20539  4.20539  0.00000 -0.41079
       3     C     2.98103  2.98103  0.00000  0.03793
       4     C     3.09231  3.09231  0.00000 -0.18461
       5     H     0.44951  0.44951  0.00000  0.10097
       6     H     0.46937  0.46937  0.00000  0.06126
       7     C     3.11529  3.11529  0.00000 -0.23058
       8     H     0.45366  0.45366  0.00000  0.09267
       9     H     0.44832  0.44832  0.00000  0.10336
      10     C     3.10368  3.10368  0.00000 -0.20736
      11     H     0.45282  0.45282  0.00000  0.09435
      12     H     0.44481  0.44481  0.00000  0.11038
      13     C     3.09652  3.09652  0.00000 -0.19304
      14     H     0.44820  0.44820  0.00000  0.10361
      15     H     0.44557  0.44557  0.00000  0.10885
      16     C     3.09012  3.09012  0.00000 -0.18024
      17     H     0.44731  0.44731  0.00000  0.10539
      18     H     0.45407  0.45407  0.00000  0.09187
      19     C     3.08383  3.08383  0.00000 -0.16765
      20     H     0.45673  0.45673  0.00000  0.08653
      21     H     0.45396  0.45396  0.00000  0.09208
      22     C     3.14982  3.14982  0.00000 -0.29964
      23     H     0.45350  0.45350  0.00000  0.09299
      24     H     0.45412  0.45412  0.00000  0.09176
      25     H     0.45520  0.45520  0.00000  0.08961
      26     H     0.44798  0.44798  0.00000  0.10404
      27     H     0.45575  0.45575  0.00000  0.08850

   Total alpha = 37.00000, Total beta = 37.00000, Total charge =  0.00000

*** Psi4 exiting successfully. Buy a developer a beer!
