  ==> Input File <==

--------------------------------------------------------------------------
set {
	reference rhf
	basis cc-pvtz
}

set_num_threads( 4 )
memory 2 gb

molecule MOL {
0 1

H	 2.223307	 -0.281026	 0.570708
O	 1.583947	 -0.677544	 -0.001533
C	 0.489979	 0.078084	 0.002623
C	 -0.763662	 -0.754014	 0.000816
O	 0.539051	 1.259395	 -0.000088
C	 -2.038001	 0.074705	 -0.000833
H	 -0.712945	 -1.405886	 -0.864342
H	 -0.715137	 -1.405770	 0.866182
H	 -2.087267	 0.710831	 -0.874232
H	 -2.903419	 -0.576199	 -0.001922
H	 -2.089467	 0.710909	 0.872389

	symmetry c1
}
set optking {
	frozen_dihedral = ("
		1 2 3 5
	")
}

ee = optimize('scf')
oeprop('DIPOLE', 'QUADRUPOLE', 'MULLIKEN_CHARGES')
f=open( 'psi4out.xyz', 'w' )
f.write( "11  " )
f.write( str(ee) + "\n" )
f.write( MOL.save_string_xyz() )
f.close()
--------------------------------------------------------------------------

    Molecular point group: c1
  Charge       = 0
  Multiplicity = 1
  Basis Set: CC-PVTZ
  Basis Set:
  @DF-RHF Final Energy:  -266.94509149683324
    Total Energy =                       -266.9450914968331858
    Molecular point group: c1
  Basis Set: CC-PVTZ
  Basis Set:
  Basis Set: CC-PVTZ
  Basis Set:
  @DF-RHF Final Energy:  -266.94204381746692
    Total Energy =                       -266.9420438174669243
  Basis Set: CC-PVTZ
  Basis Set:
  Basis Set: CC-PVTZ
  Basis Set:
  @DF-RHF Final Energy:  -266.94570392478022
    Total Energy =                       -266.9457039247800481
  Basis Set: CC-PVTZ
  Basis Set:
  Basis Set: CC-PVTZ
  Basis Set:
  @DF-RHF Final Energy:  -266.94577587986845
    Total Energy =                       -266.9457758798685063
  Basis Set: CC-PVTZ
  Basis Set:
  @DF-RHF Final Energy:  -266.94578438788767
    Total Energy =                       -266.9457843878876702
  @DF-RHF Final Energy:  -266.94334086930951
    Total Energy =                       -266.9433408693095089
  Basis Set: CC-PVTZ
  Basis Set:
  @DF-RHF Final Energy:  -266.94569785503080
    Total Energy =                       -266.9456978550309714
  Basis Set: CC-PVTZ
  Basis Set:
  Basis Set: CC-PVTZ
  Basis Set:
  @DF-RHF Final Energy:  -266.94578604572189
    Total Energy =                       -266.9457860457218317
  Basis Set: CC-PVTZ
  Basis Set:
  Basis Set: CC-PVTZ
  Basis Set:
  @DF-RHF Final Energy:  -266.94578625243486
    Total Energy =                       -266.9457862524347433
  Basis Set: CC-PVTZ
  Basis Set:
  Charge       = 0
  Multiplicity = 1
  Basis Set: CC-PVTZ
  Basis Set:

    Orbital Energies (a.u.)
    -----------------------

    Doubly Occupied:

       1A    -20.598411     2A    -20.545241     3A    -11.374724
       4A    -11.242620     5A    -11.218643     6A     -1.472166
       7A     -1.371195     8A     -1.065595     9A     -0.916608
      10A     -0.804701    11A     -0.708314    12A     -0.689067
      13A     -0.662245    14A     -0.609232    15A     -0.580685
      16A     -0.530144    17A     -0.527229    18A     -0.505806
      19A     -0.487803    20A     -0.448767

  @DF-RHF Final Energy:  -266.94578635003938

   => Energetics <=

    Nuclear Repulsion Energy =            179.8483964702835465
    One-Electron Energy =                -720.8699750041051857
    Two-Electron Energy =                 274.0757921837823687
    DFT Exchange-Correlation Energy =       0.0000000000000000
    Empirical Dispersion Energy =           0.0000000000000000
    PCM Polarization Energy =               0.0000000000000000
    EFP Energy =                            0.0000000000000000
    Total Energy =                       -266.9457863500392705
    Molecular point group: c1
  Basis Set: CC-PVTZ
  Basis Set:

  -Total Gradient:
     Atom            X                  Y                   Z
    ------   -----------------  -----------------  -----------------
       1       -0.003067416158    -0.006070267685     0.008440909591
       2        0.003784159895     0.007629444551    -0.014993378484
       3        0.000232174455    -0.002041502327     0.016294051753
       4       -0.000145984535    -0.000031307195    -0.000009951406
       5       -0.000776647893     0.000514798521    -0.009705957164
       6       -0.000014299998    -0.000007346829     0.000000793134
       7       -0.000016246212     0.000038574610    -0.000006310553
       8       -0.000001488521    -0.000017348309    -0.000018367248
       9        0.000002397921    -0.000005253422     0.000007401595
      10        0.000001134459    -0.000005730269    -0.000001290653
      11        0.000002216588    -0.000004061642    -0.000007900564

  **** Optimization is complete! (in 10 steps) ****
    Final optimized geometry and variables:
    Molecular point group: c1

    Geometry (in Angstrom), charge = 0, multiplicity = 1:

    H            2.290415253000    -0.310735497591     0.442254994809
    O            1.593383477127    -0.671628145873    -0.082481320707
    C            0.490487463288     0.083384838701     0.034797278693
    C           -0.762130004738    -0.749758650237     0.004377821063
    O            0.532246331345     1.261444835922     0.068500075206
    C           -2.039658316187     0.071927164113    -0.045505868136
    H           -0.680321932611    -1.414200528292    -0.848708681037
    H           -0.737018578627    -1.391293329039     0.879294102923
    H           -2.066282035616     0.695657447240    -0.929071059220
    H           -2.902294246157    -0.582614861918    -0.063029991567
    H           -2.119522703605     0.720342271566     0.816532520662

  Mulliken Charges: (a.u.)
   Center  Symbol    Alpha    Beta     Spin     Total
       1     H     0.38066  0.38066  0.00000  0.23869
       2     O     4.16932  4.16932  0.00000 -0.33864
       3     C     2.80381  2.80381  0.00000  0.39239
       4     C     3.09983  3.09983  0.00000 -0.19966
       5     O     4.17949  4.17949  0.00000 -0.35897
       6     C     3.13932  3.13932  0.00000 -0.27864
       7     H     0.43877  0.43877  0.00000  0.12245
       8     H     0.44333  0.44333  0.00000  0.11334
       9     H     0.44768  0.44768  0.00000  0.10464
      10     H     0.44979  0.44979  0.00000  0.10043
      11     H     0.44802  0.44802  0.00000  0.10397

   Total alpha = 20.00000, Total beta = 20.00000, Total charge =  0.00000
