  ==> Input File <==

--------------------------------------------------------------------------
set {
	reference rhf
	basis 6-31G*
}

set_num_threads( 4 )
memory 2 gb

molecule MOL {
0 1

H	 -3.711020	 -0.134640	 -0.496471
O	 -2.874029	 0.210902	 -0.771829
C	 -2.026376	 0.340750	 0.341611
C	 -0.673256	 0.843270	 -0.132153
H	 -2.447778	 1.042480	 1.059198
H	 -1.910963	 -0.616901	 0.847810
C	 0.486613	 -0.083066	 0.235839
H	 -0.715586	 0.970948	 -1.210718
H	 -0.508072	 1.829858	 0.297090
C	 1.840406	 0.433480	 -0.254303
H	 0.300215	 -1.068318	 -0.178947
H	 0.519509	 -0.203625	 1.318070
C	 3.000220	 -0.489290	 0.118523
H	 1.809207	 0.553576	 -1.335192
H	 2.021860	 1.424500	 0.157276
H	 2.864959	 -1.479103	 -0.307933
H	 3.946603	 -0.099227	 -0.243630
H	 3.080049	 -0.602997	 1.196117

	symmetry c1
}
set optking {
	frozen_dihedral = ("
		2 3 4 8
	")
}

ee = optimize('scf')
oeprop('DIPOLE', 'QUADRUPOLE', 'MULLIKEN_CHARGES')
f=open( 'psi4out.xyz', 'w' )
f.write( "18  " )
f.write( str(ee) + "\n" )
f.write( MOL.save_string_xyz() )
f.close()
--------------------------------------------------------------------------

    Molecular point group: c1
  Charge       = 0
  Multiplicity = 1
  Basis Set: 6-31G*
  Basis Set:
  @DF-RHF Final Energy:  -271.17351675848340
    Total Energy =                       -271.1735167584834016
    Molecular point group: c1
  Basis Set: 6-31G*
  Basis Set:
  Basis Set: 6-31G*
  Basis Set:
  @DF-RHF Final Energy:  -271.17384769557987
    Total Energy =                       -271.1738476955801502
  Basis Set: 6-31G*
  Basis Set:
  Basis Set: 6-31G*
  Basis Set:
  @DF-RHF Final Energy:  -271.17393135942007
    Total Energy =                       -271.1739313594198393
  Basis Set: 6-31G*
  Basis Set:
  Charge       = 0
  Multiplicity = 1
  Basis Set: 6-31G*
  Basis Set:

    Orbital Energies (a.u.)
    -----------------------

    Doubly Occupied:

       1A    -20.551349     2A    -11.267528     3A    -11.214372
       4A    -11.213779     5A    -11.210743     6A    -11.207739
       7A     -1.357378     8A     -1.077910     9A     -1.008128
      10A     -0.912495    11A     -0.820549    12A     -0.791012
      13A     -0.699985    14A     -0.644360    15A     -0.626385
      16A     -0.580559    17A     -0.570726    18A     -0.560358
      19A     -0.526980    20A     -0.496670    21A     -0.489775
      22A     -0.468768    23A     -0.462710    24A     -0.452001
      25A     -0.426583

  @DF-RHF Final Energy:  -271.17393147149278

   => Energetics <=

    Nuclear Repulsion Energy =            245.6915261851432035
    One-Electron Energy =                -854.4532305355646713
    Two-Electron Energy =                 337.5877728789286039
    DFT Exchange-Correlation Energy =       0.0000000000000000
    Empirical Dispersion Energy =           0.0000000000000000
    PCM Polarization Energy =               0.0000000000000000
    EFP Energy =                            0.0000000000000000
    Total Energy =                       -271.1739314714928923
    Molecular point group: c1
  Basis Set: 6-31G*
  Basis Set:

  -Total Gradient:
     Atom            X                  Y                   Z
    ------   -----------------  -----------------  -----------------
       1       -0.000051338182    -0.000011330091    -0.000028475242
       2        0.000094855928    -0.000345521108     0.000024953139
       3       -0.000183580962     0.000486927343    -0.000049940049
       4        0.000277359741    -0.000570016546    -0.000098148479
       5       -0.000023643788    -0.000006843775     0.000002627710
       6       -0.000000387869     0.000000186239    -0.000009256928
       7        0.000033444806     0.000070238824     0.000093585211
       8       -0.000150576537     0.000470117341     0.000071064356
       9        0.000002498682    -0.000042790670     0.000026150826
      10       -0.000006333356    -0.000030874620    -0.000039209699
      11       -0.000057349284    -0.000046853152     0.000040471269
      12        0.000034297408     0.000030027598    -0.000000382812
      13        0.000010951044    -0.000003977228    -0.000027217126
      14        0.000019248911     0.000016883254    -0.000010807788
      15       -0.000002419678    -0.000015979928     0.000007398421
      16        0.000003164631     0.000000431776     0.000002019104
      17        0.000006830563    -0.000006232173    -0.000000184694
      18       -0.000007022051     0.000005606916    -0.000004647217

  **** Optimization is complete! (in 4 steps) ****
    Final optimized geometry and variables:
    Molecular point group: c1

    Geometry (in Angstrom), charge = 0, multiplicity = 1:

    H           -3.622399315165    -0.313731793602    -0.417602881792
    O           -2.772045064611    -0.003079391929    -0.694944157333
    C           -1.934931551422     0.138023371856     0.427311361654
    C           -0.566626983789     0.652168865036    -0.040357409443
    H           -2.379946919523     0.826301980467     1.142294650594
    H           -1.824928222680    -0.820717734893     0.930843651975
    C            0.595848020469    -0.270977169410     0.330345900269
    H           -0.616305418493     0.768263487146    -1.117557307908
    H           -0.383014130300     1.642309839854     0.368213303100
    C            1.949210587844     0.237689891099    -0.167218720773
    H            0.408555025011    -1.261309620656    -0.080997062077
    H            0.634782738118    -0.391905817396     1.412284860449
    C            3.107431390008    -0.689808324942     0.198696010386
    H            1.911195741395     0.359327711602    -1.247492641291
    H            2.135699695093     1.227429994670     0.244495851598
    H            2.967340307403    -1.678852492017    -0.228261706990
    H            4.052897430476    -0.302429558384    -0.168202810210
    H            3.192888742284    -0.804721934212     1.275689024813

  Mulliken Charges: (a.u.)
   Center  Symbol    Alpha    Beta     Spin     Total
       1     H     0.28209  0.28209  0.00000  0.43583
       2     O     4.37125  4.37125  0.00000 -0.74249
       3     C     2.99565  2.99565  0.00000  0.00871
       4     C     3.16587  3.16587  0.00000 -0.33173
       5     H     0.43026  0.43026  0.00000  0.13948
       6     H     0.42923  0.42923  0.00000  0.14155
       7     C     3.15776  3.15776  0.00000 -0.31552
       8     H     0.40302  0.40302  0.00000  0.19396
       9     H     0.42059  0.42059  0.00000  0.15883
      10     C     3.15220  3.15220  0.00000 -0.30440
      11     H     0.42002  0.42002  0.00000  0.15996
      12     H     0.42554  0.42554  0.00000  0.14891
      13     C     3.23929  3.23929  0.00000 -0.47858
      14     H     0.42102  0.42102  0.00000  0.15796
      15     H     0.42326  0.42326  0.00000  0.15347
      16     H     0.42135  0.42135  0.00000  0.15730
      17     H     0.41921  0.41921  0.00000  0.16157
      18     H     0.42240  0.42240  0.00000  0.15521

   Total alpha = 25.00000, Total beta = 25.00000, Total charge = -0.00000
