  ==> Input File <==

--------------------------------------------------------------------------
set {
	reference rhf
	basis cc-pvtz
}

set_num_threads( 4 )
memory 2 gb

molecule MOL {
0 1

H	 0.926426	 1.444896	 1.592817
C	 1.122449	 0.812831	 0.715943
C	 0.062554	 0.862911	 -0.350953
O	 2.110996	 0.167137	 0.661111
C	 -1.339253	 0.577611	 0.196911
H	 0.331087	 0.168349	 -1.136425
H	 0.086087	 1.867188	 -0.768023
C	 -1.813142	 -0.849710	 -0.061612
H	 -2.032833	 1.276441	 -0.256032
H	 -1.357249	 0.782269	 1.263793
H	 -1.839268	 -1.063526	 -1.124230
H	 -2.810118	 -1.001930	 0.334000
H	 -1.159274	 -1.579980	 0.402282

	symmetry c1
}
set optking {
	frozen_dihedral = ("
		6 3 5 9
	")
}

ee = optimize('scf')
oeprop('DIPOLE', 'QUADRUPOLE', 'MULLIKEN_CHARGES')
f=open( 'psi4out.xyz', 'w' )
f.write( "13  " )
f.write( str(ee) + "\n" )
f.write( MOL.save_string_xyz() )
f.close()
--------------------------------------------------------------------------

    Molecular point group: c1
  Charge       = 0
  Multiplicity = 1
  Basis Set: CC-PVTZ
  Basis Set:
  @DF-RHF Final Energy:  -231.06753536156643
    Total Energy =                       -231.0675353615662857
    Molecular point group: c1
  Basis Set: CC-PVTZ
  Basis Set:
  Basis Set: CC-PVTZ
  Basis Set:
  @DF-RHF Final Energy:  -231.06776751957693
    Total Energy =                       -231.0677675195771030
  Basis Set: CC-PVTZ
  Basis Set:
  Basis Set: CC-PVTZ
  Basis Set:
  @DF-RHF Final Energy:  -231.06777393798214
    Total Energy =                       -231.0677739379819116
  Basis Set: CC-PVTZ
  Basis Set:
  Basis Set: CC-PVTZ
  Basis Set:
  @DF-RHF Final Energy:  -231.06793405005769
    Total Energy =                       -231.0679340500578576
  Basis Set: CC-PVTZ
  Basis Set:
  Basis Set: CC-PVTZ
  Basis Set:
  @DF-RHF Final Energy:  -231.06794257870646
    Total Energy =                       -231.0679425787066066
  Basis Set: CC-PVTZ
  Basis Set:
  Basis Set: CC-PVTZ
  Basis Set:
  @DF-RHF Final Energy:  -231.06794792364119
    Total Energy =                       -231.0679479236414409
  Basis Set: CC-PVTZ
  Basis Set:
  Basis Set: CC-PVTZ
  Basis Set:
  @DF-RHF Final Energy:  -231.06794978806332
    Total Energy =                       -231.0679497880633448
  Basis Set: CC-PVTZ
  Basis Set:
  Charge       = 0
  Multiplicity = 1
  Basis Set: CC-PVTZ
  Basis Set:

    Orbital Energies (a.u.)
    -----------------------

    Doubly Occupied:

       1A    -20.552814     2A    -11.321819     3A    -11.237126
       4A    -11.234581     5A    -11.219376     6A     -1.407806
       7A     -1.085999     8A     -0.975338     9A     -0.843259
      10A     -0.793695    11A     -0.672074    12A     -0.650706
      13A     -0.628372    14A     -0.587915    15A     -0.561658
      16A     -0.541455    17A     -0.500513    18A     -0.498111
      19A     -0.482600    20A     -0.413036

  @DF-RHF Final Energy:  -231.06794997458272

   => Energetics <=

    Nuclear Repulsion Energy =            172.9813148945792420
    One-Electron Energy =                -655.6820261234681766
    Two-Electron Energy =                 251.6327612543062457
    DFT Exchange-Correlation Energy =       0.0000000000000000
    Empirical Dispersion Energy =           0.0000000000000000
    PCM Polarization Energy =               0.0000000000000000
    EFP Energy =                            0.0000000000000000
    Total Energy =                       -231.0679499745827172
    Molecular point group: c1
  Basis Set: CC-PVTZ
  Basis Set:

  -Total Gradient:
     Atom            X                  Y                   Z
    ------   -----------------  -----------------  -----------------
       1       -0.000000900945    -0.000001071222     0.000008027566
       2        0.000014021958     0.000007365596     0.000003064438
       3       -0.001745445120     0.003497420109    -0.002595237003
       4       -0.000020529577     0.000004590263    -0.000007027894
       5       -0.000311263027    -0.003587895227    -0.002811485496
       6        0.001499225067    -0.002347250178     0.002582859388
       7        0.000001022797    -0.000000757839     0.000004943875
       8        0.000014966620     0.000014689554    -0.000005569527
       9        0.000556088027     0.002399416062     0.002818857828
      10       -0.000009581445     0.000005452075     0.000004779272
      11       -0.000008069687    -0.000005139509    -0.000009479643
      12        0.000006264451     0.000013096906     0.000008261624
      13        0.000004200879     0.000000083410    -0.000001994427

  **** Optimization is complete! (in 8 steps) ****
    Final optimized geometry and variables:
    Molecular point group: c1

    Geometry (in Angstrom), charge = 0, multiplicity = 1:

    H            0.931959618196     1.161071947495     1.347308014886
    C            1.087264175145     0.505010555543     0.480428345408
    C            0.045646701441     0.621591095583    -0.601424680868
    O            2.015864638304    -0.225698781122     0.449943689889
    C           -1.366457264059     0.319036531955    -0.063220914711
    H            0.327345172009    -0.067119296682    -1.386668542621
    H            0.095534272756     1.635368621238    -0.986396065116
    C           -1.795418454841    -1.126682091533    -0.284714003633
    H           -2.080239664960     1.002218051727    -0.506999691609
    H           -1.396314667885     0.539859425729     1.001036172547
    H           -1.850328759710    -1.357771234929    -1.342446061633
    H           -2.770733191369    -1.312557540557     0.149018619131
    H           -1.091920683179    -1.816822071731     0.167698783258

  Mulliken Charges: (a.u.)
   Center  Symbol    Alpha    Beta     Spin     Total
       1     H     0.46582  0.46582  0.00000  0.06836
       2     C     2.90432  2.90432  0.00000  0.19136
       3     C     3.08734  3.08734  0.00000 -0.17468
       4     O     4.16460  4.16460  0.00000 -0.32921
       5     C     3.09746  3.09746  0.00000 -0.19492
       6     H     0.44450  0.44450  0.00000  0.11100
       7     H     0.44204  0.44204  0.00000  0.11592
       8     C     3.14462  3.14462  0.00000 -0.28925
       9     H     0.44471  0.44471  0.00000  0.11059
      10     H     0.45581  0.45581  0.00000  0.08839
      11     H     0.45252  0.45252  0.00000  0.09495
      12     H     0.44746  0.44746  0.00000  0.10509
      13     H     0.44880  0.44880  0.00000  0.10240

   Total alpha = 20.00000, Total beta = 20.00000, Total charge = -0.00000
