  ==> Input File <==

--------------------------------------------------------------------------
set {
	reference rhf
	basis 6-31G*
}

set_num_threads( 1 )
memory 2 gb

molecule MOL {
0 1

H	 0.165945	 -1.635894	 -0.399301
C	 -0.864573	 -1.545829	 -0.061570
O	 -1.392607	 -0.295399	 -0.366433
H	 -1.465728	 -2.286578	 -0.570535
H	 -0.895250	 -1.743566	 1.009125
C	 -0.719715	 0.768384	 0.229244
C	 0.719720	 0.768376	 -0.229267
H	 -1.185038	 1.714362	 -0.050570
H	 -0.750528	 0.687237	 1.313896
O	 1.392611	 -0.295398	 0.366430
H	 0.750534	 0.687200	 -1.313918
H	 1.185043	 1.714359	 0.050526
C	 2.706965	 -0.449871	 -0.062409
H	 2.756559	 -0.644779	 -1.131878
H	 3.305899	 0.433456	 0.155466
H	 3.125548	 -1.294566	 0.467107

	symmetry c1
}
set optking {
	frozen_dihedral = ("
		3 6 7 11,
		7 10 13 14
	")
}

ee = energy('scf')
oeprop('DIPOLE', 'QUADRUPOLE', 'MULLIKEN_CHARGES')
f=open( 'psi4out.xyz', 'w' )
f.write( "16  " )
f.write( str(ee) + "\n" )
f.write( MOL.save_string_xyz() )
f.close()
--------------------------------------------------------------------------

    Molecular point group: c1

    Geometry (in Angstrom), charge = 0, multiplicity = 1:

       Center              X                  Y                   Z               Mass
    ------------   -----------------  -----------------  -----------------  -----------------
           H         -0.157771598003    -1.443324863957    -0.377519338827     1.007825032070
           C         -1.188289598003    -1.353259863957    -0.039788338827    12.000000000000
           O         -1.716323598003    -0.102829863957    -0.344651338827    15.994914619560
           H         -1.789444598003    -2.094008863957    -0.548753338827     1.007825032070
           H         -1.218966598003    -1.550996863957     1.030906661173     1.007825032070
           C         -1.043431598003     0.960953136043     0.251025661173    12.000000000000
           C          0.396003401997     0.960945136043    -0.207485338827    12.000000000000
           H         -1.508754598003     1.906931136043    -0.028788338827     1.007825032070
           H         -1.074244598003     0.879806136043     1.335677661173     1.007825032070
           O          1.068894401997    -0.102828863957     0.388211661173    15.994914619560
           H          0.426817401997     0.879769136043    -1.292136338827     1.007825032070
           H          0.861326401997     1.906928136043     0.072307661173     1.007825032070
           C          2.383248401997    -0.257301863957    -0.040627338827    12.000000000000
           H          2.432842401998    -0.452209863957    -1.110096338827     1.007825032070
           H          2.982182401998     0.626025136043     0.177247661173     1.007825032070
           H          2.801831401998    -1.101996863957     0.488888661173     1.007825032070

  Charge       = 0
  Multiplicity = 1
  Basis Set: 6-31G*
  Basis Set:

    Orbital Energies (a.u.)
    -----------------------

    Doubly Occupied:

       1A    -20.563957     2A    -20.547099     3A    -11.273333
       4A    -11.271434     5A    -11.268626     6A    -11.242759
       7A     -1.399881     8A     -1.368866     9A     -1.028978
      10A     -0.947076    11A     -0.886852    12A     -0.822531
      13A     -0.704437    14A     -0.684257    15A     -0.656578
      16A     -0.626879    17A     -0.623674    18A     -0.593138
      19A     -0.552593    20A     -0.529103    21A     -0.526756
      22A     -0.492398    23A     -0.454533    24A     -0.430171
      25A     -0.390687

  @DF-RHF Final Energy:  -306.96494156419323

   => Energetics <=

    Nuclear Repulsion Energy =            270.6050604217409159
    One-Electron Energy =                -955.3667756827179574
    Two-Electron Energy =                 377.7967736967846122
    DFT Exchange-Correlation Energy =       0.0000000000000000
    Empirical Dispersion Energy =           0.0000000000000000
    PCM Polarization Energy =               0.0000000000000000
    EFP Energy =                            0.0000000000000000
    Total Energy =                       -306.9649415641924861

  Mulliken Charges: (a.u.)
   Center  Symbol    Alpha    Beta     Spin     Total
       1     H     0.41000  0.41000  0.00000  0.18001
       2     C     3.08185  3.08185  0.00000 -0.16370
       3     O     4.30522  4.30522  0.00000 -0.61043
       4     H     0.42125  0.42125  0.00000  0.15749
       5     H     0.43190  0.43190  0.00000  0.13620
       6     C     3.00048  3.00048  0.00000 -0.00096
       7     C     3.00926  3.00926  0.00000 -0.01852
       8     H     0.41417  0.41417  0.00000  0.17165
       9     H     0.42227  0.42227  0.00000  0.15546
      10     O     4.30548  4.30548  0.00000 -0.61096
      11     H     0.42194  0.42194  0.00000  0.15613
      12     H     0.42889  0.42889  0.00000  0.14222
      13     C     3.08254  3.08254  0.00000 -0.16508
      14     H     0.42759  0.42759  0.00000  0.14482
      15     H     0.42678  0.42678  0.00000  0.14644
      16     H     0.41039  0.41039  0.00000  0.17922

   Total alpha = 25.00000, Total beta = 25.00000, Total charge = -0.00000
