                              Psi4 1.0.54 Driver

  ==> Input File <==

--------------------------------------------------------------------------
set {
	reference rhf
	basis cc-pvtz
}

set_num_threads( 4 )
memory 2 gb

molecule MOL {
0 1

H	 2.399868	 3.049515	 -0.391983
O	 1.460697	 3.018029	 -0.411770
C	 1.008063	 1.765776	 -0.205732
C	 1.863004	 0.694430	 0.003970
C	 -0.357495	 1.567618	 -0.207949
H	 2.926508	 0.850590	 0.005377
C	 1.351432	 -0.570690	 0.210664
H	 -1.020403	 2.393002	 -0.369621
C	 -0.861704	 0.296439	 0.000000
H	 2.022496	 -1.391980	 0.371842
C	 -0.013376	 -0.777377	 0.209954
C	 -2.330689	 0.069587	 0.000000
H	 -0.414105	 -1.760006	 0.370404
O	 -2.848621	 -0.993976	 0.000000
H	 -2.934306	 0.982410	 0.000000

	symmetry c1
}
set optking {
	frozen_dihedral = ("
		11 9 12 14
	")
}

ee,wfn = optimize('scf', return_wfn=True)
oeprop( wfn, 'DIPOLE', 'QUADRUPOLE', 'MULLIKEN_CHARGES')
f=open( 'psi4out.xyz', 'w' )
f.write( "15  " )
f.write( str(ee) + "\n" )
f.write( MOL.save_string_xyz() )
f.close()
--------------------------------------------------------------------------

    Molecular point group: c1
  Charge       = 0
  Multiplicity = 1
  Basis Set: CC-PVTZ
  Basis Set:
  @DF-RHF Final Energy:  -418.43850980606408
    Total Energy =                       -418.4385098060639621
    Molecular point group: c1
  Basis Set: CC-PVTZ
  Basis Set:
  Basis Set: CC-PVTZ
  Basis Set:
  @DF-RHF Final Energy:  -418.43850636095385
    Total Energy =                       -418.4385063609535109
  Basis Set: CC-PVTZ
  Basis Set:
  Basis Set: CC-PVTZ
  Basis Set:
  @DF-RHF Final Energy:  -418.43816239984739
    Total Energy =                       -418.4381623998475561
  Basis Set: CC-PVTZ
  Basis Set:
  Basis Set: CC-PVTZ
  Basis Set:
  @DF-RHF Final Energy:  -418.43884557505601
    Total Energy =                       -418.4388455750557796
  Basis Set: CC-PVTZ
  Basis Set:
  Basis Set: CC-PVTZ
  Basis Set:
  @DF-RHF Final Energy:  -418.43885352718343
    Total Energy =                       -418.4388535271832552
  Basis Set: CC-PVTZ
  Basis Set:
  Charge       = 0
  Multiplicity = 1
  Basis Set: CC-PVTZ
  Basis Set:

    Orbital Energies (a.u.)
    -----------------------

    Doubly Occupied:

       1A    -20.598603     2A    -20.555055     3A    -11.327960
       4A    -11.313448     5A    -11.251255     6A    -11.248941
       7A    -11.246209     8A    -11.244810     9A    -11.236234
      10A     -1.429962    11A     -1.410760    12A     -1.174066
      13A     -1.054186    14A     -1.028465    15A     -0.904375
      16A     -0.849787    17A     -0.817710    18A     -0.741857
      19A     -0.705262    20A     -0.679266    21A     -0.665141
      22A     -0.633120    23A     -0.613768    24A     -0.611270
      25A     -0.582682    26A     -0.556648    27A     -0.540651
      28A     -0.519508    29A     -0.492037    30A     -0.426886
      31A     -0.360735    32A     -0.329454

  @DF-RHF Final Energy:  -418.43885536287684

   => Energetics <=

    Nuclear Repulsion Energy =            403.2664349436232101
    One-Electron Energy =               -1369.1103611131657090
    Two-Electron Energy =                 547.4050708066656625
    DFT Exchange-Correlation Energy =       0.0000000000000000
    Empirical Dispersion Energy =           0.0000000000000000
    PCM Polarization Energy =               0.0000000000000000
    EFP Energy =                            0.0000000000000000
    Total Energy =                       -418.4388553628768932
    Molecular point group: c1
  Basis Set: CC-PVTZ
  Basis Set:

  -Total Gradient:
     Atom            X                  Y                   Z
    ------   -----------------  -----------------  -----------------
       1       -0.000002124666     0.000003200158    -0.000001743807
       2        0.000015854564    -0.000035662609     0.000003128418
       3       -0.000125058430     0.000080316989     0.000002283962
       4        0.000018775320    -0.000126141542     0.000024283350
       5        0.000068810164     0.000074883273    -0.000036376565
       6       -0.000005729935    -0.000009004807     0.000001658447
       7        0.000084830579     0.000085353242    -0.000026882097
       8        0.000011872910    -0.000023691540     0.000005715830
       9        0.000067324042    -0.000548497232    -0.002869433674
      10       -0.000003168162    -0.000003050216    -0.000000760261
      11       -0.000126138138     0.000383923642     0.001422308224
      12       -0.000090432776     0.000141252868     0.003203094433
      13        0.000003074591    -0.000015269082     0.000012418394
      14        0.000027810525     0.000057888719    -0.001782693870
      15        0.000054299415    -0.000065501868     0.000042999218

  **** Optimization is complete! (in 6 steps) ****
    Final optimized geometry and variables:
    Molecular point group: c1

    Geometry (in Angstrom), charge = 0, multiplicity = 1:

    H            2.479205399497     2.464407947399    -0.344546074831
    O            1.540272158469     2.421264485160    -0.365728143499
    C            1.105328798972     1.163204043721    -0.153795217213
    C            1.959821807787     0.102374103919     0.065706318861
    C           -0.263862609902     0.950691972783    -0.156403683957
    H            3.022803645476     0.262014473100     0.073883174479
    C            1.448376175420    -1.168953779837     0.279248881525
    H           -0.919297877535     1.784690717100    -0.319810263098
    C           -0.762939486683    -0.319277179885     0.045114071603
    H            2.125180212204    -1.983085449435     0.453416327650
    C            0.091605280289    -1.390557532483     0.270238667061
    C           -2.236483654364    -0.517156228878     0.041447955282
    H           -0.316177969034    -2.367699884398     0.430440732842
    O           -2.771785107352    -1.571897450182     0.052716894146
    H           -2.823843376020     0.405784353209     0.012129739373

  Mulliken Charges: (a.u.)
   Center  Symbol    Alpha    Beta     Spin     Total
       1     H     0.38627  0.38627  0.00000  0.22746
       2     O     4.17224  4.17224  0.00000 -0.34447
       3     C     2.84238  2.84238  0.00000  0.31524
       4     C     3.12916  3.12916  0.00000 -0.25831
       5     C     3.12736  3.12736  0.00000 -0.25472
       6     H     0.43131  0.43131  0.00000  0.13737
       7     C     3.06107  3.06107  0.00000 -0.12214
       8     H     0.41852  0.41852  0.00000  0.16296
       9     C     2.96557  2.96557  0.00000  0.06885
      10     H     0.41858  0.41858  0.00000  0.16284
      11     C     3.10263  3.10263  0.00000 -0.20526
      12     C     2.90954  2.90954  0.00000  0.18092
      13     H     0.40963  0.40963  0.00000  0.18074
      14     O     4.16913  4.16913  0.00000 -0.33827
      15     H     0.45661  0.45661  0.00000  0.08679

   Total alpha = 32.00000, Total beta = 32.00000, Total charge = -0.00000

*** Psi4 exiting successfully. Buy a developer a beer!
