                              Psi4 1.0.54 Driver

  ==> Input File <==

--------------------------------------------------------------------------
set {
	reference rhf
	basis cc-pvtz
}

set_num_threads( 4 )
memory 2 gb

molecule MOL {
0 1

H	 -3.301256	 0.208311	 -2.488445
O	 -2.956567	 -0.217289	 -1.725393
C	 -1.697317	 0.311772	 -1.404767
C	 -1.175688	 -0.398187	 -0.171891
H	 -1.004649	 0.174233	 -2.232455
H	 -1.770831	 1.380341	 -1.213492
C	 0.196029	 0.106276	 0.266738
H	 -1.131735	 -1.462418	 -0.380941
H	 -1.895216	 -0.267822	 0.630107
C	 1.330220	 -0.826136	 -0.155230
H	 0.359542	 1.097229	 -0.145561
H	 0.212134	 0.218135	 1.348778
C	 2.719700	 -0.407669	 0.328325
H	 1.339388	 -0.911200	 -1.239363
H	 1.119001	 -1.821953	 0.224128
C	 3.241564	 0.893452	 -0.276737
H	 3.418299	 -1.204729	 0.093035
H	 2.711776	 -0.323368	 1.411960
H	 3.254204	 0.841071	 -1.360784
H	 2.634460	 1.745075	 0.005842
H	 4.254264	 1.092401	 0.054971

	symmetry c1
}
set optking {
	frozen_dihedral = ("
		8 4 7 10
	")
}

ee,wfn = optimize('scf', return_wfn=True)
oeprop( wfn, 'DIPOLE', 'QUADRUPOLE', 'MULLIKEN_CHARGES')
f=open( 'psi4out.xyz', 'w' )
f.write( "21  " )
f.write( str(ee) + "\n" )
f.write( MOL.save_string_xyz() )
f.close()
--------------------------------------------------------------------------

    Molecular point group: c1
  Charge       = 0
  Multiplicity = 1
  Basis Set: CC-PVTZ
  Basis Set:
  @DF-RHF Final Energy:  -310.32874413167508
    Total Energy =                       -310.3287441316753075
    Molecular point group: c1
  Basis Set: CC-PVTZ
  Basis Set:
  Basis Set: CC-PVTZ
  Basis Set:
  @DF-RHF Final Energy:  -310.32880197647557
    Total Energy =                       -310.3288019764754608
  Basis Set: CC-PVTZ
  Basis Set:
  Basis Set: CC-PVTZ
  Basis Set:
  @DF-RHF Final Energy:  -310.32909827231316
    Total Energy =                       -310.3290982723129900
  Basis Set: CC-PVTZ
  Basis Set:
  Basis Set: CC-PVTZ
  Basis Set:
  @DF-RHF Final Energy:  -310.32910393429097
    Total Energy =                       -310.3291039342911404
  Basis Set: CC-PVTZ
  Basis Set:
  Charge       = 0
  Multiplicity = 1
  Basis Set: CC-PVTZ
  Basis Set:

    Orbital Energies (a.u.)
    -----------------------

    Doubly Occupied:

       1A    -20.545411     2A    -11.265152     3A    -11.213565
       4A    -11.213264     5A    -11.212024     6A    -11.208871
       7A    -11.206926     8A     -1.363362     9A     -1.086737
      10A     -1.033344    11A     -0.954531    12A     -0.878317
      13A     -0.810403    14A     -0.778055    15A     -0.697852
      16A     -0.650088    17A     -0.633635    18A     -0.610066
      19A     -0.587336    20A     -0.565636    21A     -0.542027
      22A     -0.522137    23A     -0.512620    24A     -0.492504
      25A     -0.475694    26A     -0.457393    27A     -0.457156
      28A     -0.446714    29A     -0.434042

  @DF-RHF Final Energy:  -310.32910448005231

   => Energetics <=

    Nuclear Repulsion Energy =            315.7399116729082493
    One-Electron Energy =               -1046.4283035100268080
    Two-Electron Energy =                 420.3592873570660799
    DFT Exchange-Correlation Energy =       0.0000000000000000
    Empirical Dispersion Energy =           0.0000000000000000
    PCM Polarization Energy =               0.0000000000000000
    EFP Energy =                            0.0000000000000000
    Total Energy =                       -310.3291044800525356
    Molecular point group: c1
  Basis Set: CC-PVTZ
  Basis Set:

  -Total Gradient:
     Atom            X                  Y                   Z
    ------   -----------------  -----------------  -----------------
       1       -0.000093775600    -0.000012997137    -0.000080578934
       2       -0.000051161602     0.000045775763    -0.000033760676
       3        0.000104291715    -0.000073414583    -0.000037316999
       4       -0.001059320757    -0.000898416375     0.003933892502
       5        0.000031686482     0.000035051938    -0.000062765799
       6       -0.000016849085     0.000073693213    -0.000020587055
       7        0.000565058762     0.001377090178    -0.002835873123
       8        0.000812000310     0.000377682489    -0.002478606395
       9        0.000026205840     0.000004815935     0.000059314797
      10       -0.000289113518    -0.000882820195     0.001606701227
      11       -0.000139349927     0.000010354799    -0.000028164215
      12       -0.000008070236     0.000037137398     0.000048229094
      13       -0.000038633227    -0.000014805220     0.000042966659
      14        0.000062722228    -0.000004540298    -0.000063032857
      15        0.000012672667    -0.000060172313    -0.000033974591
      16        0.000001930295     0.000006974287    -0.000079393548
      17        0.000035283941    -0.000070718768     0.000031571974
      18       -0.000038220108    -0.000003587638     0.000078110458
      19        0.000022605892     0.000028409768    -0.000058639265
      20        0.000053090511     0.000038867826     0.000008730942
      21        0.000006945408    -0.000014381063     0.000003175804

  **** Optimization is complete! (in 5 steps) ****
    Final optimized geometry and variables:
    Molecular point group: c1

    Geometry (in Angstrom), charge = 0, multiplicity = 1:

    H           -3.299925978883     0.254743054486    -2.244916462690
    O           -3.025167194146    -0.152540574194    -1.444339954128
    C           -1.807647305170     0.395171350881    -1.014681514536
    C           -1.406149210333    -0.275685588410     0.286264942572
    H           -1.034597312692     0.242247707621    -1.765411020091
    H           -1.905599183353     1.467774744466    -0.860760299410
    C           -0.033148197745     0.197522649217     0.791374616493
    H           -1.393724158258    -1.345279052797     0.108144797428
    H           -2.178370319418    -0.082227384828     1.020744730769
    C            1.100441170541    -0.776558239045     0.466886009447
    H            0.184122472793     1.178914143606     0.381986754685
    H           -0.069953541140     0.327643651176     1.868443459408
    C            2.479783684660    -0.346663238257     0.968598854626
    H            1.147068475149    -0.940227878753    -0.607865740864
    H            0.856630219603    -1.738736533889     0.907324707718
    C            3.064111621098     0.875786914567     0.264199790222
    H            3.165083136996    -1.179360450614     0.842604425011
    H            2.428574510942    -0.157072647637     2.037760985549
    H            3.123972781989     0.715668138358    -0.807723445381
    H            2.469875649036     1.765787702574     0.432920805086
    H            4.066280234038     1.082650514305     0.621984861034

  Mulliken Charges: (a.u.)
   Center  Symbol    Alpha    Beta     Spin     Total
       1     H     0.39720  0.39720  0.00000  0.20560
       2     O     4.19495  4.19495  0.00000 -0.38991
       3     C     2.96154  2.96154  0.00000  0.07693
       4     C     3.08984  3.08984  0.00000 -0.17969
       5     H     0.47476  0.47476  0.00000  0.05047
       6     H     0.47450  0.47450  0.00000  0.05099
       7     C     3.11276  3.11276  0.00000 -0.22552
       8     H     0.45203  0.45203  0.00000  0.09595
       9     H     0.44555  0.44555  0.00000  0.10890
      10     C     3.09319  3.09319  0.00000 -0.18639
      11     H     0.45413  0.45413  0.00000  0.09174
      12     H     0.44636  0.44636  0.00000  0.10729
      13     C     3.09031  3.09031  0.00000 -0.18062
      14     H     0.45429  0.45429  0.00000  0.09141
      15     H     0.44739  0.44739  0.00000  0.10523
      16     C     3.15249  3.15249  0.00000 -0.30497
      17     H     0.44834  0.44834  0.00000  0.10331
      18     H     0.45478  0.45478  0.00000  0.09043
      19     H     0.45514  0.45514  0.00000  0.08971
      20     H     0.45424  0.45424  0.00000  0.09151
      21     H     0.44618  0.44618  0.00000  0.10763

   Total alpha = 29.00000, Total beta = 29.00000, Total charge = -0.00000

*** Psi4 exiting successfully. Buy a developer a beer!
