  ==> Input File <==

--------------------------------------------------------------------------
set {
	reference rhf
	basis cc-pvtz
}

set_num_threads( 4 )
memory 2 gb

molecule MOL {
0 1

H	 2.447185	 -0.870588	 1.519905
O	 1.771746	 -1.132979	 0.912725
C	 0.801215	 -0.224296	 0.944139
C	 -0.318151	 -0.570512	 0.000144
O	 0.852077	 0.726901	 1.644571
C	 -1.454884	 0.441630	 -0.000560
H	 0.117456	 -0.674461	 -0.988457
H	 -0.671731	 -1.559888	 0.272205
C	 -2.822577	 -0.232186	 0.000063
H	 -1.359760	 1.084704	 -0.867077
H	 -1.359641	 1.085996	 0.864983
H	 -2.954352	 -0.858985	 -0.875745
H	 -3.615886	 0.505352	 0.000019
H	 -2.953878	 -0.858359	 0.876394

	symmetry c1
}
set optking {
	frozen_dihedral = ("
		7 4 6 10
	")
}

ee = optimize('scf')
oeprop('DIPOLE', 'QUADRUPOLE', 'MULLIKEN_CHARGES')
f=open( 'psi4out.xyz', 'w' )
f.write( "14  " )
f.write( str(ee) + "\n" )
f.write( MOL.save_string_xyz() )
f.close()
--------------------------------------------------------------------------

    Molecular point group: c1
  Charge       = 0
  Multiplicity = 1
  Basis Set: CC-PVTZ
  Basis Set:
  @DF-RHF Final Energy:  -305.99677126434449
    Total Energy =                       -305.9967712643443178
    Molecular point group: c1
  Basis Set: CC-PVTZ
  Basis Set:
  Basis Set: CC-PVTZ
  Basis Set:
  @DF-RHF Final Energy:  -305.99708099058728
    Total Energy =                       -305.9970809905873352
  Basis Set: CC-PVTZ
  Basis Set:
  Basis Set: CC-PVTZ
  Basis Set:
  @DF-RHF Final Energy:  -305.99694877655986
    Total Energy =                       -305.9969487765598615
  Basis Set: CC-PVTZ
  Basis Set:
  Basis Set: CC-PVTZ
  Basis Set:
  @DF-RHF Final Energy:  -305.99716176086088
    Total Energy =                       -305.9971617608608767
  Basis Set: CC-PVTZ
  Basis Set:
  Basis Set: CC-PVTZ
  Basis Set:
  @DF-RHF Final Energy:  -305.99716316277301
    Total Energy =                       -305.9971631627731767
  Basis Set: CC-PVTZ
  Basis Set:
  Charge       = 0
  Multiplicity = 1
  Basis Set: CC-PVTZ
  Basis Set:

    Orbital Energies (a.u.)
    -----------------------

    Doubly Occupied:

       1A    -20.604495     2A    -20.541589     3A    -11.374539
       4A    -11.240031     5A    -11.222576     6A    -11.214631
       7A     -1.478441     8A     -1.369866     9A     -1.081767
      10A     -0.980978    11A     -0.859163    12A     -0.792027
      13A     -0.704955    14A     -0.693876    15A     -0.665746
      16A     -0.617137    17A     -0.597996    18A     -0.571262
      19A     -0.553348    20A     -0.499884    21A     -0.491507
      22A     -0.485403    23A     -0.480265    24A     -0.448778

  @DF-RHF Final Energy:  -305.99716338120743

   => Energetics <=

    Nuclear Repulsion Energy =            240.5882077881589396
    One-Electron Energy =                -894.0302270259960551
    Two-Electron Energy =                 347.4448558566299994
    DFT Exchange-Correlation Energy =       0.0000000000000000
    Empirical Dispersion Energy =           0.0000000000000000
    PCM Polarization Energy =               0.0000000000000000
    EFP Energy =                            0.0000000000000000
    Total Energy =                       -305.9971633812071445
    Molecular point group: c1
  Basis Set: CC-PVTZ
  Basis Set:

  -Total Gradient:
     Atom            X                  Y                   Z
    ------   -----------------  -----------------  -----------------
       1       -0.000006768182     0.000002844628    -0.000006743824
       2       -0.000000645064    -0.000024264871    -0.000000371716
       3        0.000003947347     0.000005988745    -0.000008668495
       4       -0.002911064633    -0.003298512776    -0.001161001486
       5       -0.000012849950     0.000035996142     0.000004595986
       6        0.002618021249     0.002963727636     0.002130386413
       7        0.001990222830     0.002237173322     0.000620447049
       8        0.000005091807     0.000017522910    -0.000004561778
       9       -0.000002950561    -0.000012166779    -0.000000439324
      10       -0.001685420287    -0.001917096521    -0.001577676419
      11        0.000003320318    -0.000018516527     0.000005765821
      12        0.000006068097    -0.000000543619     0.000004522561
      13       -0.000001164187     0.000005732199    -0.000003265400
      14       -0.000005808777     0.000002115510    -0.000002989385

  **** Optimization is complete! (in 6 steps) ****
    Final optimized geometry and variables:
    Molecular point group: c1

    Geometry (in Angstrom), charge = 0, multiplicity = 1:

    H            2.632282990495    -0.692617845301     0.871831244542
    O            1.940704104747    -0.953077035915     0.282315176565
    C            0.971111429699    -0.044464258387     0.344033743688
    C           -0.171557074901    -0.398546854495    -0.573953197714
    O            1.044620284591     0.903546073968     1.046637469616
    C           -1.317051896903     0.619270805195    -0.579863709693
    H            0.269636252085    -0.510923878830    -1.557770742129
    H           -0.509419914698    -1.385251906982    -0.277832651135
    C           -2.689365111006    -0.048625130109    -0.623701454650
    H           -1.220949640851     1.258952196216    -1.449402806965
    H           -1.242474734009     1.251723050219     0.292350878559
    H           -2.792903952653    -0.685032241409    -1.496558760094
    H           -3.478494246716     0.692843403277    -0.660848827678
    H           -2.853376986241    -0.663323333643     0.255044544448

  Mulliken Charges: (a.u.)
   Center  Symbol    Alpha    Beta     Spin     Total
       1     H     0.38240  0.38240  0.00000  0.23520
       2     O     4.16054  4.16054  0.00000 -0.32109
       3     C     2.80175  2.80175  0.00000  0.39649
       4     C     3.11128  3.11128  0.00000 -0.22256
       5     O     4.19054  4.19054  0.00000 -0.38109
       6     C     3.08676  3.08676  0.00000 -0.17352
       7     H     0.43486  0.43486  0.00000  0.13028
       8     H     0.43787  0.43787  0.00000  0.12426
       9     C     3.14920  3.14920  0.00000 -0.29841
      10     H     0.45205  0.45205  0.00000  0.09591
      11     H     0.43576  0.43576  0.00000  0.12847
      12     H     0.45523  0.45523  0.00000  0.08955
      13     H     0.44698  0.44698  0.00000  0.10604
      14     H     0.45476  0.45476  0.00000  0.09047

   Total alpha = 24.00000, Total beta = 24.00000, Total charge = -0.00000
