  ==> Input File <==

--------------------------------------------------------------------------
set {
	reference rhf
	basis cc-pvtz
}

set_num_threads( 4 )
memory 2 gb

molecule MOL {
0 1

O	 0.808000	 1.327000	 -0.000000
C	 0.635000	 0.151000	 0.000000
C	 -0.709000	 -0.538000	 -0.000000
O	 1.627000	 -0.730000	 0.000000
C	 -1.887000	 0.432000	 0.000000
H	 -0.739000	 -1.192000	 -0.867000
H	 -0.739000	 -1.193000	 0.866000
C	 -3.230000	 -0.298000	 -0.000000
H	 -1.817000	 1.080000	 -0.867000
H	 -1.818000	 1.079000	 0.868000
H	 -3.336000	 -0.930000	 -0.877000
H	 -4.053000	 0.408000	 -0.001000
H	 -3.337000	 -0.930000	 0.877000
C	 2.945000	 -0.213000	 -0.000000
H	 3.117000	 0.389000	 -0.880000
H	 3.599000	 -1.072000	 -0.001000
H	 3.118000	 0.388000	 0.881000

	symmetry c1
}
ee = optimize('scf')
oeprop('DIPOLE', 'QUADRUPOLE', 'MULLIKEN_CHARGES')
f=open( 'psi4out.xyz', 'w' )
f.write( "17  " )
f.write( str(ee) + "\n" )
f.write( MOL.save_string_xyz() )
f.close()
--------------------------------------------------------------------------

    Molecular point group: c1
  Charge       = 0
  Multiplicity = 1
  Basis Set: CC-PVTZ
  Basis Set:
  @DF-RHF Final Energy:  -345.03530224434132
    Total Energy =                       -345.0353022443413238
    Molecular point group: c1
  Basis Set: CC-PVTZ
  Basis Set:
  Basis Set: CC-PVTZ
  Basis Set:
  @DF-RHF Final Energy:  -345.03541403553544
    Total Energy =                       -345.0354140355353820
  Basis Set: CC-PVTZ
  Basis Set:
  Charge       = 0
  Multiplicity = 1
  Basis Set: CC-PVTZ
  Basis Set:

    Orbital Energies (a.u.)
    -----------------------

    Doubly Occupied:

       1A    -20.596701     2A    -20.534522     3A    -11.364932
       4A    -11.278792     5A    -11.234280     6A    -11.220054
       7A    -11.212707     8A     -1.472582     9A     -1.366239
      10A     -1.081763    11A     -1.002594    12A     -0.940369
      13A     -0.827870    14A     -0.769349    15A     -0.702666
      16A     -0.686755    17A     -0.676285    18A     -0.637773
      19A     -0.596867    20A     -0.575542    21A     -0.569821
      22A     -0.528823    23A     -0.523273    24A     -0.500438
      25A     -0.487747    26A     -0.479762    27A     -0.460114
      28A     -0.441504

  @DF-RHF Final Energy:  -345.03541326662645

   => Energetics <=

    Nuclear Repulsion Energy =            313.0299211123098644
    One-Electron Energy =               -1090.5904208680276497
    Two-Electron Energy =                 432.5250864890912794
    DFT Exchange-Correlation Energy =       0.0000000000000000
    Empirical Dispersion Energy =           0.0000000000000000
    PCM Polarization Energy =               0.0000000000000000
    EFP Energy =                            0.0000000000000000
    Total Energy =                       -345.0354132666264491
    Molecular point group: c1
  Basis Set: CC-PVTZ
  Basis Set:

  -Total Gradient:
     Atom            X                  Y                   Z
    ------   -----------------  -----------------  -----------------
       1       -0.000154930392    -0.000021227622     0.000493879425
       2        0.000130469766     0.000067059849    -0.001361488367
       3        0.000141237502    -0.000001211732     0.000417372836
       4       -0.000180026291    -0.000165706332     0.000379181732
       5       -0.000018031799     0.000084900030    -0.000002108999
       6        0.000070498543     0.000084853965     0.000030621207
       7       -0.000080214775    -0.000018829714    -0.000013349131
       8       -0.000033976791    -0.000043633602     0.000019528078
       9        0.000022325578    -0.000038784297     0.000041091617
      10        0.000004324045    -0.000041696569    -0.000035765209
      11        0.000011095048     0.000025258390     0.000026024473
      12        0.000026930487    -0.000018478914    -0.000003857803
      13       -0.000003240160     0.000019927772    -0.000022685579
      14        0.000222220857     0.000145029765     0.000032943040
      15       -0.000051719123    -0.000036890451     0.000022250031
      16       -0.000091793975    -0.000007382135     0.000005590836
      17       -0.000015168521    -0.000033188404    -0.000029228187

  **** Optimization is complete! (in 3 steps) ****
    Final optimized geometry and variables:
    Molecular point group: c1

    Geometry (in Angstrom), charge = 0, multiplicity = 1:

    O            0.749630314682     1.305591244617    -0.000460073614
    C            0.576499006464     0.134700956561    -0.003900166381
    C           -0.765656460647    -0.550507603213    -0.002152179528
    O            1.564816117911    -0.744611892771    -0.000631239957
    C           -1.945526498617     0.411052290758     0.000602657876
    H           -0.794328923391    -1.203792261229    -0.868145383397
    H           -0.791555256523    -1.205429477559     0.862701170005
    C           -3.282915122977    -0.321279786609     0.002596250415
    H           -1.880299867991     1.059126031549    -0.864925098310
    H           -1.877207297211     1.057891595699     0.866807113190
    H           -3.388495336509    -0.952755239444    -0.873418843603
    H           -4.107811261856     0.380864290804     0.004116173762
    H           -3.385716589872    -0.953283141094     0.878570936438
    C            2.884338481993    -0.237800976132     0.002883219328
    H            3.064149934826     0.362814231485    -0.876311945785
    H            3.533055066430    -1.098529227387     0.004957603523
    H            3.059364995789     0.363431954144     0.882613606771

  Mulliken Charges: (a.u.)
   Center  Symbol    Alpha    Beta     Spin     Total
       1     O     4.19664  4.19664  0.00000 -0.39328
       2     C     2.80663  2.80663  0.00000  0.38675
       3     C     3.09578  3.09578  0.00000 -0.19156
       4     O     4.14693  4.14693  0.00000 -0.29386
       5     C     3.07857  3.07857  0.00000 -0.15714
       6     H     0.44105  0.44105  0.00000  0.11790
       7     H     0.44093  0.44093  0.00000  0.11813
       8     C     3.15135  3.15135  0.00000 -0.30271
       9     H     0.44681  0.44681  0.00000  0.10638
      10     H     0.44676  0.44676  0.00000  0.10648
      11     H     0.45584  0.45584  0.00000  0.08831
      12     H     0.44558  0.44558  0.00000  0.10885
      13     H     0.45583  0.45583  0.00000  0.08833
      14     C     3.03747  3.03747  0.00000 -0.07495
      15     H     0.45431  0.45431  0.00000  0.09138
      16     H     0.44525  0.44525  0.00000  0.10950
      17     H     0.45426  0.45426  0.00000  0.09148

   Total alpha = 28.00000, Total beta = 28.00000, Total charge = -0.00000
