                              Psi4 1.0.54 Driver

  ==> Input File <==

--------------------------------------------------------------------------
set {
	reference rhf
	basis cc-pvtz
}

set_num_threads( 4 )
memory 2 gb

molecule MOL {
0 1

H	 -1.056555	 3.637668	 1.922452
O	 -0.243576	 3.155667	 1.943860
C	 -0.308797	 2.179796	 1.042553
C	 0.952828	 1.360276	 1.015722
O	 -1.264290	 2.010270	 0.367078
C	 0.926581	 0.227233	 0.000178
H	 1.111212	 0.985182	 2.021677
H	 1.773377	 2.043945	 0.823327
C	 2.220156	 -0.582071	 -0.000088
H	 0.085721	 -0.423572	 0.211939
H	 0.748696	 0.636483	 -0.987897
C	 3.466689	 0.296012	 -0.000457
H	 2.239073	 -1.234095	 -0.869382
H	 2.239505	 -1.233985	 0.869270
H	 3.493549	 0.935857	 -0.875887
H	 4.368821	 -0.304526	 -0.001199
H	 3.494559	 0.935166	 0.875458

	symmetry c1
}
set optking {
	frozen_dihedral = ("
		10 6 9 13
	")
}

ee,wfn = optimize('scf', return_wfn=True)
oeprop( wfn, 'DIPOLE', 'QUADRUPOLE', 'MULLIKEN_CHARGES')
f=open( 'psi4out.xyz', 'w' )
f.write( "17  " )
f.write( str(ee) + "\n" )
f.write( MOL.save_string_xyz() )
f.close()
--------------------------------------------------------------------------

    Molecular point group: c1
  Charge       = 0
  Multiplicity = 1
  Basis Set: CC-PVTZ
  Basis Set:
  @DF-RHF Final Energy:  -345.04406673647884
    Total Energy =                       -345.0440667364790670
    Molecular point group: c1
  Basis Set: CC-PVTZ
  Basis Set:
  Basis Set: CC-PVTZ
  Basis Set:
  @DF-RHF Final Energy:  -345.04051197856541
    Total Energy =                       -345.0405119785651777
  Basis Set: CC-PVTZ
  Basis Set:
  Basis Set: CC-PVTZ
  Basis Set:
  @DF-RHF Final Energy:  -345.04570269919310
    Total Energy =                       -345.0457026991932139
  Basis Set: CC-PVTZ
  Basis Set:
  Basis Set: CC-PVTZ
  Basis Set:
  @DF-RHF Final Energy:  -345.04593375694878
    Total Energy =                       -345.0459337569489549
  Basis Set: CC-PVTZ
  Basis Set:
  Basis Set: CC-PVTZ
  Basis Set:
  @DF-RHF Final Energy:  -345.04452860339052
    Total Energy =                       -345.0445286033908587
  Basis Set: CC-PVTZ
  Basis Set:
  Basis Set: CC-PVTZ
  Basis Set:
  @DF-RHF Final Energy:  -345.04597669128310
    Total Energy =                       -345.0459766912832151
  Basis Set: CC-PVTZ
  Basis Set:
  Basis Set: CC-PVTZ
  Basis Set:
  @DF-RHF Final Energy:  -345.04599094018909
    Total Energy =                       -345.0459909401887444
  Basis Set: CC-PVTZ
  Basis Set:
  Charge       = 0
  Multiplicity = 1
  Basis Set: CC-PVTZ
  Basis Set:

    Orbital Energies (a.u.)
    -----------------------

    Doubly Occupied:

       1A    -20.603791     2A    -20.540493     3A    -11.373391
       4A    -11.238575     5A    -11.221690     6A    -11.221072
       7A    -11.213066     8A     -1.477457     9A     -1.368939
      10A     -1.092502    11A     -1.016361    12A     -0.920707
      13A     -0.833166    14A     -0.776693    15A     -0.703636
      16A     -0.693447    17A     -0.669110    18A     -0.627168
      19A     -0.608126    20A     -0.581894    21A     -0.562938
      22A     -0.547775    23A     -0.520854    24A     -0.484663
      25A     -0.477728    26A     -0.472658    27A     -0.471556
      28A     -0.447089

  @DF-RHF Final Energy:  -345.04599136533255

   => Energetics <=

    Nuclear Repulsion Energy =            308.5748857876224633
    One-Electron Energy =               -1081.7086655416717349
    Two-Electron Energy =                 428.0877883887167741
    DFT Exchange-Correlation Energy =       0.0000000000000000
    Empirical Dispersion Energy =           0.0000000000000000
    PCM Polarization Energy =               0.0000000000000000
    EFP Energy =                            0.0000000000000000
    Total Energy =                       -345.0459913653325543
    Molecular point group: c1
  Basis Set: CC-PVTZ
  Basis Set:

  -Total Gradient:
     Atom            X                  Y                   Z
    ------   -----------------  -----------------  -----------------
       1        0.000012574869     0.000022763917     0.000022799603
       2       -0.000116880400    -0.000007174370    -0.000036148575
       3        0.000023477135    -0.000041803295    -0.000060991093
       4       -0.000038236738    -0.000017583194    -0.000028041406
       5        0.000080205035     0.000062850605     0.000094250932
       6       -0.000798392067    -0.000191318195    -0.005235105796
       7        0.000010334906    -0.000002727004    -0.000007380779
       8        0.000000559754    -0.000001273333     0.000001241865
       9       -0.001948535467    -0.003121203658     0.003738519339
      10        0.001006818380     0.000629083214     0.003841195928
      11       -0.000008599426     0.000006209567     0.000013769978
      12       -0.000026475838    -0.000006504532     0.000007924026
      13        0.001810783029     0.002677815392    -0.002343196355
      14        0.000006716371    -0.000005270428    -0.000003500514
      15       -0.000000834796     0.000006881673    -0.000000829243
      16       -0.000011526724    -0.000004909114    -0.000003522926
      17       -0.000001988026    -0.000005837241    -0.000000984986

  **** Optimization is complete! (in 8 steps) ****
    Final optimized geometry and variables:
    Molecular point group: c1

    Geometry (in Angstrom), charge = 0, multiplicity = 1:

    H           -1.593239244610     2.402758142763     1.598035654027
    O           -0.794000486363     1.911240438636     1.482557363593
    C           -1.011889194699     0.960327846374     0.578187093229
    C            0.220207388857     0.130757714020     0.335224654191
    O           -2.062286459721     0.821856246324     0.053398655537
    C            0.009680394272    -0.975178879201    -0.693358725578
    H            0.523717125898    -0.275647197970     1.295216240981
    H            1.005143562441     0.817783693177     0.043069896482
    C            1.208807054225    -1.915512178798    -0.848580667381
    H           -0.848825320528    -1.553134024755    -0.374505191102
    H           -0.243186349038    -0.530484720765    -1.648457093502
    C            2.553051005336    -1.221860214510    -1.068294864098
    H            1.024562262900    -2.545569563014    -1.712374487776
    H            1.277565136949    -2.568638963753     0.015910767796
    H            2.506409975211    -0.533506239244    -1.906433767499
    H            3.324591379597    -1.951022252782    -1.285904172259
    H            2.873965452297    -0.662692015521    -0.197519557682

  Mulliken Charges: (a.u.)
   Center  Symbol    Alpha    Beta     Spin     Total
       1     H     0.38235  0.38235  0.00000  0.23531
       2     O     4.16002  4.16002  0.00000 -0.32003
       3     C     2.80608  2.80608  0.00000  0.38784
       4     C     3.11356  3.11356  0.00000 -0.22711
       5     O     4.19075  4.19075  0.00000 -0.38149
       6     C     3.08995  3.08995  0.00000 -0.17990
       7     H     0.43738  0.43738  0.00000  0.12524
       8     H     0.43579  0.43579  0.00000  0.12841
       9     C     3.09274  3.09274  0.00000 -0.18549
      10     H     0.44128  0.44128  0.00000  0.11744
      11     H     0.44451  0.44451  0.00000  0.11098
      12     C     3.15726  3.15726  0.00000 -0.31453
      13     H     0.44671  0.44671  0.00000  0.10659
      14     H     0.45152  0.45152  0.00000  0.09697
      15     H     0.45264  0.45264  0.00000  0.09472
      16     H     0.44403  0.44403  0.00000  0.11195
      17     H     0.45344  0.45344  0.00000  0.09311

   Total alpha = 28.00000, Total beta = 28.00000, Total charge =  0.00000

*** Psi4 exiting successfully. Buy a developer a beer!
