  ==> Input File <==

--------------------------------------------------------------------------
set {
	reference rhf
	basis 6-31G*
}

set_num_threads( 4 )
memory 2 gb

molecule MOL {
0 1

O	 -2.042549	 -1.228399	 -0.269030
C	 -1.653912	 -0.146171	 0.050137
C	 -0.332303	 0.024011	 0.778412
C	 -2.438579	 1.106236	 -0.272369
C	 0.845713	 -0.001731	 -0.208243
H	 -0.323783	 0.953829	 1.340327
H	 -0.235459	 -0.796807	 1.480410
C	 1.668490	 -1.287163	 -0.109584
H	 1.494604	 0.853779	 -0.029005
H	 0.455923	 0.109084	 -1.215678
C	 2.835303	 -1.319351	 -1.095848
H	 2.048062	 -1.396667	 0.904003
H	 1.019919	 -2.141583	 -0.288166
H	 3.520812	 -0.495137	 -0.920342
H	 2.483890	 -1.244409	 -2.120707
H	 3.398610	 -2.242696	 -1.005593
H	 -3.277823	 0.863061	 -0.908988
H	 -1.806773	 1.843019	 -0.759671
H	 -2.802853	 1.554979	 0.648059

	symmetry c1
}
set optking {
	frozen_dihedral = ("
		9 5 3 2
	")
}

ee = optimize('scf')
oeprop('DIPOLE', 'QUADRUPOLE', 'MULLIKEN_CHARGES')
f=open( 'psi4out.xyz', 'w' )
f.write( "19  " )
f.write( str(ee) + "\n" )
f.write( MOL.save_string_xyz() )
f.close()
--------------------------------------------------------------------------

    Molecular point group: c1
  Charge       = 0
  Multiplicity = 1
  Basis Set: 6-31G*
  Basis Set:
  @DF-RHF Final Energy:  -309.06000021668001
    Total Energy =                       -309.0600002166799527
    Molecular point group: c1
  Basis Set: 6-31G*
  Basis Set:
  Basis Set: 6-31G*
  Basis Set:
  @DF-RHF Final Energy:  -309.06011044959149
    Total Energy =                       -309.0601104495916616
  Basis Set: 6-31G*
  Basis Set:
  Basis Set: 6-31G*
  Basis Set:
  @DF-RHF Final Energy:  -309.06045766745007
    Total Energy =                       -309.0604576674501232
  Basis Set: 6-31G*
  Basis Set:
  Basis Set: 6-31G*
  Basis Set:
  @DF-RHF Final Energy:  -309.06053878257450
    Total Energy =                       -309.0605387825742696
  Basis Set: 6-31G*
  Basis Set:
  @DF-RHF Final Energy:  -309.06056875349520
    Total Energy =                       -309.0605687534950903
  Basis Set: 6-31G*
  Basis Set:
  @DF-RHF Final Energy:  -309.06057836375766
    Total Energy =                       -309.0605783637577133
  Basis Set: 6-31G*
  Basis Set:
  Basis Set: 6-31G*
  Basis Set:
  @DF-RHF Final Energy:  -309.06058456373842
    Total Energy =                       -309.0605845637386437
  Basis Set: 6-31G*
  Basis Set:
  Basis Set: 6-31G*
  Basis Set:
  @DF-RHF Final Energy:  -309.06058593697060
    Total Energy =                       -309.0605859369702557
  Basis Set: 6-31G*
  Basis Set:
  Charge       = 0
  Multiplicity = 1
  Basis Set: 6-31G*
  Basis Set:

    Orbital Energies (a.u.)
    -----------------------

    Doubly Occupied:

       1A    -20.547456     2A    -11.324495     3A    -11.232621
       4A    -11.229224     5A    -11.228173     6A    -11.221425
       7A    -11.212839     8A     -1.392902     9A     -1.089501
      10A     -1.028620    11A     -0.981046    12A     -0.890752
      13A     -0.807489    14A     -0.734704    15A     -0.660675
      16A     -0.638687    17A     -0.624021    18A     -0.609831
      19A     -0.583414    20A     -0.574425    21A     -0.552566
      22A     -0.528846    23A     -0.524991    24A     -0.498021
      25A     -0.477176    26A     -0.474410    27A     -0.463611
      28A     -0.396908

  @DF-RHF Final Energy:  -309.06058640322124

   => Energetics <=

    Nuclear Repulsion Energy =            304.1169888822901157
    One-Electron Energy =               -1021.2974936263077552
    Two-Electron Energy =                 408.1199183407964597
    DFT Exchange-Correlation Energy =       0.0000000000000000
    Empirical Dispersion Energy =           0.0000000000000000
    PCM Polarization Energy =               0.0000000000000000
    EFP Energy =                            0.0000000000000000
    Total Energy =                       -309.0605864032211798
    Molecular point group: c1
  Basis Set: 6-31G*
  Basis Set:

  -Total Gradient:
     Atom            X                  Y                   Z
    ------   -----------------  -----------------  -----------------
       1        0.000027995954     0.000025406927     0.000011739089
       2       -0.000190403840     0.001883546399    -0.000143117727
       3       -0.000112038714    -0.002221829137    -0.000289463577
       4       -0.000024901535     0.000007361983     0.000022506388
       5        0.001709874089    -0.001143854649     0.002055629251
       6       -0.000006019306     0.000002198182    -0.000001983028
       7        0.000005529614    -0.000013077748     0.000016349200
       8       -0.000004506688     0.000000045508    -0.000009342124
       9       -0.001424249435     0.001450513906    -0.001651479491
      10       -0.000017015832    -0.000019053984     0.000013557226
      11        0.000018405822     0.000007174550    -0.000002879562
      12       -0.000005743324     0.000011807124    -0.000002214883
      13       -0.000019056508     0.000027181767     0.000004392934
      14       -0.000000269946    -0.000003271134    -0.000008314105
      15        0.000001130606    -0.000000406331     0.000006205158
      16        0.000012096476    -0.000005537040    -0.000008310568
      17       -0.000001078318    -0.000011632540     0.000003167010
      18        0.000027478392     0.000004844181    -0.000008060925
      19        0.000002772495    -0.000001417962    -0.000008380268

  **** Optimization is complete! (in 9 steps) ****
    Final optimized geometry and variables:
    Molecular point group: c1

    Geometry (in Angstrom), charge = 0, multiplicity = 1:

    O           -1.983934510935    -0.836979995099     0.091419157520
    C           -1.500988311865     0.239940642930     0.269208427935
    C           -0.177600265568     0.404650297443     0.991519333449
    C           -2.171175816249     1.500641054860    -0.233988917804
    C            1.008346222300     0.430175377415    -0.009071568148
    H           -0.196119253891     1.322192866994     1.571499917631
    H           -0.071065438694    -0.422560403085     1.682312713660
    C            1.831353221123    -0.858459462022     0.008484954507
    H            1.643527743078     1.286578104341     0.196513643644
    H            0.635367165873     0.587721784407    -1.019254057211
    C            2.966894116729    -0.850852359836    -1.013175204544
    H            2.240180685457    -1.007181477810     1.005263416350
    H            1.170462678027    -1.699683509342    -0.182395061016
    H            3.655478226681    -0.030486876559    -0.830335150575
    H            2.584661609231    -0.742836044216    -2.024238853718
    H            3.535243493656    -1.774559989275    -0.972393123357
    H           -2.990182780148     1.245702378115    -0.892089430373
    H           -1.465076600336     2.141799345345    -0.752429634661
    H           -2.555626783027     2.064342377760     0.612142030333

  Mulliken Charges: (a.u.)
   Center  Symbol    Alpha    Beta     Spin     Total
       1     O     4.26098  4.26098  0.00000 -0.52196
       2     C     2.74045  2.74045  0.00000  0.51909
       3     C     3.20408  3.20408  0.00000 -0.40815
       4     C     3.28927  3.28927  0.00000 -0.57855
       5     C     3.16123  3.16123  0.00000 -0.32247
       6     H     0.41359  0.41359  0.00000  0.17281
       7     H     0.39841  0.39841  0.00000  0.20319
       8     C     3.15392  3.15392  0.00000 -0.30784
       9     H     0.41591  0.41591  0.00000  0.16817
      10     H     0.41737  0.41737  0.00000  0.16526
      11     C     3.24155  3.24155  0.00000 -0.48309
      12     H     0.42100  0.42100  0.00000  0.15801
      13     H     0.41030  0.41030  0.00000  0.17941
      14     H     0.42203  0.42203  0.00000  0.15593
      15     H     0.42012  0.42012  0.00000  0.15976
      16     H     0.41664  0.41664  0.00000  0.16672
      17     H     0.39699  0.39699  0.00000  0.20603
      18     H     0.40986  0.40986  0.00000  0.18028
      19     H     0.40630  0.40630  0.00000  0.18740

   Total alpha = 28.00000, Total beta = 28.00000, Total charge =  0.00000
