  ==> Input File <==

--------------------------------------------------------------------------
set {
	reference rhf
	basis cc-pvtz
}

set_num_threads( 4 )
memory 2 gb

molecule MOL {
0 1

H	 -3.162190	 0.493205	 -0.000107
C	 -2.363908	 -0.234727	 0.000005
O	 -1.158738	 0.454634	 -0.000087
H	 -2.464314	 -0.863616	 -0.882153
H	 -2.464327	 -0.863359	 0.882345
C	 -0.028611	 -0.359694	 0.000037
C	 1.026982	 0.251234	 -0.899342
H	 -0.287892	 -1.359103	 -0.350097
H	 0.356812	 -0.464174	 1.014520
C	 2.300905	 -0.584582	 -0.953043
H	 0.610753	 0.362170	 -1.894516
H	 1.250362	 1.249953	 -0.540715
H	 2.103902	 -1.581657	 -1.332670
H	 3.036848	 -0.125769	 -1.601810
H	 2.747943	 -0.687691	 0.030112

	symmetry c1
}
set optking {
	frozen_dihedral = ("
		8 6 3 2
	")
}

ee = optimize('scf')
oeprop('DIPOLE', 'QUADRUPOLE', 'MULLIKEN_CHARGES')
f=open( 'psi4out.xyz', 'w' )
f.write( "15  " )
f.write( str(ee) + "\n" )
f.write( MOL.save_string_xyz() )
f.close()
--------------------------------------------------------------------------

    Molecular point group: c1
  Charge       = 0
  Multiplicity = 1
  Basis Set: CC-PVTZ
  Basis Set:
  @DF-RHF Final Energy:  -232.22533403705256
    Total Energy =                       -232.2253340370523347
    Molecular point group: c1
  Basis Set: CC-PVTZ
  Basis Set:
  Basis Set: CC-PVTZ
  Basis Set:
  @DF-RHF Final Energy:  -232.22552330974008
    Total Energy =                       -232.2255233097400833
  Basis Set: CC-PVTZ
  Basis Set:
  Basis Set: CC-PVTZ
  Basis Set:
  @DF-RHF Final Energy:  -232.22558295653209
    Total Energy =                       -232.2255829565320369
  Basis Set: CC-PVTZ
  Basis Set:
  Charge       = 0
  Multiplicity = 1
  Basis Set: CC-PVTZ
  Basis Set:

    Orbital Energies (a.u.)
    -----------------------

    Doubly Occupied:

       1A    -20.545141     2A    -11.264096     3A    -11.262333
       4A    -11.212815     5A    -11.210770     6A     -1.378298
       7A     -1.058037     8A     -0.956636     9A     -0.878163
      10A     -0.809423    11A     -0.673343    12A     -0.654941
      13A     -0.634450    14A     -0.604826    15A     -0.567471
      16A     -0.540027    17A     -0.504062    18A     -0.491910
      19A     -0.480845    20A     -0.463944    21A     -0.410242

  @DF-RHF Final Energy:  -232.22558355845942

   => Energetics <=

    Nuclear Repulsion Energy =            189.9831832692326827
    One-Electron Energy =                -691.2139822349736278
    Two-Electron Energy =                 269.0052154072811845
    DFT Exchange-Correlation Energy =       0.0000000000000000
    Empirical Dispersion Energy =           0.0000000000000000
    PCM Polarization Energy =               0.0000000000000000
    EFP Energy =                            0.0000000000000000
    Total Energy =                       -232.2255835584597889
    Molecular point group: c1
  Basis Set: CC-PVTZ
  Basis Set:

  -Total Gradient:
     Atom            X                  Y                   Z
    ------   -----------------  -----------------  -----------------
       1       -0.000019997073    -0.000004694670     0.000001301377
       2       -0.000145043809     0.000027466412    -0.002108283802
       3       -0.000001183597    -0.000271716615     0.003724694052
       4        0.000039281724     0.000011509482     0.000006946589
       5        0.000025061000     0.000010801980    -0.000017944247
       6        0.000517421061     0.000993110885    -0.004080910138
       7        0.000013906657     0.000003991220     0.000041180749
       8       -0.000459678108    -0.000770325850     0.002454965550
       9        0.000011297628     0.000014125349    -0.000014595645
      10        0.000005340245    -0.000012501417    -0.000022273241
      11       -0.000010031098    -0.000008374497     0.000015754035
      12        0.000001293266     0.000003448377    -0.000003042858
      13        0.000005670824     0.000006238611     0.000009570821
      14        0.000018674331    -0.000006804463    -0.000005056388
      15       -0.000002013054     0.000003725193    -0.000002306854

  **** Optimization is complete! (in 4 steps) ****
    Final optimized geometry and variables:
    Molecular point group: c1

    Geometry (in Angstrom), charge = 0, multiplicity = 1:

    H           -3.087389652395     0.635659611526     0.407983406537
    C           -2.309018563879    -0.113659098448     0.387741300285
    O           -1.086932828335     0.545904545907     0.367484666742
    H           -2.442756126026    -0.732089851241    -0.496696133078
    H           -2.414030879222    -0.745002133690     1.267745369840
    C            0.044866278384    -0.273188244328     0.332345092012
    C            1.107016489665     0.349045809975    -0.552839156673
    H           -0.216099511686    -1.268283788459    -0.021811545519
    H            0.429488273821    -0.397518578460     1.343659798753
    C            2.398004479098    -0.461843087480    -0.573659231625
    H            0.709782420112     0.446679442105    -1.557650523672
    H            1.303603698786     1.354414647328    -0.196733303919
    H            2.228082732061    -1.466864076670    -0.945982525408
    H            3.137898625344     0.004171277051    -1.212926322327
    H            2.827022341968    -0.545884949789     0.419241451946

  Mulliken Charges: (a.u.)
   Center  Symbol    Alpha    Beta     Spin     Total
       1     H     0.44910  0.44910  0.00000  0.10180
       2     C     3.03159  3.03159  0.00000 -0.06317
       3     O     4.17642  4.17642  0.00000 -0.35284
       4     H     0.47215  0.47215  0.00000  0.05570
       5     H     0.47123  0.47123  0.00000  0.05754
       6     C     2.96076  2.96076  0.00000  0.07848
       7     C     3.07945  3.07945  0.00000 -0.15890
       8     H     0.47636  0.47636  0.00000  0.04728
       9     H     0.46535  0.46535  0.00000  0.06930
      10     C     3.15560  3.15560  0.00000 -0.31119
      11     H     0.45398  0.45398  0.00000  0.09204
      12     H     0.45020  0.45020  0.00000  0.09959
      13     H     0.45612  0.45612  0.00000  0.08775
      14     H     0.44644  0.44644  0.00000  0.10713
      15     H     0.45525  0.45525  0.00000  0.08949

   Total alpha = 21.00000, Total beta = 21.00000, Total charge = -0.00000
