  ==> Input File <==

--------------------------------------------------------------------------
set {
	reference rhf
	basis 6-31G*
}

set_num_threads( 4 )
memory 2 gb

molecule MOL {
0 1

H	 0.697763	 2.132307	 1.349622
C	 1.029945	 1.288710	 0.731800
C	 0.065331	 0.871482	 -0.349150
O	 2.083022	 0.777643	 0.935659
C	 -1.339775	 0.583656	 0.198860
H	 0.476309	 0.008094	 -0.859613
H	 0.010396	 1.690064	 -1.065437
C	 -1.808407	 -0.848507	 -0.061364
H	 -2.036183	 1.280685	 -0.256307
H	 -1.360094	 0.788874	 1.267089
H	 -1.828843	 -1.063152	 -1.125336
H	 -2.808409	 -1.004529	 0.329750
H	 -1.153967	 -1.577789	 0.406873

	symmetry c1
}
set optking {
	frozen_dihedral = ("
		6 3 5 9
	")
}

ee = optimize('scf')
oeprop('DIPOLE', 'QUADRUPOLE', 'MULLIKEN_CHARGES')
f=open( 'psi4out.xyz', 'w' )
f.write( "13  " )
f.write( str(ee) + "\n" )
f.write( MOL.save_string_xyz() )
f.close()
--------------------------------------------------------------------------

    Molecular point group: c1
  Charge       = 0
  Multiplicity = 1
  Basis Set: 6-31G*
  Basis Set:
  @DF-RHF Final Energy:  -230.97961837915031
    Total Energy =                       -230.9796183791503381
    Molecular point group: c1
  Basis Set: 6-31G*
  Basis Set:
  Basis Set: 6-31G*
  Basis Set:
  @DF-RHF Final Energy:  -230.97959990065922
    Total Energy =                       -230.9795999006591956
  Basis Set: 6-31G*
  Basis Set:
  Basis Set: 6-31G*
  Basis Set:
  @DF-RHF Final Energy:  -230.97561315868830
    Total Energy =                       -230.9756131586883612
  Basis Set: 6-31G*
  Basis Set:
  Basis Set: 6-31G*
  Basis Set:
  @DF-RHF Final Energy:  -230.97993987220755
    Total Energy =                       -230.9799398722075239
  Basis Set: 6-31G*
  Basis Set:
  @DF-RHF Final Energy:  -230.97998687768882
    Total Energy =                       -230.9799868776889582
  Basis Set: 6-31G*
  Basis Set:
  @DF-RHF Final Energy:  -230.97999297137710
    Total Energy =                       -230.9799929713772144
  Basis Set: 6-31G*
  Basis Set:
  Basis Set: 6-31G*
  Basis Set:
  @DF-RHF Final Energy:  -230.97999770153984
    Total Energy =                       -230.9799977015397303
  Basis Set: 6-31G*
  Basis Set:
  Basis Set: 6-31G*
  Basis Set:
  @DF-RHF Final Energy:  -230.97999935004947
    Total Energy =                       -230.9799993500494111
  Basis Set: 6-31G*
  Basis Set:
  Charge       = 0
  Multiplicity = 1
  Basis Set: 6-31G*
  Basis Set:

    Orbital Energies (a.u.)
    -----------------------

    Doubly Occupied:

       1A    -20.562712     2A    -11.327341     3A    -11.238927
       4A    -11.235591     5A    -11.222287     6A     -1.402968
       7A     -1.083571     8A     -0.975442     9A     -0.840771
      10A     -0.795282    11A     -0.668890    12A     -0.644986
      13A     -0.630824    14A     -0.585335    15A     -0.558616
      16A     -0.538561    17A     -0.501119    18A     -0.496140
      19A     -0.479312    20A     -0.410891

  @DF-RHF Final Energy:  -230.97999988370049

   => Energetics <=

    Nuclear Repulsion Energy =            171.1460721049280096
    One-Electron Energy =                -651.8530075067083089
    Two-Electron Energy =                 249.7269355180796708
    DFT Exchange-Correlation Energy =       0.0000000000000000
    Empirical Dispersion Energy =           0.0000000000000000
    PCM Polarization Energy =               0.0000000000000000
    EFP Energy =                            0.0000000000000000
    Total Energy =                       -230.9799998837006285
    Molecular point group: c1
  Basis Set: 6-31G*
  Basis Set:

  -Total Gradient:
     Atom            X                  Y                   Z
    ------   -----------------  -----------------  -----------------
       1        0.000000489387     0.000005272645    -0.000001486609
       2       -0.000027337687    -0.000005264286    -0.000017921638
       3       -0.000242885913     0.000392634468    -0.000668777448
       4        0.000003921568    -0.000011568910     0.000013152775
       5       -0.000086882477    -0.000597652933    -0.000425629239
       6        0.000261471833    -0.000214911801     0.000589304169
       7       -0.000007258711     0.000000737179     0.000013553249
       8        0.000000538581    -0.000002420817    -0.000003145691
       9        0.000101748178     0.000426396337     0.000503268559
      10       -0.000003988095     0.000000548401    -0.000001636101
      11        0.000003114010    -0.000001801850    -0.000002898102
      12       -0.000001384460     0.000000976726    -0.000002255918
      13       -0.000001546215     0.000007054840     0.000004471996

  **** Optimization is complete! (in 9 steps) ****
    Final optimized geometry and variables:
    Molecular point group: c1

    Geometry (in Angstrom), charge = 0, multiplicity = 1:

    H            0.672920049094     1.556375407747     1.108814269420
    C            1.021888912869     0.753905254357     0.447732314951
    C            0.056515492199     0.351763005960    -0.639343367486
    O            2.093333978766     0.267954491448     0.612343353719
    C           -1.367407311248     0.071037949497    -0.099568597191
    H            0.473761795316    -0.513513604478    -1.140152771013
    H            0.032800441163     1.165516695205    -1.360822168882
    C           -1.820208284827    -1.368629677712    -0.341425752335
    H           -2.076597450966     0.755638096680    -0.552264069837
    H           -1.405162078601     0.275358820026     0.968267406249
    H           -1.845199796980    -1.597054819883    -1.402519937030
    H           -2.815128787356    -1.535252533161     0.058599622609
    H           -1.146107200674    -2.074500438575     0.134068405075

  Mulliken Charges: (a.u.)
   Center  Symbol    Alpha    Beta     Spin     Total
       1     H     0.43159  0.43159  0.00000  0.13681
       2     C     2.83339  2.83339  0.00000  0.33322
       3     C     3.21101  3.21101  0.00000 -0.42202
       4     O     4.23693  4.23693  0.00000 -0.47386
       5     C     3.16681  3.16681  0.00000 -0.33362
       6     H     0.39673  0.39673  0.00000  0.20653
       7     H     0.40478  0.40478  0.00000  0.19043
       8     C     3.24004  3.24004  0.00000 -0.48008
       9     H     0.41323  0.41323  0.00000  0.17354
      10     H     0.41603  0.41603  0.00000  0.16794
      11     H     0.41773  0.41773  0.00000  0.16455
      12     H     0.41644  0.41644  0.00000  0.16712
      13     H     0.41528  0.41528  0.00000  0.16944

   Total alpha = 20.00000, Total beta = 20.00000, Total charge =  0.00000
