                              Psi4 1.0.54 Driver

  ==> Input File <==

--------------------------------------------------------------------------
set {
	reference rhf
	basis cc-pvtz
}

set_num_threads( 4 )
memory 2 gb

molecule MOL {
0 1

H	 2.206975	 0.529287	 -0.803181
O	 2.063695	 -0.083403	 -0.105237
C	 0.742924	 0.005675	 0.350750
H	 0.731380	 0.039219	 1.440080
C	 -0.064076	 -1.193495	 -0.124425
C	 -0.047832	 1.190568	 -0.194462
H	 0.194729	 -1.376165	 -1.161308
H	 0.163013	 -2.094508	 0.429933
C	 -1.533112	 -0.752002	 0.006102
H	 0.148003	 1.266545	 -1.259275
H	 0.226235	 2.136493	 0.259722
C	 -1.506634	 0.799189	 0.067162
H	 -2.124360	 -1.110499	 -0.826089
H	 -1.983103	 -1.158030	 0.903403
H	 -2.183808	 1.252169	 -0.644677
H	 -1.813926	 1.138698	 1.049457

	symmetry c1
}
set optking {
	frozen_dihedral = ("
		1 2 3 6
	")
}

ee,wfn = optimize('scf', return_wfn=True)
oeprop( wfn, 'DIPOLE', 'QUADRUPOLE', 'MULLIKEN_CHARGES')
f=open( 'psi4out.xyz', 'w' )
f.write( "16  " )
f.write( str(ee) + "\n" )
f.write( MOL.save_string_xyz() )
f.close()
--------------------------------------------------------------------------

    Molecular point group: c1
  Charge       = 0
  Multiplicity = 1
  Basis Set: CC-PVTZ
  Basis Set:
  @DF-RHF Final Energy:  -270.11391211335047
    Total Energy =                       -270.1139121133501249
    Molecular point group: c1
  Basis Set: CC-PVTZ
  Basis Set:
  Basis Set: CC-PVTZ
  Basis Set:
  @DF-RHF Final Energy:  -270.11463601330161
    Total Energy =                       -270.1146360133014355
  Basis Set: CC-PVTZ
  Basis Set:
  Basis Set: CC-PVTZ
  Basis Set:
  @DF-RHF Final Energy:  -270.11479524718072
    Total Energy =                       -270.1147952471806093
  Basis Set: CC-PVTZ
  Basis Set:
  Basis Set: CC-PVTZ
  Basis Set:
  @DF-RHF Final Energy:  -270.11480345571124
    Total Energy =                       -270.1148034557109554
  Basis Set: CC-PVTZ
  Basis Set:
  @DF-RHF Final Energy:  -270.11481254011562
    Total Energy =                       -270.1148125401156221
  @DF-RHF Final Energy:  -270.11482472510966
    Total Energy =                       -270.1148247251095427
  Basis Set: CC-PVTZ
  Basis Set:
  @DF-RHF Final Energy:  -270.11482818126530
    Total Energy =                       -270.1148281812654659
  Basis Set: CC-PVTZ
  Basis Set:
  Basis Set: CC-PVTZ
  Basis Set:
  @DF-RHF Final Energy:  -270.11483088012000
    Total Energy =                       -270.1148308801195981
  Basis Set: CC-PVTZ
  Basis Set:
  Basis Set: CC-PVTZ
  Basis Set:
  @DF-RHF Final Energy:  -270.11483337208540
    Total Energy =                       -270.1148333720855135
  Basis Set: CC-PVTZ
  Basis Set:
  Charge       = 0
  Multiplicity = 1
  Basis Set: CC-PVTZ
  Basis Set:

    Orbital Energies (a.u.)
    -----------------------

    Doubly Occupied:

       1A    -20.543496     2A    -11.267434     3A    -11.218707
       4A    -11.218042     5A    -11.215159     6A    -11.207189
       7A     -1.364093     8A     -1.117158     9A     -0.969928
      10A     -0.950033    11A     -0.803200    12A     -0.781869
      13A     -0.683384    14A     -0.666784    15A     -0.608892
      16A     -0.600604    17A     -0.577283    18A     -0.537773
      19A     -0.504464    20A     -0.484953    21A     -0.473530
      22A     -0.459601    23A     -0.451068    24A     -0.419057

  @DF-RHF Final Energy:  -270.11483398231456

   => Energetics <=

    Nuclear Repulsion Energy =            255.5291547378907921
    One-Electron Energy =                -873.0405758514241370
    Two-Electron Energy =                 347.3965871312190075
    DFT Exchange-Correlation Energy =       0.0000000000000000
    Empirical Dispersion Energy =           0.0000000000000000
    PCM Polarization Energy =               0.0000000000000000
    EFP Energy =                            0.0000000000000000
    Total Energy =                       -270.1148339823142805
    Molecular point group: c1
  Basis Set: CC-PVTZ
  Basis Set:

  -Total Gradient:
     Atom            X                  Y                   Z
    ------   -----------------  -----------------  -----------------
       1        0.000226681512     0.000606534547     0.000654116687
       2       -0.000357063965    -0.000885111128    -0.001029673289
       3        0.000288520575     0.000602797506     0.000857971086
       4        0.000001258720    -0.000008742635    -0.000000042128
       5        0.000001648845     0.000008726911    -0.000000662437
       6       -0.000165803292    -0.000299494200    -0.000480465147
       7       -0.000000531102    -0.000024267672     0.000003340121
       8        0.000001030072     0.000010785133     0.000020163335
       9        0.000004101525    -0.000001737124     0.000011681883
      10       -0.000000702951    -0.000023540074    -0.000003202630
      11       -0.000001512929     0.000011482911    -0.000021091120
      12        0.000000015874     0.000004154569    -0.000013024359
      13        0.000024681214     0.000016117255    -0.000029237802
      14       -0.000032791202    -0.000015746885    -0.000020245542
      15       -0.000022284002     0.000017029661     0.000031728644
      16        0.000032751109    -0.000018988777     0.000018642700

  **** Optimization is complete! (in 10 steps) ****
    Final optimized geometry and variables:
    Molecular point group: c1

    Geometry (in Angstrom), charge = 0, multiplicity = 1:

    H            2.257879845891     0.573866772160    -0.741129073268
    O            2.088662845984    -0.073238033114    -0.082575925652
    C            0.750057556073    -0.015945826332     0.329251717084
    H            0.753359897545    -0.006648655642     1.415732497783
    C           -0.086481742600    -1.194355256640    -0.158148172528
    C           -0.037002074180     1.187670417479    -0.176343839042
    H            0.113656788882    -1.337845607447    -1.215237691011
    H            0.160172885925    -2.119540723931     0.346147808095
    C           -1.538761624225    -0.745692619992     0.067777998463
    H            0.140199623085     1.293516289736    -1.244916469570
    H            0.254050949915     2.116867725676     0.298190985804
    C           -1.500972162655     0.807480264070     0.083744537280
    H           -2.197675824945    -1.126758934334    -0.701076846656
    H           -1.914169226532    -1.120490310055     1.011897574789
    H           -2.165512736800     1.242427328374    -0.650794819727
    H           -1.817474001047     1.180711412747     1.049968311625

  Mulliken Charges: (a.u.)
   Center  Symbol    Alpha    Beta     Spin     Total
       1     H     0.39170  0.39170  0.00000  0.21661
       2     O     4.20917  4.20917  0.00000 -0.41834
       3     C     2.92665  2.92665  0.00000  0.14670
       4     H     0.45317  0.45317  0.00000  0.09367
       5     C     3.09258  3.09258  0.00000 -0.18516
       6     C     3.11358  3.11358  0.00000 -0.22716
       7     H     0.45918  0.45918  0.00000  0.08164
       8     H     0.44389  0.44389  0.00000  0.11222
       9     C     3.11445  3.11445  0.00000 -0.22891
      10     H     0.46013  0.46013  0.00000  0.07974
      11     H     0.44149  0.44149  0.00000  0.11701
      12     C     3.11020  3.11020  0.00000 -0.22039
      13     H     0.44442  0.44442  0.00000  0.11115
      14     H     0.44808  0.44808  0.00000  0.10384
      15     H     0.44374  0.44374  0.00000  0.11252
      16     H     0.44757  0.44757  0.00000  0.10486

   Total alpha = 24.00000, Total beta = 24.00000, Total charge = -0.00000

*** Psi4 exiting successfully. Buy a developer a beer!
