  ==> Input File <==

--------------------------------------------------------------------------
set {
	reference rhf
	basis 6-31G*
}

set_num_threads( 4 )
memory 2 gb

molecule MOL {
0 1

H	 2.845955	 -0.323208	 0.022310
C	 1.900140	 0.071967	 -0.330070
C	 0.778463	 -0.508087	 0.517968
H	 1.782469	 -0.206877	 -1.370777
H	 1.922247	 1.149867	 -0.254252
N	 -0.540928	 0.005139	 0.058438
H	 0.716718	 -1.581298	 0.454712
H	 0.859711	 -0.198647	 1.550086
O	 -1.512326	 -0.369645	 0.637398
O	 -0.533715	 0.762811	 -0.863723

	symmetry c1
}
set optking {
	frozen_dihedral = ("
		9 6 3 2
	")
}

ee = optimize('scf')
oeprop('DIPOLE', 'QUADRUPOLE', 'MULLIKEN_CHARGES')
f=open( 'psi4out.xyz', 'w' )
f.write( "10  " )
f.write( str(ee) + "\n" )
f.write( MOL.save_string_xyz() )
f.close()
--------------------------------------------------------------------------

    Molecular point group: c1
  Charge       = 0
  Multiplicity = 1
  Basis Set: 6-31G*
  Basis Set:
  @DF-RHF Final Energy:  -282.69916737229966
    Total Energy =                       -282.6991673722997689
    Molecular point group: c1
  Basis Set: 6-31G*
  Basis Set:
  Basis Set: 6-31G*
  Basis Set:
  @DF-RHF Final Energy:  -282.69996724548866
    Total Energy =                       -282.6999672454885513
  Basis Set: 6-31G*
  Basis Set:
  Basis Set: 6-31G*
  Basis Set:
  @DF-RHF Final Energy:  -282.70019434462364
    Total Energy =                       -282.7001943446237533
  Basis Set: 6-31G*
  Basis Set:
  Basis Set: 6-31G*
  Basis Set:
  @DF-RHF Final Energy:  -282.70031839107514
    Total Energy =                       -282.7003183910749726
  Basis Set: 6-31G*
  Basis Set:
  Basis Set: 6-31G*
  Basis Set:
  @DF-RHF Final Energy:  -282.70036614952994
    Total Energy =                       -282.7003661495298843
  Basis Set: 6-31G*
  Basis Set:
  Basis Set: 6-31G*
  Basis Set:
  @DF-RHF Final Energy:  -282.70036543223284
    Total Energy =                       -282.7003654322328998
  Basis Set: 6-31G*
  Basis Set:
  Charge       = 0
  Multiplicity = 1
  Basis Set: 6-31G*
  Basis Set:

    Orbital Energies (a.u.)
    -----------------------

    Doubly Occupied:

       1A    -20.606112     2A    -20.599031     3A    -15.850223
       4A    -11.305282     5A    -11.246152     6A     -1.633424
       7A     -1.418948     8A     -1.125574     9A     -0.967366
      10A     -0.833231    11A     -0.759637    12A     -0.751055
      13A     -0.727106    14A     -0.636937    15A     -0.595194
      16A     -0.564357    17A     -0.539411    18A     -0.487455
      19A     -0.478351    20A     -0.450225

  @DF-RHF Final Energy:  -282.70036627095760

   => Energetics <=

    Nuclear Repulsion Energy =            186.0937153214569832
    One-Electron Energy =                -754.4380229708310708
    Two-Electron Energy =                 285.6439413784163435
    DFT Exchange-Correlation Energy =       0.0000000000000000
    Empirical Dispersion Energy =           0.0000000000000000
    PCM Polarization Energy =               0.0000000000000000
    EFP Energy =                            0.0000000000000000
    Total Energy =                       -282.7003662709577156
    Molecular point group: c1
  Basis Set: 6-31G*
  Basis Set:

  -Total Gradient:
     Atom            X                  Y                   Z
    ------   -----------------  -----------------  -----------------
       1       -0.000059201447    -0.000035863251     0.000031848881
       2       -0.000057946462     0.000016907186     0.000007687786
       3        0.000091747113     0.000063923919     0.000082090958
       4        0.000007530981     0.000024329241    -0.000062809830
       5       -0.000018347074    -0.000030289454     0.000009671178
       6        0.000002264918    -0.000106364647    -0.000189995993
       7       -0.000052088099     0.000023096738     0.000018633777
       8       -0.000008055010    -0.000025437569     0.000031490833
       9        0.000121677298     0.000015008936     0.000055360625
      10       -0.000027582216     0.000054688900     0.000016021787

  **** Optimization is complete! (in 7 steps) ****
    Final optimized geometry and variables:
    Molecular point group: c1

    Geometry (in Angstrom), charge = 0, multiplicity = 1:

    H            2.861937522878    -0.341867872612     0.052872777057
    C            1.935675444487     0.070118645072    -0.332751360059
    C            0.791527377866    -0.480843121571     0.492085382657
    H            1.841813557153    -0.207157101193    -1.373960288265
    H            1.984821620619     1.148604075927    -0.268939144746
    N           -0.547144345275     0.012603733831     0.053721667167
    H            0.713187356811    -1.557015728485     0.437841328978
    H            0.852967653545    -0.204850056354     1.534855912419
    O           -1.479915293948    -0.395499469623     0.675527965102
    O           -0.607251353962     0.765841197266    -0.866209929949

  Mulliken Charges: (a.u.)
   Center  Symbol    Alpha    Beta     Spin     Total
       1     H     0.41001  0.41001  0.00000  0.17997
       2     C     3.24940  3.24940  0.00000 -0.49879
       3     C     3.09546  3.09546  0.00000 -0.19093
       4     H     0.39982  0.39982  0.00000  0.20036
       5     H     0.39990  0.39990  0.00000  0.20019
       6     N     3.22056  3.22056  0.00000  0.55888
       7     H     0.38442  0.38442  0.00000  0.23116
       8     H     0.38438  0.38438  0.00000  0.23124
       9     O     4.22908  4.22908  0.00000 -0.45817
      10     O     4.22696  4.22696  0.00000 -0.45392

   Total alpha = 20.00000, Total beta = 20.00000, Total charge = -0.00000
