                              Psi4 1.0.54 Driver

  ==> Input File <==

--------------------------------------------------------------------------
set {
	reference rhf
	basis cc-pvtz
}

set_num_threads( 4 )
memory 2 gb

molecule MOL {
0 1

O	 1.670257	 -0.364375	 0.578488
C	 0.860843	 0.273204	 -0.013120
C	 -0.623368	 -0.117453	 -0.005652
C	 1.294531	 1.494629	 -0.799286
C	 -0.892588	 -1.253841	 -1.002900
C	 -1.473463	 1.100646	 -0.372896
C	 -0.981836	 -0.579025	 1.418506
H	 -0.609333	 -0.970024	 -2.010649
H	 -1.950451	 -1.487353	 -1.013175
H	 -0.360848	 -2.161259	 -0.746463
H	 -1.232203	 1.461623	 -1.364827
H	 -2.524364	 0.834451	 -0.354500
H	 -1.312381	 1.914833	 0.318657
H	 -2.035706	 -0.826342	 1.468082
H	 -0.425078	 -1.458934	 1.716857
H	 -0.788494	 0.205047	 2.140903
H	 1.058780	 2.386765	 -0.229832
H	 2.362464	 1.450493	 -0.947749
H	 0.791653	 1.574431	 -1.753214

	symmetry c1
}
set optking {
	frozen_dihedral = ("
		1 2 3 5
	")
}

ee,wfn = optimize('scf', return_wfn=True)
oeprop( wfn, 'DIPOLE', 'QUADRUPOLE', 'MULLIKEN_CHARGES')
f=open( 'psi4out.xyz', 'w' )
f.write( "19  " )
f.write( str(ee) + "\n" )
f.write( MOL.save_string_xyz() )
f.close()
--------------------------------------------------------------------------

    Molecular point group: c1
  Charge       = 0
  Multiplicity = 1
  Basis Set: CC-PVTZ
  Basis Set:
  @DF-RHF Final Energy:  -309.17079301502804
    Total Energy =                       -309.1707930150284938
    Molecular point group: c1
  Basis Set: CC-PVTZ
  Basis Set:
  Basis Set: CC-PVTZ
  Basis Set:
  @DF-RHF Final Energy:  -309.17160245657101
    Total Energy =                       -309.1716024565710086
  Basis Set: CC-PVTZ
  Basis Set:
  Basis Set: CC-PVTZ
  Basis Set:
  @DF-RHF Final Energy:  -309.17322602171879
    Total Energy =                       -309.1732260217187331
  Basis Set: CC-PVTZ
  Basis Set:
  Basis Set: CC-PVTZ
  Basis Set:
  @DF-RHF Final Energy:  -309.17345142854811
    Total Energy =                       -309.1734514285482760
  Basis Set: CC-PVTZ
  Basis Set:
  @DF-RHF Final Energy:  -309.17341800492733
    Total Energy =                       -309.1734180049273846
  @DF-RHF Final Energy:  -309.17355198305131
    Total Energy =                       -309.1735519830510270
  @DF-RHF Final Energy:  -309.17357056041840
    Total Energy =                       -309.1735705604185114
  @DF-RHF Final Energy:  -309.17343675938668
    Total Energy =                       -309.1734367593865045
  Basis Set: CC-PVTZ
  Basis Set:
  @DF-RHF Final Energy:  -309.17357039902390
    Total Energy =                       -309.1735703990241291
  Basis Set: CC-PVTZ
  Basis Set:
  Basis Set: CC-PVTZ
  Basis Set:
  @DF-RHF Final Energy:  -309.17358625006443
    Total Energy =                       -309.1735862500647727
  Basis Set: CC-PVTZ
  Basis Set:
  Basis Set: CC-PVTZ
  Basis Set:
  @DF-RHF Final Energy:  -309.17358815049982
    Total Energy =                       -309.1735881505001089
  Basis Set: CC-PVTZ
  Basis Set:
  Charge       = 0
  Multiplicity = 1
  Basis Set: CC-PVTZ
  Basis Set:

    Orbital Energies (a.u.)
    -----------------------

    Doubly Occupied:

       1A    -20.536682     2A    -11.318306     3A    -11.245574
       4A    -11.225850     5A    -11.220512     6A    -11.219820
       7A    -11.209019     8A     -1.398326     9A     -1.109783
      10A     -1.004302    11A     -0.945494    12A     -0.937434
      13A     -0.834598    14A     -0.705613    15A     -0.666855
      16A     -0.633983    17A     -0.623338    18A     -0.592413
      19A     -0.588782    20A     -0.570579    21A     -0.549751
      22A     -0.546841    23A     -0.524896    24A     -0.514174
      25A     -0.503084    26A     -0.473231    27A     -0.464198
      28A     -0.393914

  @DF-RHF Final Energy:  -309.17358844933329

   => Energetics <=

    Nuclear Repulsion Energy =            326.8895472648375176
    One-Electron Energy =               -1067.0115658421143507
    Two-Electron Energy =                 430.9484301279438228
    DFT Exchange-Correlation Energy =       0.0000000000000000
    Empirical Dispersion Energy =           0.0000000000000000
    PCM Polarization Energy =               0.0000000000000000
    EFP Energy =                            0.0000000000000000
    Total Energy =                       -309.1735884493329536
    Molecular point group: c1
  Basis Set: CC-PVTZ
  Basis Set:

  -Total Gradient:
     Atom            X                  Y                   Z
    ------   -----------------  -----------------  -----------------
       1        0.000086756297    -0.000815171160    -0.001070782276
       2       -0.000133170005     0.000918232066     0.001691530584
       3       -0.000069325926     0.000507369041    -0.001303399839
       4       -0.000006421425     0.000059093521     0.000027757731
       5        0.000097380444    -0.000626514653     0.000714292608
       6        0.000008284358     0.000007820050     0.000013632298
       7        0.000012235466     0.000008035830    -0.000004948009
       8        0.000024502601     0.000022746971    -0.000051795389
       9       -0.000064290086    -0.000005810872    -0.000000820677
      10        0.000029553819    -0.000052401435     0.000024248344
      11        0.000007786466    -0.000000740386     0.000000921026
      12        0.000009309990    -0.000005709909    -0.000004113948
      13       -0.000016765900     0.000001682175     0.000001981774
      14        0.000003438985     0.000001586556    -0.000005417988
      15        0.000006136841    -0.000000183573    -0.000002196018
      16        0.000002686685     0.000000900373     0.000005363803
      17        0.000020100882    -0.000015959771    -0.000017208618
      18       -0.000011243228    -0.000005184051    -0.000008165706
      19       -0.000006956258     0.000000209225    -0.000010879699

  **** Optimization is complete! (in 12 steps) ****
    Final optimized geometry and variables:
    Molecular point group: c1

    Geometry (in Angstrom), charge = 0, multiplicity = 1:

    O            1.606295951103    -0.611355963799     0.651022532417
    C            0.896715520071     0.119807747956     0.039209191569
    C           -0.625284055871    -0.102111839179     0.033440036331
    C            1.494511622776     1.233034462257    -0.793626351703
    C           -0.893025103739    -1.223194620574    -0.986731010947
    C           -1.412769670429     1.153820608950    -0.356636853890
    C           -1.063891370100    -0.566709687242     1.426980935208
    H           -0.573318974563    -0.942544059176    -1.985030033260
    H           -1.954522057093    -1.438360885393    -1.030060971420
    H           -0.370919235912    -2.128475781127    -0.706754542903
    H           -1.179932250854     1.493880160434    -1.357752117416
    H           -2.474295470419     0.939607425422    -0.325709825353
    H           -1.226441022135     1.972341831017     0.329625106031
    H           -2.125766408434    -0.785495547338     1.426399390068
    H           -0.527392841360    -1.453743211585     1.727957329119
    H           -0.881634903374     0.201320337305     2.170478121345
    H            1.182926825924     2.199723978222    -0.416988860157
    H            2.570024152307     1.159802428428    -0.752151214101
    H            1.163683617494     1.166113492859    -1.823227813473

  Mulliken Charges: (a.u.)
   Center  Symbol    Alpha    Beta     Spin     Total
       1     O     4.18009  4.18009  0.00000 -0.36018
       2     C     2.84805  2.84805  0.00000  0.30391
       3     C     3.00631  3.00631  0.00000 -0.01261
       4     C     3.16427  3.16427  0.00000 -0.32853
       5     C     3.15444  3.15444  0.00000 -0.30888
       6     C     3.16537  3.16537  0.00000 -0.33074
       7     C     3.15286  3.15286  0.00000 -0.30571
       8     H     0.44852  0.44852  0.00000  0.10296
       9     H     0.44779  0.44779  0.00000  0.10442
      10     H     0.43845  0.43845  0.00000  0.12311
      11     H     0.44560  0.44560  0.00000  0.10880
      12     H     0.44257  0.44257  0.00000  0.11485
      13     H     0.44464  0.44464  0.00000  0.11071
      14     H     0.45135  0.45135  0.00000  0.09729
      15     H     0.43509  0.43509  0.00000  0.12981
      16     H     0.44988  0.44988  0.00000  0.10024
      17     H     0.44654  0.44654  0.00000  0.10691
      18     H     0.43175  0.43175  0.00000  0.13650
      19     H     0.44643  0.44643  0.00000  0.10714

   Total alpha = 28.00000, Total beta = 28.00000, Total charge = -0.00000

*** Psi4 exiting successfully. Buy a developer a beer!
