  ==> Input File <==

--------------------------------------------------------------------------
set {
	reference rhf
	basis 6-31G*
}

set_num_threads( 1 )
memory 2 gb

molecule MOL {
0 1

H	 -3.829952	 0.301167	 -0.373894
O	 -2.986938	 0.639344	 -0.639861
C	 -2.026376	 0.340750	 0.341611
C	 -0.673256	 0.843270	 -0.132153
H	 -2.286047	 0.819185	 1.284271
H	 -1.982772	 -0.733081	 0.519485
C	 0.486613	 -0.083066	 0.235839
H	 -0.715586	 0.970948	 -1.210718
H	 -0.508072	 1.829858	 0.297090
C	 1.840406	 0.433480	 -0.254303
H	 0.300215	 -1.068318	 -0.178947
H	 0.519509	 -0.203625	 1.318070
C	 3.000220	 -0.489290	 0.118523
H	 1.809207	 0.553576	 -1.335192
H	 2.021860	 1.424500	 0.157276
H	 2.864959	 -1.479103	 -0.307933
H	 3.946603	 -0.099227	 -0.243630
H	 3.080049	 -0.602997	 1.196117

	symmetry c1
}
set optking {
	frozen_dihedral = ("
		14 10 7 11,
		10 7 4 8,
		1 2 3 4
	")
}

ee = energy('scf')
oeprop('DIPOLE', 'QUADRUPOLE', 'MULLIKEN_CHARGES')
f=open( 'psi4out.xyz', 'w' )
f.write( "18  " )
f.write( str(ee) + "\n" )
f.write( MOL.save_string_xyz() )
f.close()
--------------------------------------------------------------------------

    Molecular point group: c1

    Geometry (in Angstrom), charge = 0, multiplicity = 1:

       Center              X                  Y                   Z               Mass
    ------------   -----------------  -----------------  -----------------  -----------------
           H         -3.705262902670     0.023103694736    -0.312710938152     1.007825032070
           O         -2.862248902670     0.361280694736    -0.578677938152    15.994914619560
           C         -1.901686902670     0.062686694736     0.402794061848    12.000000000000
           C         -0.548566902670     0.565206694736    -0.070969938152    12.000000000000
           H         -2.161357902670     0.541121694736     1.345454061848     1.007825032070
           H         -1.858082902670    -1.011144305264     0.580668061848     1.007825032070
           C          0.611302097330    -0.361129305264     0.297022061848    12.000000000000
           H         -0.590896902670     0.692884694736    -1.149534938152     1.007825032070
           H         -0.383382902670     1.551794694736     0.358273061848     1.007825032070
           C          1.965095097330     0.155416694736    -0.193119938152    12.000000000000
           H          0.424904097330    -1.346381305264    -0.117763938152     1.007825032070
           H          0.644198097330    -0.481688305264     1.379253061848     1.007825032070
           C          3.124909097330    -0.767353305264     0.179706061848    12.000000000000
           H          1.933896097330     0.275512694736    -1.274008938152     1.007825032070
           H          2.146549097330     1.146436694736     0.218459061848     1.007825032070
           H          2.989648097330    -1.757166305264    -0.246749938152     1.007825032070
           H          4.071292097330    -0.377290305264    -0.182446938152     1.007825032070
           H          3.204738097330    -0.881060305264     1.257300061848     1.007825032070

  Charge       = 0
  Multiplicity = 1
  Basis Set: 6-31G*
  Basis Set:

    Orbital Energies (a.u.)
    -----------------------

    Doubly Occupied:

       1A    -20.551738     2A    -11.266482     3A    -11.215458
       4A    -11.214849     5A    -11.209663     6A    -11.208316
       7A     -1.358281     8A     -1.079846     9A     -1.010630
      10A     -0.913437    11A     -0.819225    12A     -0.792022
      13A     -0.697239    14A     -0.654282    15A     -0.623677
      16A     -0.584518    17A     -0.571605    18A     -0.557670
      19A     -0.529048    20A     -0.493778    21A     -0.489961
      22A     -0.469222    23A     -0.463626    24A     -0.453388
      25A     -0.428582

  @DF-RHF Final Energy:  -271.17533713990633

   => Energetics <=

    Nuclear Repulsion Energy =            245.5645432234789212
    One-Electron Energy =                -854.1667696125605289
    Two-Electron Energy =                 337.4268892491755878
    DFT Exchange-Correlation Energy =       0.0000000000000000
    Empirical Dispersion Energy =           0.0000000000000000
    PCM Polarization Energy =               0.0000000000000000
    EFP Energy =                            0.0000000000000000
    Total Energy =                       -271.1753371399059915

  Mulliken Charges: (a.u.)
   Center  Symbol    Alpha    Beta     Spin     Total
       1     H     0.28173  0.28173  0.00000  0.43655
       2     O     4.37136  4.37136  0.00000 -0.74273
       3     C     2.99230  2.99230  0.00000  0.01539
       4     C     3.16380  3.16380  0.00000 -0.32761
       5     H     0.43099  0.43099  0.00000  0.13802
       6     H     0.43126  0.43126  0.00000  0.13749
       7     C     3.15880  3.15880  0.00000 -0.31761
       8     H     0.40626  0.40626  0.00000  0.18748
       9     H     0.41960  0.41960  0.00000  0.16079
      10     C     3.15176  3.15176  0.00000 -0.30352
      11     H     0.42107  0.42107  0.00000  0.15785
      12     H     0.42525  0.42525  0.00000  0.14949
      13     C     3.23932  3.23932  0.00000 -0.47863
      14     H     0.42112  0.42112  0.00000  0.15776
      15     H     0.42238  0.42238  0.00000  0.15525
      16     H     0.42169  0.42169  0.00000  0.15663
      17     H     0.41905  0.41905  0.00000  0.16190
      18     H     0.42225  0.42225  0.00000  0.15550

   Total alpha = 25.00000, Total beta = 25.00000, Total charge = -0.00000
