  ==> Input File <==

--------------------------------------------------------------------------
set {
	reference rhf
	basis 6-31G*
}

set_num_threads( 4 )
memory 2 gb

molecule MOL {
0 1

H	 2.650994	 1.935097	 0.004804
O	 3.366180	 1.558124	 -0.486592
C	 3.592546	 0.239577	 -0.057352
C	 2.514839	 -0.735826	 -0.517639
H	 4.548179	 -0.046720	 -0.477439
H	 3.692395	 0.203628	 1.026861
C	 1.126950	 -0.447799	 0.060004
H	 2.470157	 -0.713126	 -1.603390
H	 2.823323	 -1.740614	 -0.233729
C	 0.079445	 -1.475492	 -0.377486
H	 0.811343	 0.545334	 -0.247316
H	 1.183090	 -0.436289	 1.148607
C	 -1.309753	 -1.282496	 0.241564
H	 -0.004975	 -1.460908	 -1.462617
H	 0.438250	 -2.468540	 -0.115159
C	 -2.037799	 -0.007733	 -0.193645
H	 -1.924221	 -2.140337	 -0.023679
H	 -1.224598	 -1.296569	 1.327100
C	 -3.489788	 0.042957	 0.286558
H	 -2.017067	 0.064384	 -1.280144
H	 -1.513726	 0.868678	 0.179924
C	 -4.216917	 1.317354	 -0.141063
H	 -4.025645	 -0.823308	 -0.095450
H	 -3.513059	 -0.038752	 1.371301
H	 -4.239342	 1.411634	 -1.223113
H	 -5.243387	 1.322503	 0.212445
H	 -3.726170	 2.201406	 0.256408

	symmetry c1
}
set optking {
	frozen_dihedral = ("
		10 13 16 20
	")
}

ee = optimize('scf')
oeprop('DIPOLE', 'QUADRUPOLE', 'MULLIKEN_CHARGES')
f=open( 'psi4out.xyz', 'w' )
f.write( "27  " )
f.write( str(ee) + "\n" )
f.write( MOL.save_string_xyz() )
f.close()
--------------------------------------------------------------------------

    Molecular point group: c1
  Charge       = 0
  Multiplicity = 1
  Basis Set: 6-31G*
  Basis Set:
  @DF-RHF Final Energy:  -388.28170009521057
    Total Energy =                       -388.2817000952110220
    Molecular point group: c1
  Basis Set: 6-31G*
  Basis Set:
  Basis Set: 6-31G*
  Basis Set:
  @DF-RHF Final Energy:  -388.28161665717738
    Total Energy =                       -388.2816166571778922
  Basis Set: 6-31G*
  Basis Set:
  Basis Set: 6-31G*
  Basis Set:
  @DF-RHF Final Energy:  -388.28170818475900
    Total Energy =                       -388.2817081847593954
  Basis Set: 6-31G*
  Basis Set:
  Basis Set: 6-31G*
  Basis Set:
  @DF-RHF Final Energy:  -388.28171021504028
    Total Energy =                       -388.2817102150403343
  Basis Set: 6-31G*
  Basis Set:
  Basis Set: 6-31G*
  Basis Set:
  @DF-RHF Final Energy:  -388.28171133459915
    Total Energy =                       -388.2817113345989810
  Basis Set: 6-31G*
  Basis Set:
  Charge       = 0
  Multiplicity = 1
  Basis Set: 6-31G*
  Basis Set:

    Orbital Energies (a.u.)
    -----------------------

    Doubly Occupied:

       1A    -20.552274     2A    -11.267037     3A    -11.219800
       4A    -11.217319     5A    -11.216211     6A    -11.215716
       7A    -11.215215     8A    -11.214414     9A    -11.209446
      10A     -1.359037    11A     -1.095304    12A     -1.061557
      13A     -1.011618    14A     -0.948454    15A     -0.888177
      16A     -0.820022    17A     -0.801975    18A     -0.777945
      19A     -0.693643    20A     -0.652544    21A     -0.637247
      22A     -0.614771    23A     -0.600480    24A     -0.583362
      25A     -0.580003    26A     -0.552537    27A     -0.540865
      28A     -0.531927    29A     -0.505329    30A     -0.494001
      31A     -0.485367    32A     -0.473970    33A     -0.469523
      34A     -0.461017    35A     -0.452230    36A     -0.441875
      37A     -0.422851

  @DF-RHF Final Energy:  -388.28171176367277

   => Energetics <=

    Nuclear Repulsion Energy =            459.7927347435743286
    One-Electron Energy =               -1437.5787681779343075
    Two-Electron Energy =                 589.5043216706873181
    DFT Exchange-Correlation Energy =       0.0000000000000000
    Empirical Dispersion Energy =           0.0000000000000000
    PCM Polarization Energy =               0.0000000000000000
    EFP Energy =                            0.0000000000000000
    Total Energy =                       -388.2817117636726607
    Molecular point group: c1
  Basis Set: 6-31G*
  Basis Set:

  -Total Gradient:
     Atom            X                  Y                   Z
    ------   -----------------  -----------------  -----------------
       1       -0.000010165896     0.000001762507    -0.000000097001
       2       -0.000013737116     0.000002502564     0.000008666595
       3        0.000011471645    -0.000007164566    -0.000027972108
       4        0.000005562543     0.000002835249     0.000015797516
       5        0.000002722943    -0.000004931118     0.000000179899
       6       -0.000004121963    -0.000002328380    -0.000002729292
       7        0.000005376681     0.000001949019    -0.000007875818
       8        0.000005368371    -0.000003437461     0.000002484410
       9        0.000004741605     0.000000474023     0.000006507025
      10       -0.000192817070    -0.000222506734    -0.000374148001
      11        0.000013733652     0.000009571684     0.000007960691
      12       -0.000003936737    -0.000007921340     0.000000646863
      13        0.000391883982     0.000404833811     0.000512870594
      14       -0.000002075605    -0.000003537769    -0.000002560885
      15       -0.000001276367     0.000005500256     0.000001114584
      16       -0.000769436032    -0.000503290809    -0.000168316026
      17       -0.000014726298    -0.000002220667     0.000009125966
      18        0.000007838580     0.000010251035    -0.000002782817
      19        0.000006234229    -0.000009361878    -0.000019759667
      20        0.000561567233     0.000316743714     0.000040179887
      21       -0.000005922567     0.000011132889     0.000004933097
      22        0.000000716915     0.000000311329    -0.000000509716
      23       -0.000006818089     0.000000907540    -0.000000268276
      24        0.000007708042    -0.000002057319    -0.000006089699
      25        0.000000643379    -0.000000316164     0.000001904291
      26       -0.000000788476     0.000000415376     0.000000260841
      27        0.000000252415    -0.000000116787     0.000000477048

  **** Optimization is complete! (in 6 steps) ****
    Final optimized geometry and variables:
    Molecular point group: c1

    Geometry (in Angstrom), charge = 0, multiplicity = 1:

    H            2.629471934421     1.986454884422     0.115425003919
    O            3.349362788749     1.609019095029    -0.368711373552
    C            3.583469806481     0.297333717774     0.076967104863
    C            2.513979926510    -0.690877969403    -0.375052998765
    H            4.542343286572     0.012851362051    -0.336880522881
    H            3.680256873614     0.274939864865     1.161823833983
    C            1.122204075068    -0.405151418594     0.194173430868
    H            2.473009130868    -0.681767426169    -1.461152230171
    H            2.828105710052    -1.690029890055    -0.077775461211
    C            0.081427704795    -1.441342308813    -0.239174731374
    H            0.802438198564     0.583639641415    -0.123010911618
    H            1.173519634285    -0.383946746980     1.282894013277
    C           -1.310987114025    -1.248880779934     0.372266362260
    H            0.000675376355    -1.435037539306    -1.324618393965
    H            0.443178892585    -2.430930181871     0.032055482193
    C           -2.032504477925     0.030810224327    -0.060390924621
    H           -1.924262106143    -2.103952413528     0.095226197443
    H           -1.235517036737    -1.271223654047     1.458260778501
    C           -3.485017162913     0.088367408366     0.416597960638
    H           -2.005156635077     0.110611215070    -1.146245197184
    H           -1.503789148739     0.902079081953     0.319336875633
    C           -4.199431831332     1.374930388438     0.004376699463
    H           -4.027500739935    -0.767809937562     0.021546714446
    H           -3.511851787423    -0.007810970766     1.500113202089
    H           -4.216539900681     1.484744647545    -1.076302150110
    H           -5.227282407628     1.383789744193     0.353746029962
    H           -3.702844790546     2.248967356131     0.416433683978

  Mulliken Charges: (a.u.)
   Center  Symbol    Alpha    Beta     Spin     Total
       1     H     0.27990  0.27990  0.00000  0.44020
       2     O     4.37094  4.37094  0.00000 -0.74187
       3     C     2.99735  2.99735  0.00000  0.00530
       4     C     3.16096  3.16096  0.00000 -0.32193
       5     H     0.41444  0.41444  0.00000  0.17112
       6     H     0.43206  0.43206  0.00000  0.13588
       7     C     3.16335  3.16335  0.00000 -0.32671
       8     H     0.41499  0.41499  0.00000  0.17002
       9     H     0.42432  0.42432  0.00000  0.15136
      10     C     3.15210  3.15210  0.00000 -0.30419
      11     H     0.42279  0.42279  0.00000  0.15441
      12     H     0.42545  0.42545  0.00000  0.14910
      13     C     3.15351  3.15351  0.00000 -0.30702
      14     H     0.42157  0.42157  0.00000  0.15686
      15     H     0.42153  0.42153  0.00000  0.15694
      16     C     3.15247  3.15247  0.00000 -0.30494
      17     H     0.42131  0.42131  0.00000  0.15737
      18     H     0.42402  0.42402  0.00000  0.15196
      19     C     3.15126  3.15126  0.00000 -0.30251
      20     H     0.42354  0.42354  0.00000  0.15292
      21     H     0.42406  0.42406  0.00000  0.15189
      22     C     3.23921  3.23921  0.00000 -0.47843
      23     H     0.42275  0.42275  0.00000  0.15451
      24     H     0.42324  0.42324  0.00000  0.15352
      25     H     0.42141  0.42141  0.00000  0.15718
      26     H     0.41919  0.41919  0.00000  0.16162
      27     H     0.42227  0.42227  0.00000  0.15546

   Total alpha = 37.00000, Total beta = 37.00000, Total charge = -0.00000
