                              Psi4 1.0.54 Driver

  ==> Input File <==

--------------------------------------------------------------------------
set {
	reference rhf
	basis cc-pvtz
}

set_num_threads( 4 )
memory 2 gb

molecule MOL {
0 1

H	 -3.084579	 2.155105	 -0.470445
O	 -2.391225	 1.565884	 -0.703412
C	 -2.302264	 0.528872	 0.237390
C	 -1.175688	 -0.398187	 -0.171891
H	 -2.109350	 0.930790	 1.229871
H	 -3.238242	 -0.023919	 0.284274
C	 0.196029	 0.106276	 0.266738
H	 -1.201873	 -0.515469	 -1.250677
H	 -1.365975	 -1.378728	 0.252664
C	 1.330220	 -0.826136	 -0.155230
H	 0.359542	 1.097229	 -0.145561
H	 0.212134	 0.218135	 1.348778
C	 2.719700	 -0.407669	 0.328325
H	 1.339388	 -0.911200	 -1.239363
H	 1.119001	 -1.821953	 0.224128
C	 3.241564	 0.893452	 -0.276737
H	 3.418299	 -1.204729	 0.093035
H	 2.711776	 -0.323368	 1.411960
H	 3.254204	 0.841071	 -1.360784
H	 2.634460	 1.745075	 0.005842
H	 4.254264	 1.092401	 0.054971

	symmetry c1
}
set optking {
	frozen_dihedral = ("
		2 3 4 8
	")
}

ee,wfn = optimize('scf', return_wfn=True)
oeprop( wfn, 'DIPOLE', 'QUADRUPOLE', 'MULLIKEN_CHARGES')
f=open( 'psi4out.xyz', 'w' )
f.write( "21  " )
f.write( str(ee) + "\n" )
f.write( MOL.save_string_xyz() )
f.close()
--------------------------------------------------------------------------

    Molecular point group: c1
  Charge       = 0
  Multiplicity = 1
  Basis Set: CC-PVTZ
  Basis Set:
  @DF-RHF Final Energy:  -310.33152573256643
    Total Energy =                       -310.3315257325662060
    Molecular point group: c1
  Basis Set: CC-PVTZ
  Basis Set:
  Basis Set: CC-PVTZ
  Basis Set:
  @DF-RHF Final Energy:  -310.33179327077750
    Total Energy =                       -310.3317932707776663
  Basis Set: CC-PVTZ
  Basis Set:
  Basis Set: CC-PVTZ
  Basis Set:
  @DF-RHF Final Energy:  -310.33184923750963
    Total Energy =                       -310.3318492375096866
  Basis Set: CC-PVTZ
  Basis Set:
  Basis Set: CC-PVTZ
  Basis Set:
  @DF-RHF Final Energy:  -310.33185216970799
    Total Energy =                       -310.3318521697078722
  Basis Set: CC-PVTZ
  Basis Set:
  Basis Set: CC-PVTZ
  Basis Set:
  @DF-RHF Final Energy:  -310.33185319001007
    Total Energy =                       -310.3318531900100652
  Basis Set: CC-PVTZ
  Basis Set:
  Charge       = 0
  Multiplicity = 1
  Basis Set: CC-PVTZ
  Basis Set:

    Orbital Energies (a.u.)
    -----------------------

    Doubly Occupied:

       1A    -20.546253     2A    -11.265586     3A    -11.210059
       4A    -11.209765     5A    -11.207745     6A    -11.206189
       7A    -11.202341     8A     -1.363610     9A     -1.083283
      10A     -1.031437    11A     -0.953959    12A     -0.875830
      13A     -0.803810    14A     -0.774645    15A     -0.708888
      16A     -0.638780    17A     -0.629758    18A     -0.601556
      19A     -0.591780    20A     -0.563965    21A     -0.541543
      22A     -0.518870    23A     -0.504410    24A     -0.494633
      25A     -0.476598    26A     -0.458561    27A     -0.456094
      28A     -0.445385    29A     -0.426632

  @DF-RHF Final Energy:  -310.33185363461826

   => Energetics <=

    Nuclear Repulsion Energy =            316.8738390097207684
    One-Electron Energy =               -1048.8274497655595496
    Two-Electron Energy =                 421.6217571212206394
    DFT Exchange-Correlation Energy =       0.0000000000000000
    Empirical Dispersion Energy =           0.0000000000000000
    PCM Polarization Energy =               0.0000000000000000
    EFP Energy =                            0.0000000000000000
    Total Energy =                       -310.3318536346181418
    Molecular point group: c1
  Basis Set: CC-PVTZ
  Basis Set:

  -Total Gradient:
     Atom            X                  Y                   Z
    ------   -----------------  -----------------  -----------------
       1        0.000018694086     0.000001024767    -0.000020730070
       2       -0.001892517694    -0.001577379253    -0.001521282871
       3        0.002915210582     0.002669811604     0.001944527924
       4       -0.003326921609    -0.004046221004     0.000025375849
       5       -0.000007989242     0.000001450307    -0.000016808777
       6       -0.000014045687     0.000019962344    -0.000009482389
       7        0.000012010734     0.000034637433    -0.000012386330
       8        0.002286636222     0.002897328680    -0.000362234230
       9        0.000001871430     0.000007817356    -0.000020650662
      10       -0.000012852217    -0.000008049754     0.000020161339
      11        0.000012614262     0.000017257979     0.000001339713
      12       -0.000013310480    -0.000008874049    -0.000024355058
      13        0.000020414529    -0.000024681671    -0.000009470222
      14        0.000009747385    -0.000001262579     0.000009748907
      15       -0.000003865825     0.000006410151    -0.000002740717
      16       -0.000003549948     0.000011091844     0.000000297486
      17        0.000002462242     0.000001876979    -0.000001095957
      18        0.000002320506    -0.000005901374    -0.000003226525
      19        0.000006793021    -0.000003243888     0.000003217107
      20       -0.000003499234     0.000005104952    -0.000003238908
      21       -0.000010223063     0.000001839176     0.000003034392

  **** Optimization is complete! (in 6 steps) ****
    Final optimized geometry and variables:
    Molecular point group: c1

    Geometry (in Angstrom), charge = 0, multiplicity = 1:

    H           -3.198096190834     1.915237546798    -0.373457141463
    O           -2.562082740834     1.272239286943    -0.626712664419
    C           -2.489378394725     0.255201065810     0.340333079756
    C           -1.354540836741    -0.685158063572    -0.029446122740
    H           -2.325777225488     0.675141152394     1.330089162576
    H           -3.427706836989    -0.292985144780     0.367531889175
    C            0.022364499742    -0.155973210546     0.369762742247
    H           -1.376915888481    -0.816736843856    -1.106085164416
    H           -1.525890584282    -1.653704862974     0.429655029562
    C            1.161320067148    -1.062124768393    -0.092428735857
    H            0.143083248281     0.838777194328    -0.042966364267
    H            0.066152279817    -0.051929874499     1.452028438776
    C            2.554978627443    -0.623249272699     0.360329745795
    H            1.144522005980    -1.133068136353    -1.177541693394
    H            0.979792995716    -2.067538483140     0.278898600443
    C            3.033214577300     0.696543297687    -0.240119555110
    H            3.263368674540    -1.402462833652     0.095794704377
    H            2.573940526295    -0.553452805761     1.444914168507
    H            3.021493943750     0.657238964295    -1.324630773576
    H            2.412782285819     1.529893917261     0.066197182216
    H            4.048662389801     0.914638354672     0.070788354031

  Mulliken Charges: (a.u.)
   Center  Symbol    Alpha    Beta     Spin     Total
       1     H     0.39546  0.39546  0.00000  0.20907
       2     O     4.19915  4.19915  0.00000 -0.39831
       3     C     2.97210  2.97210  0.00000  0.05580
       4     C     3.09022  3.09022  0.00000 -0.18044
       5     H     0.47453  0.47453  0.00000  0.05095
       6     H     0.46587  0.46587  0.00000  0.06827
       7     C     3.09480  3.09480  0.00000 -0.18960
       8     H     0.45066  0.45066  0.00000  0.09867
       9     H     0.45145  0.45145  0.00000  0.09710
      10     C     3.09526  3.09526  0.00000 -0.19052
      11     H     0.44535  0.44535  0.00000  0.10930
      12     H     0.45852  0.45852  0.00000  0.08297
      13     C     3.08989  3.08989  0.00000 -0.17978
      14     H     0.45297  0.45297  0.00000  0.09406
      15     H     0.45148  0.45148  0.00000  0.09704
      16     C     3.15170  3.15170  0.00000 -0.30340
      17     H     0.44924  0.44924  0.00000  0.10152
      18     H     0.45576  0.45576  0.00000  0.08847
      19     H     0.45462  0.45462  0.00000  0.09076
      20     H     0.45336  0.45336  0.00000  0.09328
      21     H     0.44760  0.44760  0.00000  0.10479

   Total alpha = 29.00000, Total beta = 29.00000, Total charge = -0.00000

*** Psi4 exiting successfully. Buy a developer a beer!
