  ==> Input File <==

--------------------------------------------------------------------------
set {
	reference rhf
	basis 6-31G*
}

set_num_threads( 1 )
memory 2 gb

molecule MOL {
0 1

H	 4.175065	 -2.816283	 -0.539564
C	 3.740505	 -2.108549	 -1.238701
C	 2.326130	 -1.712819	 -0.816662
H	 4.392025	 -1.240639	 -1.278643
H	 3.743510	 -2.570717	 -2.222160
C	 1.680792	 -0.719805	 -1.785824
H	 2.356941	 -1.279666	 0.177838
H	 1.707068	 -2.606276	 -0.751938
C	 0.257096	 -0.318850	 -1.399053
H	 2.292377	 0.173032	 -1.852523
H	 1.653663	 -1.160232	 -2.779972
C	 0.169600	 0.576866	 -0.172154
H	 -0.205016	 0.230871	 -2.217606
H	 -0.366109	 -1.197167	 -1.246243
C	 -1.181045	 0.701995	 0.511084
O	 1.119224	 1.176942	 0.233468
C	 -2.285934	 -0.139295	 -0.145128
H	 -1.449051	 1.751551	 0.493206
H	 -1.071135	 0.403303	 1.551943
C	 -3.651768	 0.085446	 0.506485
H	 -2.346596	 0.110469	 -1.202272
H	 -2.034737	 -1.195320	 -0.088721
C	 -4.759797	 -0.746382	 -0.137905
H	 -3.908762	 1.140117	 0.445781
H	 -3.588286	 -0.154158	 1.565709
H	 -4.868882	 -0.505166	 -1.191300
H	 -4.548009	 -1.809175	 -0.062213
H	 -5.715422	 -0.564821	 0.343442

	symmetry c1
}
set optking {
	frozen_dihedral = ("
		10 6 3 2,
		12 15 17 21
	")
}

ee = energy('scf')
oeprop('DIPOLE', 'QUADRUPOLE', 'MULLIKEN_CHARGES')
f=open( 'psi4out.xyz', 'w' )
f.write( "28  " )
f.write( str(ee) + "\n" )
f.write( MOL.save_string_xyz() )
f.close()
--------------------------------------------------------------------------

    Molecular point group: c1

    Geometry (in Angstrom), charge = 0, multiplicity = 1:

       Center              X                  Y                   Z               Mass
    ------------   -----------------  -----------------  -----------------  -----------------
           H          4.431221886719    -2.484586730759    -0.093932502849     1.007825032070
           C          3.996661886719    -1.776852730759    -0.793069502849    12.000000000000
           C          2.582286886719    -1.381122730759    -0.371030502849    12.000000000000
           H          4.648181886719    -0.908942730759    -0.833011502849     1.007825032070
           H          3.999666886719    -2.239020730759    -1.776528502849     1.007825032070
           C          1.936948886719    -0.388108730759    -1.340192502849    12.000000000000
           H          2.613097886719    -0.947969730759     0.623469497151     1.007825032070
           H          1.963224886719    -2.274579730759    -0.306306502849     1.007825032070
           C          0.513252886719     0.012846269241    -0.953421502849    12.000000000000
           H          2.548533886719     0.504728269241    -1.406891502849     1.007825032070
           H          1.909819886719    -0.828535730759    -2.334340502849     1.007825032070
           C          0.425756886719     0.908562269241     0.273477497151    12.000000000000
           H          0.051140886719     0.562567269241    -1.771974502849     1.007825032070
           H         -0.109952113281    -0.865470730759    -0.800611502849     1.007825032070
           C         -0.924888113281     1.033691269241     0.956715497151    12.000000000000
           O          1.375380886719     1.508638269241     0.679099497151    15.994914619560
           C         -2.029777113281     0.192401269241     0.300503497151    12.000000000000
           H         -1.192894113281     2.083247269241     0.938837497151     1.007825032070
           H         -0.814978113281     0.734999269241     1.997574497151     1.007825032070
           C         -3.395611113281     0.417142269241     0.952116497151    12.000000000000
           H         -2.090439113281     0.442165269241    -0.756640502849     1.007825032070
           H         -1.778580113281    -0.863623730759     0.356910497151     1.007825032070
           C         -4.503640113281    -0.414685730759     0.307726497151    12.000000000000
           H         -3.652605113281     1.471813269241     0.891412497151     1.007825032070
           H         -3.332129113281     0.177538269241     2.011340497151     1.007825032070
           H         -4.612725113281    -0.173469730759    -0.745668502849     1.007825032070
           H         -4.291852113281    -1.477478730759     0.383418497151     1.007825032070
           H         -5.459265113281    -0.233124730759     0.789073497151     1.007825032070

  Charge       = 0
  Multiplicity = 1
  Basis Set: 6-31G*
  Basis Set:

    Orbital Energies (a.u.)
    -----------------------

    Doubly Occupied:

       1A    -20.545706     2A    -11.323282     3A    -11.231096
       4A    -11.229759     5A    -11.228061     6A    -11.225792
       7A    -11.216788     8A    -11.215312     9A    -11.212045
      10A    -11.205481    11A     -1.391995    12A     -1.098538
      13A     -1.075763    14A     -1.023539    15A     -0.989532
      16A     -0.904538    17A     -0.877290    18A     -0.810339
      19A     -0.800395    20A     -0.719154    21A     -0.665406
      22A     -0.662737    23A     -0.629155    24A     -0.617826
      25A     -0.608938    26A     -0.585707    27A     -0.583573
      28A     -0.572902    29A     -0.541196    30A     -0.531950
      31A     -0.524880    32A     -0.513953    33A     -0.489410
      34A     -0.488258    35A     -0.479329    36A     -0.475700
      37A     -0.468629    38A     -0.464401    39A     -0.452787
      40A     -0.391447

  @DF-RHF Final Energy:  -426.16329491783097

   => Energetics <=

    Nuclear Repulsion Energy =            536.1823682685986796
    One-Electron Energy =               -1640.5460503430176686
    Two-Electron Energy =                 678.2003871565889312
    DFT Exchange-Correlation Energy =       0.0000000000000000
    Empirical Dispersion Energy =           0.0000000000000000
    PCM Polarization Energy =               0.0000000000000000
    EFP Energy =                            0.0000000000000000
    Total Energy =                       -426.1632949178301715

  Mulliken Charges: (a.u.)
   Center  Symbol    Alpha    Beta     Spin     Total
       1     H     0.41952  0.41952  0.00000  0.16096
       2     C     3.24006  3.24006  0.00000 -0.48011
       3     C     3.15635  3.15635  0.00000 -0.31271
       4     H     0.41822  0.41822  0.00000  0.16355
       5     H     0.42365  0.42365  0.00000  0.15270
       6     C     3.14718  3.14718  0.00000 -0.29437
       7     H     0.41063  0.41063  0.00000  0.17874
       8     H     0.42820  0.42820  0.00000  0.14360
       9     C     3.21745  3.21745  0.00000 -0.43489
      10     H     0.40709  0.40709  0.00000  0.18582
      11     H     0.42237  0.42237  0.00000  0.15527
      12     C     2.73240  2.73240  0.00000  0.53520
      13     H     0.40359  0.40359  0.00000  0.19283
      14     H     0.40863  0.40863  0.00000  0.18273
      15     C     3.19983  3.19983  0.00000 -0.39967
      16     O     4.26968  4.26968  0.00000 -0.53936
      17     C     3.16750  3.16750  0.00000 -0.33501
      18     H     0.39989  0.39989  0.00000  0.20022
      19     H     0.40023  0.40023  0.00000  0.19954
      20     C     3.15055  3.15055  0.00000 -0.30110
      21     H     0.41870  0.41870  0.00000  0.16260
      22     H     0.41805  0.41805  0.00000  0.16390
      23     C     3.23981  3.23981  0.00000 -0.47962
      24     H     0.42078  0.42078  0.00000  0.15845
      25     H     0.42084  0.42084  0.00000  0.15831
      26     H     0.42092  0.42092  0.00000  0.15816
      27     H     0.42102  0.42102  0.00000  0.15795
      28     H     0.41685  0.41685  0.00000  0.16629

   Total alpha = 40.00000, Total beta = 40.00000, Total charge =  0.00000
