                              Psi4 1.0.54 Driver

  ==> Input File <==

--------------------------------------------------------------------------
set {
	reference rhf
	basis cc-pvtz
}

set_num_threads( 4 )
memory 2 gb

molecule MOL {
0 1

H	 1.477852	 1.136065	 1.254256
C	 0.587265	 1.251216	 0.654003
O	 0.000000	 0.000000	 0.518769
H	 -0.080313	 1.953397	 1.149116
H	 0.867308	 1.666535	 -0.311886
C	 -1.165153	 0.000000	 -0.236961
H	 -1.229451	 0.882440	 -0.870223
H	 -2.002557	 0.000000	 0.445289
H	 -1.229451	 -0.882440	 -0.870223

	symmetry c1
}
set optking {
	frozen_dihedral = ("
		2 3 6 7
	")
}

ee,wfn = optimize('scf', return_wfn=True)
oeprop( wfn, 'DIPOLE', 'QUADRUPOLE', 'MULLIKEN_CHARGES')
f=open( 'psi4out.xyz', 'w' )
f.write( "9  " )
f.write( str(ee) + "\n" )
f.write( MOL.save_string_xyz() )
f.close()
--------------------------------------------------------------------------

    Molecular point group: c1
  Charge       = 0
  Multiplicity = 1
  Basis Set: CC-PVTZ
  Basis Set:
  @DF-RHF Final Energy:  -154.12367238619817
    Total Energy =                       -154.1236723861981091
    Molecular point group: c1
  Basis Set: CC-PVTZ
  Basis Set:
  Basis Set: CC-PVTZ
  Basis Set:
  @DF-RHF Final Energy:  -154.12424072278367
    Total Energy =                       -154.1242407227836395
  Basis Set: CC-PVTZ
  Basis Set:
  Basis Set: CC-PVTZ
  Basis Set:
  @DF-RHF Final Energy:  -154.12436816968972
    Total Energy =                       -154.1243681696897170
  Basis Set: CC-PVTZ
  Basis Set:
  Charge       = 0
  Multiplicity = 1
  Basis Set: CC-PVTZ
  Basis Set:

    Orbital Energies (a.u.)
    -----------------------

    Doubly Occupied:

       1A    -20.547519     2A    -11.263555     3A    -11.262785
       4A     -1.378959     5A     -0.975839     6A     -0.872695
       7A     -0.659946     8A     -0.655233     9A     -0.645433
      10A     -0.556961    11A     -0.528440    12A     -0.475959
      13A     -0.415900

  @DF-RHF Final Energy:  -154.12436929561613

   => Energetics <=

    Nuclear Repulsion Energy =             84.6484022446553439
    One-Electron Energy =                -377.0670954901892173
    Two-Electron Energy =                 138.2943239499176116
    DFT Exchange-Correlation Energy =       0.0000000000000000
    Empirical Dispersion Energy =           0.0000000000000000
    PCM Polarization Energy =               0.0000000000000000
    EFP Energy =                            0.0000000000000000
    Total Energy =                       -154.1243692956162477
    Molecular point group: c1
  Basis Set: CC-PVTZ
  Basis Set:

  -Total Gradient:
     Atom            X                  Y                   Z
    ------   -----------------  -----------------  -----------------
       1       -0.000014312226    -0.000028456325     0.000012357835
       2        0.001130161266    -0.000303196340    -0.001710358472
       3       -0.002004229354     0.000898416480     0.002817128764
       4       -0.000013396590    -0.000059373009    -0.000009496827
       5       -0.000004135620     0.000003812240    -0.000003512426
       6        0.002006231517    -0.001844114450    -0.002890010982
       7       -0.001141201227     0.001331118684     0.001780262714
       8       -0.000016151881    -0.000004880107    -0.000002812550
       9        0.000057034113     0.000006672826     0.000006441945

  **** Optimization is complete! (in 4 steps) ****
    Final optimized geometry and variables:
    Molecular point group: c1

    Geometry (in Angstrom), charge = 0, multiplicity = 1:

    H            1.689355652483     0.660780907355     0.967180856028
    C            0.815532206524     0.805730896409     0.348360230713
    O            0.179032077577    -0.422855248618     0.222642568844
    H            0.174635420871     1.546498016040     0.822157076403
    H            1.131671676103     1.191352421344    -0.617979497233
    C           -0.979095066996    -0.420308905792    -0.552076189457
    H           -1.021051026203     0.440190407478    -1.213156759675
    H           -1.862504564097    -0.393078702002     0.080083909232
    H           -1.005961192028    -1.323877009359    -1.146173699144

  Mulliken Charges: (a.u.)
   Center  Symbol    Alpha    Beta     Spin     Total
       1     H     0.44951  0.44951  0.00000  0.10098
       2     C     3.02109  3.02109  0.00000 -0.04217
       3     O     4.17159  4.17159  0.00000 -0.34318
       4     H     0.47353  0.47353  0.00000  0.05293
       5     H     0.47248  0.47248  0.00000  0.05504
       6     C     3.01755  3.01755  0.00000 -0.03510
       7     H     0.47519  0.47519  0.00000  0.04961
       8     H     0.46482  0.46482  0.00000  0.07036
       9     H     0.45423  0.45423  0.00000  0.09153

   Total alpha = 13.00000, Total beta = 13.00000, Total charge = -0.00000

*** Psi4 exiting successfully. Buy a developer a beer!
