  ==> Input File <==

--------------------------------------------------------------------------
set {
	reference rhf
	basis 6-31G*
}

set_num_threads( 4 )
memory 2 gb

molecule MOL {
0 1

H	 -0.117665	 2.513404	 -0.463210
C	 0.743512	 1.852280	 -0.570807
N	 0.538815	 0.649616	 0.000000
O	 1.737633	 2.196110	 -1.138884
C	 1.521968	 -0.411503	 0.000000
H	 -0.336930	 0.490534	 0.442772
H	 2.150599	 -0.357004	 -0.881901
H	 0.999455	 -1.354525	 0.000000
H	 2.150599	 -0.357004	 0.881901

	symmetry c1
}
set optking {
	frozen_dihedral = ("
		6 3 5 7
	")
}

ee = optimize('scf')
oeprop('DIPOLE', 'QUADRUPOLE', 'MULLIKEN_CHARGES')
f=open( 'psi4out.xyz', 'w' )
f.write( "9  " )
f.write( str(ee) + "\n" )
f.write( MOL.save_string_xyz() )
f.close()
--------------------------------------------------------------------------

    Molecular point group: c1
  Charge       = 0
  Multiplicity = 1
  Basis Set: 6-31G*
  Basis Set:
  @DF-RHF Final Energy:  -207.96070048494369
    Total Energy =                       -207.9607004849436862
    Molecular point group: c1
  Basis Set: 6-31G*
  Basis Set:
  Basis Set: 6-31G*
  Basis Set:
  @DF-RHF Final Energy:  -207.96094918041689
    Total Energy =                       -207.9609491804168613
  Basis Set: 6-31G*
  Basis Set:
  Basis Set: 6-31G*
  Basis Set:
  @DF-RHF Final Energy:  -207.96094746075653
    Total Energy =                       -207.9609474607566426
  Basis Set: 6-31G*
  Basis Set:
  Basis Set: 6-31G*
  Basis Set:
  @DF-RHF Final Energy:  -207.96103060272034
    Total Energy =                       -207.9610306027203421
  Basis Set: 6-31G*
  Basis Set:
  Basis Set: 6-31G*
  Basis Set:
  @DF-RHF Final Energy:  -207.96105618549714
    Total Energy =                       -207.9610561854970854
  Basis Set: 6-31G*
  Basis Set:
  Basis Set: 6-31G*
  Basis Set:
  @DF-RHF Final Energy:  -207.96106749290544
    Total Energy =                       -207.9610674929054142
  Basis Set: 6-31G*
  Basis Set:
  Charge       = 0
  Multiplicity = 1
  Basis Set: 6-31G*
  Basis Set:

    Orbital Energies (a.u.)
    -----------------------

    Doubly Occupied:

       1A    -20.526206     2A    -15.590553     3A    -11.343324
       4A    -11.260892     5A     -1.389482     6A     -1.236180
       7A     -0.967947     8A     -0.807628     9A     -0.746458
      10A     -0.641366    11A     -0.626702    12A     -0.592679
      13A     -0.556754    14A     -0.534084    15A     -0.424096
      16A     -0.391229

  @DF-RHF Final Energy:  -207.96106776759910

   => Energetics <=

    Nuclear Repulsion Energy =            122.6253220602361012
    One-Electron Energy =                -525.9016182579287033
    Two-Electron Energy =                 195.3152284300934411
    DFT Exchange-Correlation Energy =       0.0000000000000000
    Empirical Dispersion Energy =           0.0000000000000000
    PCM Polarization Energy =               0.0000000000000000
    EFP Energy =                            0.0000000000000000
    Total Energy =                       -207.9610677675991610
    Molecular point group: c1
  Basis Set: 6-31G*
  Basis Set:

  -Total Gradient:
     Atom            X                  Y                   Z
    ------   -----------------  -----------------  -----------------
       1        0.000002798775     0.000005150420    -0.000003901457
       2       -0.000074378177    -0.000027967604     0.000030346495
       3        0.000004282279     0.000051711896    -0.000054688139
       4        0.000033119934    -0.000006825409    -0.000005613941
       5       -0.000008686220    -0.000061600889    -0.000029523670
       6        0.000008096683     0.000023122881     0.000035519845
       7        0.000026831038     0.000016788913     0.000026161654
       8        0.000008196505    -0.000004884684     0.000002590971
       9       -0.000000260817     0.000004504474    -0.000000891759

  **** Optimization is complete! (in 7 steps) ****
    Final optimized geometry and variables:
    Molecular point group: c1

    Geometry (in Angstrom), charge = 0, multiplicity = 1:

    H           -1.247506589955     1.471835075967    -0.051538773047
    C           -0.393123877364     0.798845234416    -0.139243659377
    N           -0.642834566395    -0.426754572731     0.359215768389
    O            0.636054077107     1.140442905463    -0.642446931520
    C            0.368759669612    -1.460759866479     0.406694481386
    H           -1.501327084383    -0.570574679509     0.838722844390
    H            0.949731582913    -1.433104179631    -0.502852197568
    H           -0.114547980644    -2.425495005522     0.487570222269
    H            1.040879373119    -1.331536080680     1.248636092546

  Mulliken Charges: (a.u.)
   Center  Symbol    Alpha    Beta     Spin     Total
       1     H     0.42701  0.42701  0.00000  0.14599
       2     C     2.74685  2.74685  0.00000  0.50630
       3     N     3.87422  3.87422  0.00000 -0.74844
       4     O     4.28312  4.28312  0.00000 -0.56624
       5     C     3.13927  3.13927  0.00000 -0.27855
       6     H     0.30886  0.30886  0.00000  0.38229
       7     H     0.39434  0.39434  0.00000  0.21132
       8     H     0.41496  0.41496  0.00000  0.17008
       9     H     0.41137  0.41137  0.00000  0.17725

   Total alpha = 16.00000, Total beta = 16.00000, Total charge = -0.00000
