  ==> Input File <==

--------------------------------------------------------------------------
set {
	reference rhf
	basis cc-pvtz
}

set_num_threads( 4 )
memory 2 gb

molecule MOL {
0 1

O	 3.219313	 0.959291	 -0.614106
C	 2.698710	 0.058177	 -0.050237
C	 1.246364	 -0.005813	 0.348416
O	 3.344101	 -1.038700	 0.312317
C	 0.453207	 1.232821	 -0.049003
H	 0.839270	 -0.907818	 -0.092281
H	 1.216683	 -0.160521	 1.422434
C	 -0.998367	 1.217982	 0.432195
H	 0.481498	 1.345443	 -1.127236
H	 0.951413	 2.105557	 0.354893
C	 -1.882951	 0.151251	 -0.211235
H	 -1.429490	 2.193659	 0.228843
H	 -1.019755	 1.099323	 1.513279
C	 -3.342450	 0.243269	 0.226009
H	 -1.826223	 0.246578	 -1.293162
H	 -1.508033	 -0.839650	 0.027695
C	 -4.234517	 -0.821434	 -0.405970
H	 -3.730149	 1.228245	 -0.022691
H	 -3.398860	 0.159952	 1.308941
C	 -3.771466	 -2.244205	 -0.110870
H	 -5.253053	 -0.693474	 -0.049696
H	 -4.267548	 -0.669933	 -1.481523
H	 -4.425424	 -2.974414	 -0.573598
H	 -3.761373	 -2.438955	 0.956407
H	 -2.767732	 -2.414839	 -0.485849
C	 4.720529	 -1.114346	 0.001449
H	 4.874321	 -1.055557	 -1.065852
H	 5.057824	 -2.067950	 0.373977
H	 5.264321	 -0.313596	 0.480350

	symmetry c1
}
set optking {
	frozen_dihedral = ("
		21 17 14 11
	")
}

ee = optimize('scf')
oeprop('DIPOLE', 'QUADRUPOLE', 'MULLIKEN_CHARGES')
f=open( 'psi4out.xyz', 'w' )
f.write( "29  " )
f.write( str(ee) + "\n" )
f.write( MOL.save_string_xyz() )
f.close()
--------------------------------------------------------------------------

    Molecular point group: c1
  Charge       = 0
  Multiplicity = 1
  Basis Set: CC-PVTZ
  Basis Set:
  @DF-RHF Final Energy:  -501.22200640610038
    Total Energy =                       -501.2220064061003768
    Molecular point group: c1
  Basis Set: CC-PVTZ
  Basis Set:
  Basis Set: CC-PVTZ
  Basis Set:
  @DF-RHF Final Energy:  -501.22257938767666
    Total Energy =                       -501.2225793876765465
  Basis Set: CC-PVTZ
  Basis Set:
  Basis Set: CC-PVTZ
  Basis Set:
  @DF-RHF Final Energy:  -501.22297495712678
    Total Energy =                       -501.2229749571276898
  Basis Set: CC-PVTZ
  Basis Set:
  Basis Set: CC-PVTZ
  Basis Set:
  @DF-RHF Final Energy:  -501.22283399017874
    Total Energy =                       -501.2228339901789695
  Basis Set: CC-PVTZ
  Basis Set:
  Basis Set: CC-PVTZ
  Basis Set:
  @DF-RHF Final Energy:  -501.22299645504279
    Total Energy =                       -501.2229964550422210
  Basis Set: CC-PVTZ
  Basis Set:
  Basis Set: CC-PVTZ
  Basis Set:
  @DF-RHF Final Energy:  -501.22300206973966
    Total Energy =                       -501.2230020697404598
  Basis Set: CC-PVTZ
  Basis Set:
  Charge       = 0
  Multiplicity = 1
  Basis Set: CC-PVTZ
  Basis Set:

    Orbital Energies (a.u.)
    -----------------------

    Doubly Occupied:

       1A    -20.596003     2A    -20.533852     3A    -11.364268
       4A    -11.278250     5A    -11.232983     6A    -11.216977
       7A    -11.215434     8A    -11.214418     9A    -11.213233
      10A    -11.212539    11A    -11.207301    12A     -1.471897
      13A     -1.365485    14A     -1.099279    15A     -1.067490
      16A     -1.019216    17A     -0.976660    18A     -0.928927
      19A     -0.871707    20A     -0.803694    21A     -0.778822
      22A     -0.765735    23A     -0.703078    24A     -0.685441
      25A     -0.676021    26A     -0.643960    27A     -0.632583
      28A     -0.606766    29A     -0.596599    30A     -0.592833
      31A     -0.558283    32A     -0.555181    33A     -0.538455
      34A     -0.525151    35A     -0.522225    36A     -0.510771
      37A     -0.497071    38A     -0.478761    39A     -0.473239
      40A     -0.460683    41A     -0.459624    42A     -0.452451
      43A     -0.444600    44A     -0.437884

  @DF-RHF Final Energy:  -501.22300234124771

   => Energetics <=

    Nuclear Repulsion Energy =            618.3014080697161035
    One-Electron Energy =               -1908.0771537599698604
    Two-Electron Energy =                 788.5527433490053681
    DFT Exchange-Correlation Energy =       0.0000000000000000
    Empirical Dispersion Energy =           0.0000000000000000
    PCM Polarization Energy =               0.0000000000000000
    EFP Energy =                            0.0000000000000000
    Total Energy =                       -501.2230023412482751
    Molecular point group: c1
  Basis Set: CC-PVTZ
  Basis Set:

  -Total Gradient:
     Atom            X                  Y                   Z
    ------   -----------------  -----------------  -----------------
       1        0.000000374850     0.000008630597     0.000013914430
       2       -0.000008035398    -0.000018035356    -0.000034156634
       3        0.000004564468     0.000005753155     0.000011136577
       4        0.000002924312     0.000004360330     0.000011719629
       5       -0.000008074354    -0.000017606222    -0.000002674268
       6       -0.000002128884     0.000002183793    -0.000003183659
       7       -0.000002799151    -0.000001368882     0.000001732714
       8        0.000001312793     0.000000678699     0.000025912389
       9       -0.000005948524    -0.000001348746     0.000006440728
      10       -0.000004463825     0.000004406843     0.000003924809
      11        0.000235417607    -0.000757733594     0.000785321481
      12        0.000011804761     0.000003184436    -0.000002568978
      13        0.000006454309     0.000013428303     0.000007938394
      14       -0.000256968269     0.000828847352    -0.000925172524
      15       -0.000004834289    -0.000006707414    -0.000024325228
      16        0.000002478749     0.000026562716     0.000005798937
      17       -0.000268333693     0.000924117921    -0.001021511313
      18       -0.000002146705    -0.000018738099    -0.000011262024
      19       -0.000023105490     0.000001572979     0.000009533775
      20        0.000028787026    -0.000001506690    -0.000005182738
      21        0.000299278914    -0.001005209973     0.001139778296
      22        0.000011446759     0.000008152640     0.000008646987
      23       -0.000007442147     0.000014044456     0.000006254944
      24        0.000000558758     0.000008645771    -0.000003742202
      25       -0.000010940850    -0.000026552633    -0.000004748841
      26       -0.000000601148     0.000000022471     0.000000375231
      27       -0.000000279349     0.000000090221     0.000000071033
      28        0.000000264770     0.000000110017     0.000000107113
      29        0.000000434008     0.000000014911    -0.000000079056

  **** Optimization is complete! (in 7 steps) ****
    Final optimized geometry and variables:
    Molecular point group: c1

    Geometry (in Angstrom), charge = 0, multiplicity = 1:

    O            3.044191120798     1.100262015839    -0.640945839092
    C            2.537828422133     0.217272122152    -0.036872393336
    C            1.088515987927     0.152266892319     0.372695162120
    O            3.198818361447    -0.855539127226     0.367227887743
    C            0.277909291786     1.363623702468    -0.071058455824
    H            0.690519297924    -0.772347753874    -0.027627984714
    H            1.066541005742     0.042036244872     1.452357451524
    C           -1.170935944857     1.351837257962     0.418511636753
    H            0.299384281092     1.432206504187    -1.153149180784
    H            0.767544580556     2.258143339371     0.293844883776
    C           -2.048751626094     0.255055398041    -0.183340812376
    H           -1.612082134383     2.316119971395     0.185126539371
    H           -1.185204580426     1.269453838356     1.503196029186
    C           -3.500616500140     0.344189443973     0.283901511526
    H           -2.014317755202     0.327592505406    -1.268651806365
    H           -1.646700816274    -0.718512602264     0.071753391236
    C           -4.456574230909    -0.655816171526    -0.369400320745
    H           -3.871022806625     1.347582721959     0.093801542368
    H           -3.532365763420     0.209987055085     1.363064453400
    C           -4.089730539102    -2.124015338183    -0.162759231958
    H           -5.448151359647    -0.493380053266     0.041880669892
    H           -4.525140008691    -0.448590238763    -1.433775386789
    H           -4.862391340503    -2.770639428180    -0.562590355214
    H           -3.981222135692    -2.354550785155     0.892504533090
    H           -3.161327200543    -2.385348524187    -0.655738151423
    C            4.574387916771    -0.927233935865     0.051612630522
    H            4.721639403833    -0.911078666311    -1.018108246485
    H            4.925640202578    -1.860274164803     0.461461205076
    H            5.110729034774    -0.100608481258     0.493534115861

  Mulliken Charges: (a.u.)
   Center  Symbol    Alpha    Beta     Spin     Total
       1     O     4.19700  4.19700  0.00000 -0.39400
       2     C     2.80480  2.80480  0.00000  0.39040
       3     C     3.10149  3.10149  0.00000 -0.20299
       4     O     4.14724  4.14724  0.00000 -0.29449
       5     C     3.09231  3.09231  0.00000 -0.18461
       6     H     0.43966  0.43966  0.00000  0.12069
       7     H     0.43984  0.43984  0.00000  0.12031
       8     C     3.10318  3.10318  0.00000 -0.20636
       9     H     0.44633  0.44633  0.00000  0.10734
      10     H     0.43963  0.43963  0.00000  0.12074
      11     C     3.09565  3.09565  0.00000 -0.19130
      12     H     0.44490  0.44490  0.00000  0.11020
      13     H     0.45381  0.45381  0.00000  0.09238
      14     C     3.09545  3.09545  0.00000 -0.19090
      15     H     0.45303  0.45303  0.00000  0.09394
      16     H     0.45064  0.45064  0.00000  0.09872
      17     C     3.08903  3.08903  0.00000 -0.17806
      18     H     0.44882  0.44882  0.00000  0.10236
      19     H     0.45375  0.45375  0.00000  0.09251
      20     C     3.15577  3.15577  0.00000 -0.31155
      21     H     0.44887  0.44887  0.00000  0.10226
      22     H     0.45353  0.45353  0.00000  0.09294
      23     H     0.44501  0.44501  0.00000  0.10997
      24     H     0.45452  0.45452  0.00000  0.09097
      25     H     0.45369  0.45369  0.00000  0.09261
      26     C     3.03822  3.03822  0.00000 -0.07645
      27     H     0.45436  0.45436  0.00000  0.09129
      28     H     0.44526  0.44526  0.00000  0.10948
      29     H     0.45420  0.45420  0.00000  0.09159

   Total alpha = 44.00000, Total beta = 44.00000, Total charge = -0.00000
