  ==> Input File <==

--------------------------------------------------------------------------
set {
	reference rhf
	basis 6-31G*
}

set_num_threads( 4 )
memory 2 gb

molecule MOL {
0 1

O	 0.557197	 1.254349	 -0.711483
C	 0.449954	 0.118554	 -0.376503
C	 1.576613	 -0.885532	 -0.324409
O	 -0.698257	 -0.426125	 0.001050
C	 2.917399	 -0.301795	 -0.751621
H	 1.293005	 -1.725074	 -0.952090
H	 1.619342	 -1.273898	 0.688809
H	 2.874761	 0.069256	 -1.768414
H	 3.690321	 -1.061002	 -0.696741
H	 3.204246	 0.524354	 -0.112465
C	 -1.853104	 0.406779	 0.000512
C	 -3.066105	 -0.499277	 -0.000959
H	 -1.828410	 1.043074	 -0.873618
H	 -1.829857	 1.042383	 0.875188
H	 -3.071820	 -1.133106	 -0.880383
H	 -3.972708	 0.097145	 -0.001528
H	 -3.073405	 -1.133813	 0.877999

	symmetry c1
}
set optking {
	frozen_dihedral = ("
		2 4 11 13
	")
}

ee = optimize('scf')
oeprop('DIPOLE', 'QUADRUPOLE', 'MULLIKEN_CHARGES')
f=open( 'psi4out.xyz', 'w' )
f.write( "17  " )
f.write( str(ee) + "\n" )
f.write( MOL.save_string_xyz() )
f.close()
--------------------------------------------------------------------------

    Molecular point group: c1
  Charge       = 0
  Multiplicity = 1
  Basis Set: 6-31G*
  Basis Set:
  @DF-RHF Final Energy:  -344.91135401239029
    Total Energy =                       -344.9113540123900066
    Molecular point group: c1
  Basis Set: 6-31G*
  Basis Set:
  Basis Set: 6-31G*
  Basis Set:
  @DF-RHF Final Energy:  -344.91135234580884
    Total Energy =                       -344.9113523458089503
  Basis Set: 6-31G*
  Basis Set:
  Basis Set: 6-31G*
  Basis Set:
  @DF-RHF Final Energy:  -344.91087079551085
    Total Energy =                       -344.9108707955109026
  Basis Set: 6-31G*
  Basis Set:
  Basis Set: 6-31G*
  Basis Set:
  @DF-RHF Final Energy:  -344.91144302259096
    Total Energy =                       -344.9114430225911860
  Basis Set: 6-31G*
  Basis Set:
  Charge       = 0
  Multiplicity = 1
  Basis Set: 6-31G*
  Basis Set:

    Orbital Energies (a.u.)
    -----------------------

    Doubly Occupied:

       1A    -20.600657     2A    -20.544157     3A    -11.371624
       4A    -11.284458     5A    -11.237392     6A    -11.222492
       7A    -11.215631     8A     -1.466896     9A     -1.362046
      10A     -1.069924    11A     -1.031735    12A     -0.911120
      13A     -0.847775    14A     -0.772372    15A     -0.697133
      16A     -0.687523    17A     -0.663764    18A     -0.629414
      19A     -0.583780    20A     -0.571693    21A     -0.558202
      22A     -0.524923    23A     -0.519499    24A     -0.514355
      25A     -0.503448    26A     -0.492654    27A     -0.451697
      28A     -0.435837

  @DF-RHF Final Energy:  -344.91145360578895

   => Energetics <=

    Nuclear Repulsion Energy =            314.6640508183192537
    One-Electron Energy =               -1093.6066039944741988
    Two-Electron Energy =                 434.0310995703661092
    DFT Exchange-Correlation Energy =       0.0000000000000000
    Empirical Dispersion Energy =           0.0000000000000000
    PCM Polarization Energy =               0.0000000000000000
    EFP Energy =                            0.0000000000000000
    Total Energy =                       -344.9114536057887790
    Molecular point group: c1
  Basis Set: 6-31G*
  Basis Set:

  -Total Gradient:
     Atom            X                  Y                   Z
    ------   -----------------  -----------------  -----------------
       1       -0.000008861706    -0.000037059843     0.000027107739
       2       -0.000219587702    -0.000307052372    -0.001282603855
       3       -0.000034638312     0.000001459056    -0.000000203185
       4        0.000512744683     0.000734921470     0.001944233158
       5       -0.000003051607     0.000016060305     0.000009625593
       6       -0.000005144653    -0.000004220444     0.000006717769
       7        0.000000282987     0.000005205796     0.000006118317
       8        0.000002106079     0.000000802780    -0.000003132208
       9       -0.000004819682    -0.000002044284     0.000001179615
      10       -0.000000995835    -0.000001082790    -0.000002408796
      11       -0.000990973900    -0.001432972538    -0.001444253399
      12       -0.000000359094    -0.000017913395    -0.000015721215
      13        0.000739269664     0.001026463893     0.000766780987
      14        0.000004096019     0.000009443212    -0.000001357811
      15       -0.000002501883    -0.000009539655    -0.000006721327
      16        0.000004931063     0.000005619930     0.000000371761
      17        0.000007503881     0.000011908876    -0.000005733144

  **** Optimization is complete! (in 5 steps) ****
    Final optimized geometry and variables:
    Molecular point group: c1

    Geometry (in Angstrom), charge = 0, multiplicity = 1:

    O            0.602061289456     1.306183365075    -0.384080976740
    C            0.482928178650     0.167321355990    -0.064174048213
    C            1.601237827987    -0.846621278768    -0.021352573611
    O           -0.668641481846    -0.374490407553     0.308002871182
    C            2.947891005447    -0.269142859024    -0.438594221572
    H            1.312300129898    -1.676979438908    -0.658682398663
    H            1.638299556501    -1.246226433668     0.987706250774
    H            2.911048834527     0.113586339972    -1.451270215228
    H            3.714355308696    -1.035316215146    -0.390266014566
    H            3.239763304817     0.547385179106     0.210558489814
    C           -1.833123144263     0.445465666305     0.290718420225
    C           -3.039548505108    -0.468832458461     0.315182430245
    H           -1.813557956399     1.074426686909    -0.586513167171
    H           -1.809817282238     1.092431218798     1.158932960820
    H           -3.053816613108    -1.109156173972    -0.559568643179
    H           -3.950280217394     0.121276955338     0.324140256125
    H           -3.029393304532    -1.096901356933     1.198636691008

  Mulliken Charges: (a.u.)
   Center  Symbol    Alpha    Beta     Spin     Total
       1     O     4.28621  4.28621  0.00000 -0.57241
       2     C     2.60581  2.60581  0.00000  0.78838
       3     C     3.20513  3.20513  0.00000 -0.41025
       4     O     4.31351  4.31351  0.00000 -0.62703
       5     C     3.23875  3.23875  0.00000 -0.47751
       6     H     0.40100  0.40100  0.00000  0.19801
       7     H     0.40061  0.40061  0.00000  0.19878
       8     H     0.41009  0.41009  0.00000  0.17982
       9     H     0.41828  0.41828  0.00000  0.16344
      10     H     0.40992  0.40992  0.00000  0.18016
      11     C     3.00402  3.00402  0.00000 -0.00804
      12     C     3.24798  3.24798  0.00000 -0.49596
      13     H     0.40422  0.40422  0.00000  0.19156
      14     H     0.41405  0.41405  0.00000  0.17190
      15     H     0.41250  0.41250  0.00000  0.17501
      16     H     0.41643  0.41643  0.00000  0.16715
      17     H     0.41150  0.41150  0.00000  0.17700

   Total alpha = 28.00000, Total beta = 28.00000, Total charge = -0.00000
