  ==> Input File <==

--------------------------------------------------------------------------
set {
	reference rhf
	basis 6-31G*
}

set_num_threads( 4 )
memory 2 gb

molecule MOL {
0 1

H	 2.448287	 -0.864207	 1.534511
O	 1.772712	 -1.135441	 0.920656
C	 0.799799	 -0.225302	 0.947419
C	 -0.318135	 -0.576402	 0.000164
O	 0.848799	 0.732249	 1.648626
C	 -1.454360	 0.441875	 -0.000474
H	 0.117123	 -0.682183	 -0.989969
H	 -0.675520	 -1.565739	 0.273097
C	 -2.826123	 -0.230780	 0.000056
H	 -1.357605	 1.085198	 -0.868380
H	 -1.357504	 1.086451	 0.866496
H	 -2.959731	 -0.858053	 -0.876869
H	 -3.619374	 0.509403	 -0.000080
H	 -2.959371	 -0.857318	 0.877556

	symmetry c1
}
set optking {
	frozen_dihedral = ("
		7 4 6 10
	")
}

ee = optimize('scf')
oeprop('DIPOLE', 'QUADRUPOLE', 'MULLIKEN_CHARGES')
f=open( 'psi4out.xyz', 'w' )
f.write( "14  " )
f.write( str(ee) + "\n" )
f.write( MOL.save_string_xyz() )
f.close()
--------------------------------------------------------------------------

    Molecular point group: c1
  Charge       = 0
  Multiplicity = 1
  Basis Set: 6-31G*
  Basis Set:
  @DF-RHF Final Energy:  -305.87659069555764
    Total Energy =                       -305.8765906955575247
    Molecular point group: c1
  Basis Set: 6-31G*
  Basis Set:
  Basis Set: 6-31G*
  Basis Set:
  @DF-RHF Final Energy:  -305.87688837828875
    Total Energy =                       -305.8768883782889247
  Basis Set: 6-31G*
  Basis Set:
  Basis Set: 6-31G*
  Basis Set:
  @DF-RHF Final Energy:  -305.87684870190253
    Total Energy =                       -305.8768487019023610
  Basis Set: 6-31G*
  Basis Set:
  Basis Set: 6-31G*
  Basis Set:
  @DF-RHF Final Energy:  -305.87697262780341
    Total Energy =                       -305.8769726278035250
  Basis Set: 6-31G*
  Basis Set:
  Basis Set: 6-31G*
  Basis Set:
  @DF-RHF Final Energy:  -305.87698035811246
    Total Energy =                       -305.8769803581124052
  Basis Set: 6-31G*
  Basis Set:
  Basis Set: 6-31G*
  Basis Set:
  @DF-RHF Final Energy:  -305.87698175696170
    Total Energy =                       -305.8769817569618681
  Basis Set: 6-31G*
  Basis Set:
  Charge       = 0
  Multiplicity = 1
  Basis Set: 6-31G*
  Basis Set:

    Orbital Energies (a.u.)
    -----------------------

    Doubly Occupied:

       1A    -20.613134     2A    -20.552667     3A    -11.382223
       4A    -11.241398     5A    -11.224175     6A    -11.216211
       7A     -1.475499     8A     -1.366435     9A     -1.080309
      10A     -0.979617    11A     -0.857171    12A     -0.790192
      13A     -0.700745    14A     -0.690922    15A     -0.662502
      16A     -0.614591    17A     -0.595351    18A     -0.569480
      19A     -0.552130    20A     -0.498112    21A     -0.490924
      22A     -0.481533    23A     -0.478407    24A     -0.445672

  @DF-RHF Final Energy:  -305.87698192204192

   => Energetics <=

    Nuclear Repulsion Energy =            240.0982491148149052
    One-Electron Energy =                -892.8316640684845424
    Two-Electron Energy =                 346.8564330316276596
    DFT Exchange-Correlation Energy =       0.0000000000000000
    Empirical Dispersion Energy =           0.0000000000000000
    PCM Polarization Energy =               0.0000000000000000
    EFP Energy =                            0.0000000000000000
    Total Energy =                       -305.8769819220419208
    Molecular point group: c1
  Basis Set: 6-31G*
  Basis Set:

  -Total Gradient:
     Atom            X                  Y                   Z
    ------   -----------------  -----------------  -----------------
       1       -0.000004768723     0.000004594853    -0.000003642751
       2        0.000000572194    -0.000004289677     0.000000977069
       3        0.000004580568    -0.000006006937     0.000026305973
       4       -0.002892325102    -0.003255247581    -0.001148780675
       5        0.000008736898     0.000002226565    -0.000023013520
       6        0.002587315730     0.002913768492     0.002129045974
       7        0.001986354314     0.002219297660     0.000623378709
       8        0.000010266207     0.000006998957    -0.000016376616
       9       -0.000003750394     0.000003928992    -0.000013757845
      10       -0.001692932680    -0.001886203239    -0.001570064506
      11       -0.000001844370     0.000001646565    -0.000005661764
      12        0.000000991789    -0.000008398607     0.000003334567
      13        0.000000212569    -0.000001535391    -0.000006447724
      14       -0.000003409009     0.000009219349     0.000004703109

  **** Optimization is complete! (in 7 steps) ****
    Final optimized geometry and variables:
    Molecular point group: c1

    Geometry (in Angstrom), charge = 0, multiplicity = 1:

    H            2.636625362374    -0.684785977132     0.880153680962
    O            1.945340421847    -0.952195386149     0.282409505251
    C            0.970285255608    -0.045689485104     0.345696295111
    C           -0.170133693179    -0.403648154552    -0.576948972325
    O            1.039612660900     0.904560323754     1.054973342205
    C           -1.314964411528     0.619954656461    -0.584715106421
    H            0.271036455040    -0.518453439827    -1.562172268377
    H           -0.511872393984    -1.390946219786    -0.280896703515
    C           -2.691555272951    -0.046159523032    -0.627083375806
    H           -1.216904065301     1.259185948014    -1.456300426461
    H           -1.239457672608     1.255228665102     0.287534240458
    H           -2.796994341557    -0.685115483745    -1.499535764678
    H           -3.480340525420     0.698030939837    -0.666142618290
    H           -2.857788442697    -0.659035481094     0.254286493237

  Mulliken Charges: (a.u.)
   Center  Symbol    Alpha    Beta     Spin     Total
       1     H     0.26760  0.26760  0.00000  0.46479
       2     O     4.34970  4.34970  0.00000 -0.69941
       3     C     2.62980  2.62980  0.00000  0.74040
       4     C     3.21093  3.21093  0.00000 -0.42185
       5     O     4.27829  4.27829  0.00000 -0.55657
       6     C     3.15926  3.15926  0.00000 -0.31851
       7     H     0.39603  0.39603  0.00000  0.20794
       8     H     0.39644  0.39644  0.00000  0.20713
       9     C     3.24356  3.24356  0.00000 -0.48711
      10     H     0.41624  0.41624  0.00000  0.16751
      11     H     0.39493  0.39493  0.00000  0.21014
      12     H     0.42144  0.42144  0.00000  0.15712
      13     H     0.41594  0.41594  0.00000  0.16813
      14     H     0.41985  0.41985  0.00000  0.16029

   Total alpha = 24.00000, Total beta = 24.00000, Total charge =  0.00000
