  ==> Input File <==

--------------------------------------------------------------------------
set {
	reference rhf
	basis 6-31G*
}

set_num_threads( 4 )
memory 2 gb

molecule MOL {
0 1

H	 -0.821032	 -1.655889	 0.000000
O	 -1.037828	 -0.728600	 0.000000
C	 0.100509	 -0.036935	 0.000000
C	 1.205178	 -0.778397	 -0.697025
O	 0.192772	 1.035160	 0.501321
H	 1.371548	 -1.730286	 -0.206165
H	 2.107688	 -0.186646	 -0.675622
H	 0.917166	 -0.982468	 -1.721778

	symmetry c1
}
set optking {
	frozen_dihedral = ("
		4 3 2 1
	")
}

ee = optimize('scf')
oeprop('DIPOLE', 'QUADRUPOLE', 'MULLIKEN_CHARGES')
f=open( 'psi4out.xyz', 'w' )
f.write( "8  " )
f.write( str(ee) + "\n" )
f.write( MOL.save_string_xyz() )
f.close()
--------------------------------------------------------------------------

    Molecular point group: c1
  Charge       = 0
  Multiplicity = 1
  Basis Set: 6-31G*
  Basis Set:
  @DF-RHF Final Energy:  -227.79428962017863
    Total Energy =                       -227.7942896201786880
    Molecular point group: c1
  Basis Set: 6-31G*
  Basis Set:
  Basis Set: 6-31G*
  Basis Set:
  @DF-RHF Final Energy:  -227.79402826268921
    Total Energy =                       -227.7940282626891531
  Basis Set: 6-31G*
  Basis Set:
  Basis Set: 6-31G*
  Basis Set:
  @DF-RHF Final Energy:  -227.79500614839844
    Total Energy =                       -227.7950061483984427
  Basis Set: 6-31G*
  Basis Set:
  Basis Set: 6-31G*
  Basis Set:
  @DF-RHF Final Energy:  -227.79630118692540
    Total Energy =                       -227.7963011869254046
  Basis Set: 6-31G*
  Basis Set:
  @DF-RHF Final Energy:  -227.79632041990396
    Total Energy =                       -227.7963204199040206
  Basis Set: 6-31G*
  Basis Set:
  @DF-RHF Final Energy:  -227.79633111703021
    Total Energy =                       -227.7963311170301495
  Basis Set: 6-31G*
  Basis Set:
  Basis Set: 6-31G*
  Basis Set:
  @DF-RHF Final Energy:  -227.79592549401943
    Total Energy =                       -227.7959254940194853
  Basis Set: 6-31G*
  Basis Set:
  Basis Set: 6-31G*
  Basis Set:
  @DF-RHF Final Energy:  -227.79633343824065
    Total Energy =                       -227.7963334382404241
  Basis Set: 6-31G*
  Basis Set:
  Charge       = 0
  Multiplicity = 1
  Basis Set: 6-31G*
  Basis Set:

    Orbital Energies (a.u.)
    -----------------------

    Doubly Occupied:

       1A    -20.612313     2A    -20.552048     3A    -11.385658
       4A    -11.251243     5A     -1.469025     6A     -1.372624
       7A     -1.026573     8A     -0.838408     9A     -0.719438
      10A     -0.667644    11A     -0.657099    12A     -0.601294
      13A     -0.574893    14A     -0.545154    15A     -0.479943
      16A     -0.446719

  @DF-RHF Final Energy:  -227.79633573336054

   => Energetics <=

    Nuclear Repulsion Energy =            122.1136835550581310
    One-Electron Energy =                -553.4198862017019565
    Two-Electron Energy =                 203.5098669132833038
    DFT Exchange-Correlation Energy =       0.0000000000000000
    Empirical Dispersion Energy =           0.0000000000000000
    PCM Polarization Energy =               0.0000000000000000
    EFP Energy =                            0.0000000000000000
    Total Energy =                       -227.7963357333605359
    Molecular point group: c1
  Basis Set: 6-31G*
  Basis Set:

  -Total Gradient:
     Atom            X                  Y                   Z
    ------   -----------------  -----------------  -----------------
       1        0.000064545852     0.000065927490     0.005419249615
       2       -0.000672797362     0.000457629501    -0.008053275316
       3        0.001288535180    -0.001865420702     0.005186047018
       4       -0.000782655714     0.001416826542    -0.002849920138
       5        0.000071640851    -0.000053734082     0.000304562270
       6        0.000016359225     0.000001223435     0.000023434714
       7        0.000008880939    -0.000020353262    -0.000022444424
       8        0.000005491029    -0.000002098926    -0.000007653741

  **** Optimization is complete! (in 9 steps) ****
    Final optimized geometry and variables:
    Molecular point group: c1

    Geometry (in Angstrom), charge = 0, multiplicity = 1:

    H           -1.024957404349    -1.507090920506     0.106484108523
    O           -1.151899578951    -0.567684915475     0.099108040343
    C            0.012095228071     0.100068933049     0.062952764477
    C            1.140147660589    -0.616738792353    -0.641155356027
    O            0.085213899563     1.200268911525     0.483286714628
    H            1.325971882651    -1.592877118006    -0.202336664375
    H            2.038565605075    -0.021877508050    -0.581292321386
    H            0.869937045960    -0.765822024878    -1.681323315548

  Mulliken Charges: (a.u.)
   Center  Symbol    Alpha    Beta     Spin     Total
       1     H     0.26966  0.26966  0.00000  0.46067
       2     O     4.34748  4.34748  0.00000 -0.69496
       3     C     2.62858  2.62858  0.00000  0.74284
       4     C     3.30423  3.30423  0.00000 -0.60847
       5     O     4.25516  4.25516  0.00000 -0.51031
       6     H     0.41046  0.41046  0.00000  0.17907
       7     H     0.38832  0.38832  0.00000  0.22335
       8     H     0.39610  0.39610  0.00000  0.20781

   Total alpha = 16.00000, Total beta = 16.00000, Total charge = -0.00000
