                              Psi4 1.0.54 Driver

  ==> Input File <==

--------------------------------------------------------------------------
set {
	reference rhf
	basis cc-pvtz
}

set_num_threads( 4 )
memory 2 gb

molecule MOL {
0 1

H	 0.677187	 3.715817	 0.542045
O	 1.425659	 3.161570	 0.410432
C	 1.062315	 1.881916	 0.212827
C	 2.072974	 0.954320	 0.004853
C	 -0.255705	 1.477959	 0.211588
H	 3.091116	 1.289759	 0.009760
C	 1.761017	 -0.369650	 -0.202846
H	 -1.055143	 2.171724	 0.369347
C	 -0.532034	 0.141680	 0.000000
H	 2.548688	 -1.079415	 -0.362709
C	 0.444567	 -0.799615	 -0.208556
N	 -1.937041	 -0.281114	 0.000000
H	 0.187441	 -1.823846	 -0.368431
O	 -2.159542	 -1.446261	 0.000000
O	 -2.764978	 0.565773	 0.000000

	symmetry c1
}
set optking {
	frozen_dihedral = ("
		11 9 12 14
	")
}

ee,wfn = optimize('scf', return_wfn=True)
oeprop( wfn, 'DIPOLE', 'QUADRUPOLE', 'MULLIKEN_CHARGES')
f=open( 'psi4out.xyz', 'w' )
f.write( "15  " )
f.write( str(ee) + "\n" )
f.write( MOL.save_string_xyz() )
f.close()
--------------------------------------------------------------------------

    Molecular point group: c1
  Charge       = 0
  Multiplicity = 1
  Basis Set: CC-PVTZ
  Basis Set:
  @DF-RHF Final Energy:  -509.21894723999662
    Total Energy =                       -509.2189472399968508
    Molecular point group: c1
  Basis Set: CC-PVTZ
  Basis Set:
  Basis Set: CC-PVTZ
  Basis Set:
  @DF-RHF Final Energy:  -509.21722933011625
    Total Energy =                       -509.2172293301164245
  Basis Set: CC-PVTZ
  Basis Set:
  Basis Set: CC-PVTZ
  Basis Set:
  @DF-RHF Final Energy:  -509.21886240843577
    Total Energy =                       -509.2188624084354842
  Basis Set: CC-PVTZ
  Basis Set:
  Basis Set: CC-PVTZ
  Basis Set:
  @DF-RHF Final Energy:  -509.21896874596376
    Total Energy =                       -509.2189687459638208
  Basis Set: CC-PVTZ
  Basis Set:
  Charge       = 0
  Multiplicity = 1
  Basis Set: CC-PVTZ
  Basis Set:

    Orbital Energies (a.u.)
    -----------------------

    Doubly Occupied:

       1A    -20.608498     2A    -20.595161     3A    -20.594664
       4A    -15.850580     5A    -11.327803     6A    -11.309140
       7A    -11.263243     8A    -11.262893     9A    -11.258571
      10A    -11.256462    11A     -1.644232    12A     -1.441124
      13A     -1.426657    14A     -1.202602    15A     -1.095601
      16A     -1.048013    17A     -0.966895    18A     -0.881586
      19A     -0.832013    20A     -0.795341    21A     -0.756735
      22A     -0.743134    23A     -0.729134    24A     -0.709642
      25A     -0.677067    26A     -0.636083    27A     -0.621734
      28A     -0.598494    29A     -0.560777    30A     -0.546777
      31A     -0.520742    32A     -0.494883    33A     -0.493573
      34A     -0.460109    35A     -0.380116    36A     -0.346180

  @DF-RHF Final Energy:  -509.21896948147884

   => Energetics <=

    Nuclear Repulsion Energy =            504.7098583160888552
    One-Electron Energy =               -1695.9851401929231542
    Two-Electron Energy =                 682.0563123953554623
    DFT Exchange-Correlation Energy =       0.0000000000000000
    Empirical Dispersion Energy =           0.0000000000000000
    PCM Polarization Energy =               0.0000000000000000
    EFP Energy =                            0.0000000000000000
    Total Energy =                       -509.2189694814787799
    Molecular point group: c1
  Basis Set: CC-PVTZ
  Basis Set:

  -Total Gradient:
     Atom            X                  Y                   Z
    ------   -----------------  -----------------  -----------------
       1       -0.000000747904    -0.000010547254     0.000013843728
       2        0.000019156823     0.000000517571    -0.000003417665
       3       -0.000014376418     0.000010357985    -0.000031788942
       4        0.000003670164    -0.000000372961    -0.000068791613
       5        0.000053003642     0.000033374429     0.000109452104
       6        0.000003501856     0.000000073644    -0.000004141615
       7        0.000046356025    -0.000014753175     0.000153058438
       8        0.000030631735    -0.000015196005    -0.000005822564
       9        0.000044421853    -0.000245280145     0.001213160593
      10        0.000009878306     0.000007103513    -0.000014192907
      11       -0.000018582792     0.000140708830    -0.000767775962
      12        0.000200741596     0.000270196622    -0.001475024640
      13       -0.000000993495     0.000015496216     0.000009537604
      14       -0.000100483414    -0.000155953240     0.000861249568
      15       -0.000276177975    -0.000035726025     0.000010653872

  **** Optimization is complete! (in 5 steps) ****
    Final optimized geometry and variables:
    Molecular point group: c1

    Geometry (in Angstrom), charge = 0, multiplicity = 1:

    H            0.842195350593     3.167473740755     0.487589495021
    O            1.590258644555     2.613865051618     0.351243036859
    C            1.226820480775     1.334317701579     0.153439649793
    C            2.236719864448     0.408756985454    -0.066905249240
    C           -0.090772028451     0.928642744093     0.162209601690
    H            3.254254437716     0.745981446643    -0.072595280913
    C            1.924886200800    -0.915405773645    -0.273620455031
    H           -0.890245694727     1.621983109783     0.322008621506
    C           -0.366396074793    -0.408582029313    -0.043233188558
    H            2.711961107152    -1.622935447360    -0.445879990962
    C            0.609309663409    -1.348051398960    -0.263334911464
    N           -1.770572793886    -0.832761013656    -0.036665222030
    H            0.352107292036    -2.373043599613    -0.418642142466
    O           -1.991667349309    -1.996472128371    -0.041792282826
    O           -2.600338671128     0.014906155826    -0.020654114509

  Mulliken Charges: (a.u.)
   Center  Symbol    Alpha    Beta     Spin     Total
       1     H     0.38410  0.38410  0.00000  0.23179
       2     O     4.16864  4.16864  0.00000 -0.33728
       3     C     2.84378  2.84378  0.00000  0.31244
       4     C     3.09752  3.09752  0.00000 -0.19504
       5     C     3.13415  3.13415  0.00000 -0.26831
       6     H     0.41315  0.41315  0.00000  0.17369
       7     C     3.05666  3.05666  0.00000 -0.11333
       8     H     0.40788  0.40788  0.00000  0.18424
       9     C     2.97904  2.97904  0.00000  0.04192
      10     H     0.41597  0.41597  0.00000  0.16807
      11     C     3.09609  3.09609  0.00000 -0.19218
      12     N     3.25101  3.25101  0.00000  0.49798
      13     H     0.40004  0.40004  0.00000  0.19991
      14     O     4.17407  4.17407  0.00000 -0.34815
      15     O     4.17788  4.17788  0.00000 -0.35576

   Total alpha = 36.00000, Total beta = 36.00000, Total charge = -0.00000

*** Psi4 exiting successfully. Buy a developer a beer!
