                              Psi4 1.0.54 Driver

  ==> Input File <==

--------------------------------------------------------------------------
set {
	reference rhf
	basis cc-pvtz
}

set_num_threads( 4 )
memory 2 gb

molecule MOL {
0 1

O	 0.729829	 2.073823	 -0.272783
C	 -0.290338	 2.358117	 -0.801459
C	 -1.547378	 1.526877	 -0.782642
O	 -0.461047	 3.471985	 -1.494663
C	 -1.413045	 0.229353	 0.001137
H	 -2.338081	 2.150320	 -0.378182
H	 -1.821069	 1.335840	 -1.815143
C	 -2.702562	 -0.586401	 0.000228
H	 -1.122205	 0.455402	 1.020869
H	 -0.605225	 -0.360144	 -0.417750
C	 -3.953810	 0.284959	 -0.000782
H	 -2.717793	 -1.238567	 -0.869075
H	 -2.719108	 -1.238472	 0.869576
H	 -3.983727	 0.924403	 -0.876454
H	 -4.852989	 -0.320147	 -0.001515
H	 -3.985140	 0.924399	 0.874841
C	 0.642310	 4.349402	 -1.594975
H	 0.950206	 4.688272	 -0.616919
H	 0.306116	 5.183625	 -2.189040
H	 1.475830	 3.860373	 -2.076968

	symmetry c1
}
set optking {
	frozen_dihedral = ("
		9 5 8 12
	")
}

ee,wfn = optimize('scf', return_wfn=True)
oeprop( wfn, 'DIPOLE', 'QUADRUPOLE', 'MULLIKEN_CHARGES')
f=open( 'psi4out.xyz', 'w' )
f.write( "20  " )
f.write( str(ee) + "\n" )
f.write( MOL.save_string_xyz() )
f.close()
--------------------------------------------------------------------------

    Molecular point group: c1
  Charge       = 0
  Multiplicity = 1
  Basis Set: CC-PVTZ
  Basis Set:
  @DF-RHF Final Energy:  -384.07546003793539
    Total Energy =                       -384.0754600379352723
    Molecular point group: c1
  Basis Set: CC-PVTZ
  Basis Set:
  Basis Set: CC-PVTZ
  Basis Set:
  @DF-RHF Final Energy:  -384.07456914344948
    Total Energy =                       -384.0745691434500486
  Basis Set: CC-PVTZ
  Basis Set:
  Basis Set: CC-PVTZ
  Basis Set:
  @DF-RHF Final Energy:  -384.07841554293515
    Total Energy =                       -384.0784155429350903
  Basis Set: CC-PVTZ
  Basis Set:
  Basis Set: CC-PVTZ
  Basis Set:
  @DF-RHF Final Energy:  -384.07847337511453
    Total Energy =                       -384.0784733751142994
  Basis Set: CC-PVTZ
  Basis Set:
  Basis Set: CC-PVTZ
  Basis Set:
  @DF-RHF Final Energy:  -384.07836399685311
    Total Energy =                       -384.0783639968533407
  Basis Set: CC-PVTZ
  Basis Set:
  Basis Set: CC-PVTZ
  Basis Set:
  @DF-RHF Final Energy:  -384.07864151500991
    Total Energy =                       -384.0786415150093944
  Basis Set: CC-PVTZ
  Basis Set:
  Basis Set: CC-PVTZ
  Basis Set:
  @DF-RHF Final Energy:  -384.07864258446762
    Total Energy =                       -384.0786425844673886
  Basis Set: CC-PVTZ
  Basis Set:
  Charge       = 0
  Multiplicity = 1
  Basis Set: CC-PVTZ
  Basis Set:

    Orbital Energies (a.u.)
    -----------------------

    Doubly Occupied:

       1A    -20.596214     2A    -20.534139     3A    -11.364605
       4A    -11.278426     5A    -11.233644     6A    -11.218461
       7A    -11.217212     8A    -11.211515     9A     -1.472184
      10A     -1.365783    11A     -1.088628    12A     -1.023159
      13A     -0.968572    14A     -0.898777    15A     -0.799553
      16A     -0.763936    17A     -0.703894    18A     -0.686051
      19A     -0.675521    20A     -0.638917    21A     -0.608607
      22A     -0.593673    23A     -0.569592    24A     -0.549885
      25A     -0.540287    26A     -0.524128    27A     -0.512398
      28A     -0.474510    29A     -0.471878    30A     -0.465063
      31A     -0.457002    32A     -0.441132

  @DF-RHF Final Energy:  -384.07864272872274

   => Energetics <=

    Nuclear Repulsion Energy =            385.8698484724157538
    One-Electron Energy =               -1288.0022919050661585
    Two-Electron Energy =                 518.0538007039273225
    DFT Exchange-Correlation Energy =       0.0000000000000000
    Empirical Dispersion Energy =           0.0000000000000000
    PCM Polarization Energy =               0.0000000000000000
    EFP Energy =                            0.0000000000000000
    Total Energy =                       -384.0786427287231390
    Molecular point group: c1
  Basis Set: CC-PVTZ
  Basis Set:

  -Total Gradient:
     Atom            X                  Y                   Z
    ------   -----------------  -----------------  -----------------
       1       -0.000008299547     0.000010990827    -0.000001036742
       2        0.000000590397    -0.000011553844    -0.000000044717
       3       -0.000003863841     0.000009506127     0.000000748809
       4        0.000007072077    -0.000007485545     0.000000958176
       5       -0.003631810384     0.004541485223     0.000583225467
       6       -0.000000074260     0.000000930276     0.000001663390
       7       -0.000004427007     0.000002711178    -0.000000454004
       8       -0.002747018070     0.003635335980    -0.003466399305
       9        0.003485702921    -0.004391076925     0.000055200595
      10       -0.000005942367    -0.000003129564    -0.000003179127
      11        0.000002100240     0.000002230318    -0.000019444341
      12        0.002911157798    -0.003810597691     0.002837777149
      13       -0.000002929585     0.000013129488     0.000002144864
      14       -0.000000076016     0.000002309596     0.000000206584
      15        0.000002479259     0.000002751575    -0.000005367629
      16       -0.000002949520    -0.000000618680     0.000011010820
      17       -0.000004814496     0.000004089697     0.000003971309
      18        0.000001096773     0.000001388518    -0.000000242661
      19        0.000001864565    -0.000000668283     0.000000382269
      20        0.000000141060    -0.000001728271    -0.000001120909

  **** Optimization is complete! (in 8 steps) ****
    Final optimized geometry and variables:
    Molecular point group: c1

    Geometry (in Angstrom), charge = 0, multiplicity = 1:

    O            1.821390705804     0.415669918489     0.357715795436
    C            0.798330238807     0.677629912581    -0.176662878773
    C           -0.445141807179    -0.174769442608    -0.160117282461
    O            0.609815808343     1.785142657237    -0.875853390248
    C           -0.280620970435    -1.463511598523     0.631693084244
    H           -1.244561286908     0.443528210392     0.229940524434
    H           -0.705542181623    -0.378569982984    -1.194014737706
    C           -1.481469127858    -2.419572681277     0.579848455591
    H           -0.024288404877    -1.245772124586     1.662080692481
    H            0.585536928976    -1.989859532023     0.247728025026
    C           -2.861149272991    -1.778950145050     0.691883984194
    H           -1.417243902568    -3.034575521918    -0.313055194129
    H           -1.364944809558    -3.122143015864     1.399615301836
    H           -3.089722443245    -1.147589580158    -0.158542414675
    H           -3.629465617965    -2.541217157343     0.745647443343
    H           -2.939960634077    -1.170509699306     1.587335212815
    C            1.696879637135     2.682587294143    -0.975365991925
    H            1.993620753270     3.032159553647     0.002380409900
    H            1.348026154435     3.507373946770    -1.575305312447
    H            2.541843654457     2.206975325957    -1.450852491190

  Mulliken Charges: (a.u.)
   Center  Symbol    Alpha    Beta     Spin     Total
       1     O     4.19641  4.19641  0.00000 -0.39283
       2     C     2.80910  2.80910  0.00000  0.38181
       3     C     3.10085  3.10085  0.00000 -0.20170
       4     O     4.14669  4.14669  0.00000 -0.29338
       5     C     3.09039  3.09039  0.00000 -0.18078
       6     H     0.43741  0.43741  0.00000  0.12518
       7     H     0.43893  0.43893  0.00000  0.12215
       8     C     3.09205  3.09205  0.00000 -0.18410
       9     H     0.44473  0.44473  0.00000  0.11053
      10     H     0.44342  0.44342  0.00000  0.11317
      11     C     3.15783  3.15783  0.00000 -0.31567
      12     H     0.45157  0.45157  0.00000  0.09685
      13     H     0.44904  0.44904  0.00000  0.10193
      14     H     0.45308  0.45308  0.00000  0.09383
      15     H     0.44395  0.44395  0.00000  0.11211
      16     H     0.45264  0.45264  0.00000  0.09472
      17     C     3.03802  3.03802  0.00000 -0.07604
      18     H     0.45439  0.45439  0.00000  0.09122
      19     H     0.44521  0.44521  0.00000  0.10958
      20     H     0.45429  0.45429  0.00000  0.09141

   Total alpha = 32.00000, Total beta = 32.00000, Total charge =  0.00000

*** Psi4 exiting successfully. Buy a developer a beer!
