                              Psi4 1.0.54 Driver

  ==> Input File <==

--------------------------------------------------------------------------
set {
	reference rhf
	basis cc-pvtz
}

set_num_threads( 4 )
memory 2 gb

molecule MOL {
0 1

H	 3.273419	 0.176595	 -0.102789
N	 2.433987	 -0.362316	 -0.080024
C	 1.263552	 0.494993	 0.021953
H	 2.497638	 -0.973615	 0.707122
C	 -0.016533	 -0.325589	 -0.026925
H	 1.280915	 1.180773	 -0.818522
H	 1.263064	 1.106893	 0.925038
C	 -1.280353	 0.525521	 0.047747
H	 -0.016686	 -0.912532	 -0.939714
H	 -0.014099	 -1.037598	 0.796369
C	 -2.220904	 0.301833	 -1.131795
H	 -1.003763	 1.575541	 0.091579
H	 -1.808149	 0.311236	 0.973159
H	 -1.733155	 0.539935	 -2.071016
H	 -3.106050	 0.922382	 -1.051878
H	 -2.545483	 -0.732211	 -1.182600

	symmetry c1
}
set optking {
	frozen_dihedral = ("
		12 8 5 9
	")
}

ee,wfn = optimize('scf', return_wfn=True)
oeprop( wfn, 'DIPOLE', 'QUADRUPOLE', 'MULLIKEN_CHARGES')
f=open( 'psi4out.xyz', 'w' )
f.write( "16  " )
f.write( str(ee) + "\n" )
f.write( MOL.save_string_xyz() )
f.close()
--------------------------------------------------------------------------

    Molecular point group: c1
  Charge       = 0
  Multiplicity = 1
  Basis Set: CC-PVTZ
  Basis Set:
  @DF-RHF Final Energy:  -212.39489289412609
    Total Energy =                       -212.3948928941258600
    Molecular point group: c1
  Basis Set: CC-PVTZ
  Basis Set:
  Basis Set: CC-PVTZ
  Basis Set:
  @DF-RHF Final Energy:  -212.39511280639164
    Total Energy =                       -212.3951128063918077
  Basis Set: CC-PVTZ
  Basis Set:
  Basis Set: CC-PVTZ
  Basis Set:
  @DF-RHF Final Energy:  -212.39516646977611
    Total Energy =                       -212.3951664697758588
  Basis Set: CC-PVTZ
  Basis Set:
  Charge       = 0
  Multiplicity = 1
  Basis Set: CC-PVTZ
  Basis Set:

    Orbital Energies (a.u.)
    -----------------------

    Doubly Occupied:

       1A    -15.526627     2A    -11.238760     3A    -11.212780
       4A    -11.207659     5A    -11.205774     6A     -1.178592
       7A     -1.057846     8A     -0.959136     9A     -0.846363
      10A     -0.791708    11A     -0.663745    12A     -0.626158
      13A     -0.619901    14A     -0.581445    15A     -0.557176
      16A     -0.527908    17A     -0.501987    18A     -0.471585
      19A     -0.463600    20A     -0.455605    21A     -0.384164

  @DF-RHF Final Energy:  -212.39516689140004

   => Energetics <=

    Nuclear Repulsion Energy =            186.8917340712280293
    One-Electron Energy =                -656.4167661547240868
    Two-Electron Energy =                 257.1298651920960197
    DFT Exchange-Correlation Energy =       0.0000000000000000
    Empirical Dispersion Energy =           0.0000000000000000
    PCM Polarization Energy =               0.0000000000000000
    EFP Energy =                            0.0000000000000000
    Total Energy =                       -212.3951668914000379
    Molecular point group: c1
  Basis Set: CC-PVTZ
  Basis Set:

  -Total Gradient:
     Atom            X                  Y                   Z
    ------   -----------------  -----------------  -----------------
       1        0.000038490206    -0.000010604522    -0.000001047160
       2        0.000065641781    -0.000020289120    -0.000030698911
       3       -0.000042608117    -0.000006307904     0.000046204139
       4       -0.000001270036     0.000006837422     0.000004924361
       5        0.000514827350     0.000924789043    -0.000349781899
       6       -0.000008358113    -0.000009565009     0.000006261501
       7       -0.000008400537     0.000005377922    -0.000008466215
       8       -0.000121393248    -0.000149945328    -0.001083608883
       9       -0.000454276123    -0.000710939842     0.000464415376
      10        0.000015045183     0.000011822148    -0.000001654854
      11       -0.000023600404     0.000000879145    -0.000001256972
      12        0.000025014328    -0.000047624161     0.000948107702
      13       -0.000007923664    -0.000001467892    -0.000011123338
      14        0.000008003563     0.000001787258     0.000013018392
      15       -0.000007992406     0.000004320230     0.000003777735
      16        0.000008800232     0.000000930610     0.000000929025

  **** Optimization is complete! (in 4 steps) ****
    Final optimized geometry and variables:
    Molecular point group: c1

    Geometry (in Angstrom), charge = 0, multiplicity = 1:

    H            3.211863129819     0.054018951179     0.139516684745
    N            2.372663867796    -0.485622558299     0.154632436921
    C            1.200848172575     0.368169626347     0.256553047919
    H            2.433199433570    -1.103259226913     0.937101410574
    C           -0.079108711580    -0.453484523228     0.202191249718
    H            1.216427600621     1.057263788011    -0.581650930572
    H            1.194947672033     0.977686426674     1.161453390954
    C           -1.357260249126     0.404975372434     0.272168567019
    H           -0.068566151457    -1.044501814149    -0.706490693236
    H           -0.068221595586    -1.168338952774     1.020432666867
    C           -2.306441813596     0.180256193958    -0.900898381041
    H           -1.088618822461     1.456380981045     0.315283649011
    H           -1.886484969813     0.203003000791     1.197179585156
    H           -1.822939885608     0.414740716199    -1.843450354023
    H           -3.190807624821     0.801939848711    -0.816903519061
    H           -2.630708415354    -0.853945935561    -0.947000709524

  Mulliken Charges: (a.u.)
   Center  Symbol    Alpha    Beta     Spin     Total
       1     H     0.43021  0.43021  0.00000  0.13958
       2     N     3.69005  3.69005  0.00000 -0.38010
       3     C     3.02504  3.02504  0.00000 -0.05008
       4     H     0.43077  0.43077  0.00000  0.13847
       5     C     3.08671  3.08671  0.00000 -0.17343
       6     H     0.45688  0.45688  0.00000  0.08624
       7     H     0.46782  0.46782  0.00000  0.06436
       8     C     3.09377  3.09377  0.00000 -0.18753
       9     H     0.44932  0.44932  0.00000  0.10136
      10     H     0.45646  0.45646  0.00000  0.08708
      11     C     3.14620  3.14620  0.00000 -0.29239
      12     H     0.45597  0.45597  0.00000  0.08805
      13     H     0.45149  0.45149  0.00000  0.09703
      14     H     0.45468  0.45468  0.00000  0.09064
      15     H     0.45045  0.45045  0.00000  0.09910
      16     H     0.45419  0.45419  0.00000  0.09162

   Total alpha = 21.00000, Total beta = 21.00000, Total charge = -0.00000

*** Psi4 exiting successfully. Buy a developer a beer!
