                              Psi4 1.0.54 Driver

  ==> Input File <==

--------------------------------------------------------------------------
set {
	reference rhf
	basis cc-pvtz
}

set_num_threads( 4 )
memory 2 gb

molecule MOL {
0 1

O	 0.979430	 1.678404	 0.496439
C	 0.432185	 1.213482	 1.437412
C	 -0.843496	 0.411770	 1.400516
O	 0.883379	 1.342115	 2.674446
C	 -1.413045	 0.229353	 0.001137
H	 -0.634526	 -0.545106	 1.867635
H	 -1.554085	 0.909491	 2.052281
C	 -2.702562	 -0.586401	 0.000228
H	 -0.672627	 -0.253439	 -0.626744
H	 -1.593675	 1.202391	 -0.441710
C	 -3.953810	 0.284959	 -0.000782
H	 -2.717793	 -1.238567	 -0.869075
H	 -2.719108	 -1.238472	 0.869576
H	 -3.983727	 0.924403	 -0.876454
H	 -4.852989	 -0.320147	 -0.001515
H	 -3.985140	 0.924399	 0.874841
C	 2.078344	 2.074406	 2.856456
H	 2.894392	 1.611693	 2.321489
H	 2.275007	 2.064463	 3.916216
H	 1.959973	 3.089946	 2.508763

	symmetry c1
}
set optking {
	frozen_dihedral = ("
		9 5 8 12
	")
}

ee,wfn = optimize('scf', return_wfn=True)
oeprop( wfn, 'DIPOLE', 'QUADRUPOLE', 'MULLIKEN_CHARGES')
f=open( 'psi4out.xyz', 'w' )
f.write( "20  " )
f.write( str(ee) + "\n" )
f.write( MOL.save_string_xyz() )
f.close()
--------------------------------------------------------------------------

    Molecular point group: c1
  Charge       = 0
  Multiplicity = 1
  Basis Set: CC-PVTZ
  Basis Set:
  @DF-RHF Final Energy:  -384.07892035539334
    Total Energy =                       -384.0789203553935067
    Molecular point group: c1
  Basis Set: CC-PVTZ
  Basis Set:
  Basis Set: CC-PVTZ
  Basis Set:
  @DF-RHF Final Energy:  -384.07922125943270
    Total Energy =                       -384.0792212594326429
  Basis Set: CC-PVTZ
  Basis Set:
  Basis Set: CC-PVTZ
  Basis Set:
  @DF-RHF Final Energy:  -384.07901488760001
    Total Energy =                       -384.0790148876003514
  Basis Set: CC-PVTZ
  Basis Set:
  Basis Set: CC-PVTZ
  Basis Set:
  @DF-RHF Final Energy:  -384.07929499992872
    Total Energy =                       -384.0792949999289476
  Basis Set: CC-PVTZ
  Basis Set:
  Basis Set: CC-PVTZ
  Basis Set:
  @DF-RHF Final Energy:  -384.07929857813122
    Total Energy =                       -384.0792985781313291
  Basis Set: CC-PVTZ
  Basis Set:
  Charge       = 0
  Multiplicity = 1
  Basis Set: CC-PVTZ
  Basis Set:

    Orbital Energies (a.u.)
    -----------------------

    Doubly Occupied:

       1A    -20.596450     2A    -20.534332     3A    -11.364694
       4A    -11.278585     5A    -11.234405     6A    -11.218228
       7A    -11.217051     8A    -11.210562     9A     -1.472362
      10A     -1.365952    11A     -1.088940    12A     -1.024252
      13A     -0.969350    14A     -0.890832    15A     -0.803524
      16A     -0.768718    17A     -0.703111    18A     -0.685884
      19A     -0.676547    20A     -0.632637    21A     -0.610828
      22A     -0.596721    23A     -0.573774    24A     -0.547200
      25A     -0.527973    26A     -0.525111    27A     -0.515408
      28A     -0.475007    29A     -0.474056    30A     -0.466740
      31A     -0.458649    32A     -0.440103

  @DF-RHF Final Energy:  -384.07929867454322

   => Energetics <=

    Nuclear Repulsion Energy =            384.0787967063457700
    One-Electron Energy =               -1284.4202198004845741
    Two-Electron Energy =                 516.2621244195959207
    DFT Exchange-Correlation Energy =       0.0000000000000000
    Empirical Dispersion Energy =           0.0000000000000000
    PCM Polarization Energy =               0.0000000000000000
    EFP Energy =                            0.0000000000000000
    Total Energy =                       -384.0792986745428834
    Molecular point group: c1
  Basis Set: CC-PVTZ
  Basis Set:

  -Total Gradient:
     Atom            X                  Y                   Z
    ------   -----------------  -----------------  -----------------
       1        0.000012313129     0.000004204729     0.000027927561
       2       -0.000009493056    -0.000014018719    -0.000006002447
       3       -0.000009682769    -0.000002279599     0.000001478489
       4        0.000012342771     0.000015503835    -0.000019525891
       5        0.001696086151    -0.003016337317     0.003933784883
       6       -0.000001668287    -0.000001141314    -0.000003605332
       7       -0.000000212587    -0.000007812169    -0.000011477654
       8       -0.002121204061     0.003718413758    -0.002981574372
       9       -0.001097019647     0.001925350920    -0.002796871360
      10       -0.000007325919    -0.000003728215     0.000000574799
      11       -0.000005258767     0.000009811798    -0.000001986949
      12        0.001505228026    -0.002618392536     0.001850346341
      13        0.000006357229     0.000004578632     0.000004993495
      14        0.000002563388    -0.000005513434     0.000003871247
      15        0.000007681415     0.000000376600     0.000002961737
      16        0.000006356118    -0.000009075808    -0.000009022510
      17        0.000002192132    -0.000001324602     0.000005575759
      18       -0.000002016901    -0.000000871952    -0.000001220127
      19        0.000005307434     0.000003556652     0.000001195251
      20       -0.000002545799    -0.000001301259    -0.000001422916

  **** Optimization is complete! (in 6 steps) ****
    Final optimized geometry and variables:
    Molecular point group: c1

    Geometry (in Angstrom), charge = 0, multiplicity = 1:

    O            1.516214331609     0.830424183488    -0.629072196272
    C            0.975357449146     0.353677937491     0.309644782505
    C           -0.289890801996    -0.464516737681     0.269531035289
    O            1.425858779027     0.481085335040     1.547129320991
    C           -0.854523918716    -0.653919409317    -1.131136336133
    H           -0.069102119256    -1.419357155076     0.734688277715
    H           -1.006758666073     0.023043766735     0.921972391014
    C           -2.183669923448    -1.425329750016    -1.143584165319
    H           -0.124645405823    -1.149224382367    -1.758858599568
    H           -0.997214717520     0.319625475191    -1.586542614740
    C           -3.416218565849    -0.528042593979    -1.100998733043
    H           -2.221371866485    -2.065888495286    -2.017586509675
    H           -2.212317098157    -2.106347872772    -0.296655908357
    H           -3.462336743359     0.109924813638    -1.976643112797
    H           -4.327338301063    -1.114261281358    -1.067975143579
    H           -3.407800317597     0.114671994661    -0.226663503302
    C            2.612086222956     1.226612341866     1.732270097538
    H            3.433205355144     0.776524960878     1.194295138874
    H            2.809683309961     1.213440641067     2.791828446122
    H            2.481346990941     2.242491561202     1.390028435260

  Mulliken Charges: (a.u.)
   Center  Symbol    Alpha    Beta     Spin     Total
       1     O     4.19664  4.19664  0.00000 -0.39328
       2     C     2.80637  2.80637  0.00000  0.38726
       3     C     3.09923  3.09923  0.00000 -0.19845
       4     O     4.14711  4.14711  0.00000 -0.29421
       5     C     3.08947  3.08947  0.00000 -0.17895
       6     H     0.43954  0.43954  0.00000  0.12092
       7     H     0.44007  0.44007  0.00000  0.11987
       8     C     3.09324  3.09324  0.00000 -0.18648
       9     H     0.44098  0.44098  0.00000  0.11804
      10     H     0.44810  0.44810  0.00000  0.10379
      11     C     3.14667  3.14667  0.00000 -0.29333
      12     H     0.44554  0.44554  0.00000  0.10891
      13     H     0.45793  0.45793  0.00000  0.08413
      14     H     0.45288  0.45288  0.00000  0.09425
      15     H     0.44818  0.44818  0.00000  0.10363
      16     H     0.45644  0.45644  0.00000  0.08711
      17     C     3.03772  3.03772  0.00000 -0.07543
      18     H     0.45430  0.45430  0.00000  0.09139
      19     H     0.44529  0.44529  0.00000  0.10942
      20     H     0.45429  0.45429  0.00000  0.09142

   Total alpha = 32.00000, Total beta = 32.00000, Total charge =  0.00000

*** Psi4 exiting successfully. Buy a developer a beer!
