  ==> Input File <==

--------------------------------------------------------------------------
set {
	reference rhf
	basis cc-pvtz
}

set_num_threads( 4 )
memory 2 gb

molecule MOL {
0 1

H	 -0.385154	 2.517267	 0.205262
C	 0.388763	 1.946466	 0.735255
C	 0.692262	 0.592428	 0.156232
O	 0.912925	 2.406185	 1.690005
C	 -0.554654	 -0.292621	 0.086567
H	 1.470014	 0.131616	 0.750866
H	 1.081213	 0.747642	 -0.848011
C	 -1.846385	 0.513195	 -0.016346
H	 -0.473986	 -0.956115	 -0.769708
H	 -0.597929	 -0.929215	 0.966651
C	 -3.089953	 -0.365049	 -0.098564
H	 -1.798267	 1.154820	 -0.891143
H	 -1.925398	 1.173265	 0.842889
H	 -3.055079	 -1.012299	 -0.968245
H	 -3.988403	 0.236438	 -0.170014
H	 -3.183055	 -0.995885	 0.779079

	symmetry c1
}
set optking {
	frozen_dihedral = ("
		6 3 5 9
	")
}

ee = optimize('scf')
oeprop('DIPOLE', 'QUADRUPOLE', 'MULLIKEN_CHARGES')
f=open( 'psi4out.xyz', 'w' )
f.write( "16  " )
f.write( str(ee) + "\n" )
f.write( MOL.save_string_xyz() )
f.close()
--------------------------------------------------------------------------

    Molecular point group: c1
  Charge       = 0
  Multiplicity = 1
  Basis Set: CC-PVTZ
  Basis Set:
  @DF-RHF Final Energy:  -270.10978731554377
    Total Energy =                       -270.1097873155434854
    Molecular point group: c1
  Basis Set: CC-PVTZ
  Basis Set:
  Basis Set: CC-PVTZ
  Basis Set:
  @DF-RHF Final Energy:  -270.11041274334741
    Total Energy =                       -270.1104127433475242
  Basis Set: CC-PVTZ
  Basis Set:
  Basis Set: CC-PVTZ
  Basis Set:
  @DF-RHF Final Energy:  -270.11243629762635
    Total Energy =                       -270.1124362976260613
  Basis Set: CC-PVTZ
  Basis Set:
  Basis Set: CC-PVTZ
  Basis Set:
  @DF-RHF Final Energy:  -270.11184807989866
    Total Energy =                       -270.1118480798987775
  Basis Set: CC-PVTZ
  Basis Set:
  @DF-RHF Final Energy:  -270.11273773364462
    Total Energy =                       -270.1127377336446216
  @DF-RHF Final Energy:  -270.11303830958218
    Total Energy =                       -270.1130383095819525
  Basis Set: CC-PVTZ
  Basis Set:
  @DF-RHF Final Energy:  -270.11305403109236
    Total Energy =                       -270.1130540310921333
  Basis Set: CC-PVTZ
  Basis Set:
  Basis Set: CC-PVTZ
  Basis Set:
  @DF-RHF Final Energy:  -270.11307579326387
    Total Energy =                       -270.1130757932637039
  Basis Set: CC-PVTZ
  Basis Set:
  Basis Set: CC-PVTZ
  Basis Set:
  @DF-RHF Final Energy:  -270.11307789568821
    Total Energy =                       -270.1130778956880931
  Basis Set: CC-PVTZ
  Basis Set:
  Charge       = 0
  Multiplicity = 1
  Basis Set: CC-PVTZ
  Basis Set:

    Orbital Energies (a.u.)
    -----------------------

    Doubly Occupied:

       1A    -20.550856     2A    -11.319854     3A    -11.234374
       4A    -11.233542     5A    -11.228330     6A    -11.216868
       7A     -1.405516     8A     -1.094965     9A     -1.016695
      10A     -0.905771    11A     -0.833872    12A     -0.771550
      13A     -0.683618    14A     -0.648245    15A     -0.625626
      16A     -0.604041    17A     -0.581803    18A     -0.561662
      19A     -0.527228    20A     -0.516160    21A     -0.492624
      22A     -0.477820    23A     -0.471541    24A     -0.409348

  @DF-RHF Final Energy:  -270.11307800262159

   => Energetics <=

    Nuclear Repulsion Energy =            234.3908716741342744
    One-Electron Energy =                -830.1840824004856358
    Two-Electron Energy =                 325.6801327237297983
    DFT Exchange-Correlation Energy =       0.0000000000000000
    Empirical Dispersion Energy =           0.0000000000000000
    PCM Polarization Energy =               0.0000000000000000
    EFP Energy =                            0.0000000000000000
    Total Energy =                       -270.1130780026215916
    Molecular point group: c1
  Basis Set: CC-PVTZ
  Basis Set:

  -Total Gradient:
     Atom            X                  Y                   Z
    ------   -----------------  -----------------  -----------------
       1       -0.000005952881     0.000002195913    -0.000004704716
       2        0.000016328465    -0.000005041555     0.000023357863
       3        0.001578946555    -0.002230373058    -0.005736870447
       4       -0.000010644397    -0.000004362909    -0.000021116032
       5        0.002359147310    -0.003540812575     0.004467763688
       6       -0.001665470149     0.002384428364     0.004134042899
       7       -0.000003707082     0.000005229027    -0.000000041161
       8       -0.000002018610    -0.000004009445     0.000016775831
       9       -0.002260557236     0.003375740760    -0.002879424430
      10        0.000002285773     0.000008919571     0.000004315243
      11        0.000002878955     0.000006842468    -0.000010046457
      12       -0.000004827274    -0.000007557526     0.000005319044
      13       -0.000003984922     0.000007294382    -0.000000072828
      14        0.000000161279    -0.000000967227     0.000002285554
      15       -0.000005400517    -0.000001540474    -0.000002494328
      16        0.000002814733     0.000004014286     0.000000910279

  **** Optimization is complete! (in 10 steps) ****
    Final optimized geometry and variables:
    Molecular point group: c1

    Geometry (in Angstrom), charge = 0, multiplicity = 1:

    H            0.535931781106     1.917892499838    -0.307893032215
    C            1.093052865895     1.190120919948     0.291741823235
    C            1.287591589517    -0.171428985241    -0.327604430553
    O            1.508224586863     1.499877392721     1.355555362997
    C            0.009172475536    -1.040182052498    -0.341375804121
    H            2.055777486000    -0.653897449799     0.260986806542
    H            1.648440746428    -0.022680240100    -1.340322454527
    C           -1.311771255837    -0.277617979915    -0.472142966024
    H            0.072020063333    -1.715592789669    -1.187394167201
    H           -0.019440577879    -1.641997767538     0.558846681999
    C           -2.509775757502    -1.217014646753    -0.559325660453
    H           -1.287063200672     0.352416914628    -1.357386527658
    H           -1.445785229577     0.386637135872     0.375956414645
    H           -2.433698504487    -1.870047795043    -1.422141682637
    H           -3.436198512090    -0.661670940900    -0.644802137949
    H           -2.579237924971    -1.842988442245     0.323736151924

  Mulliken Charges: (a.u.)
   Center  Symbol    Alpha    Beta     Spin     Total
       1     H     0.46038  0.46038  0.00000  0.07924
       2     C     2.90645  2.90645  0.00000  0.18710
       3     C     3.08919  3.08919  0.00000 -0.17838
       4     O     4.16684  4.16684  0.00000 -0.33368
       5     C     3.09424  3.09424  0.00000 -0.18848
       6     H     0.44026  0.44026  0.00000  0.11948
       7     H     0.44852  0.44852  0.00000  0.10297
       8     C     3.09914  3.09914  0.00000 -0.19829
       9     H     0.44994  0.44994  0.00000  0.10011
      10     H     0.44487  0.44487  0.00000  0.11027
      11     C     3.14929  3.14929  0.00000 -0.29858
      12     H     0.45076  0.45076  0.00000  0.09847
      13     H     0.44674  0.44674  0.00000  0.10653
      14     H     0.45424  0.45424  0.00000  0.09151
      15     H     0.44637  0.44637  0.00000  0.10726
      16     H     0.45277  0.45277  0.00000  0.09447

   Total alpha = 24.00000, Total beta = 24.00000, Total charge = -0.00000
