                              Psi4 1.0.54 Driver

  ==> Input File <==

--------------------------------------------------------------------------
set {
	reference rhf
	basis cc-pvtz
}

set_num_threads( 4 )
memory 2 gb

molecule MOL {
0 1

H	 1.035417	 -2.455695	 2.159020
O	 0.924156	 -2.084637	 1.296655
C	 -0.075881	 -1.209084	 1.340854
C	 -0.318151	 -0.570512	 0.000144
O	 -0.676110	 -0.988920	 2.335450
C	 -1.454884	 0.441630	 -0.000560
H	 0.616159	 -0.113897	 -0.310432
H	 -0.504102	 -1.372305	 -0.707281
C	 -2.822577	 -0.232186	 0.000063
H	 -1.359760	 1.084704	 -0.867077
H	 -1.359641	 1.085996	 0.864983
H	 -2.954352	 -0.858985	 -0.875745
H	 -3.615886	 0.505352	 0.000019
H	 -2.953878	 -0.858359	 0.876394

	symmetry c1
}
set optking {
	frozen_dihedral = ("
		7 4 6 10
	")
}

ee,wfn = optimize('scf', return_wfn=True)
oeprop( wfn, 'DIPOLE', 'QUADRUPOLE', 'MULLIKEN_CHARGES')
f=open( 'psi4out.xyz', 'w' )
f.write( "14  " )
f.write( str(ee) + "\n" )
f.write( MOL.save_string_xyz() )
f.close()
--------------------------------------------------------------------------

    Molecular point group: c1
  Charge       = 0
  Multiplicity = 1
  Basis Set: CC-PVTZ
  Basis Set:
  @DF-RHF Final Energy:  -305.99985584776584
    Total Energy =                       -305.9998558477660140
    Molecular point group: c1
  Basis Set: CC-PVTZ
  Basis Set:
  Basis Set: CC-PVTZ
  Basis Set:
  @DF-RHF Final Energy:  -306.00006895801414
    Total Energy =                       -306.0000689580142534
  Basis Set: CC-PVTZ
  Basis Set:
  Basis Set: CC-PVTZ
  Basis Set:
  @DF-RHF Final Energy:  -305.99924016329987
    Total Energy =                       -305.9992401632999872
  Basis Set: CC-PVTZ
  Basis Set:
  Basis Set: CC-PVTZ
  Basis Set:
  @DF-RHF Final Energy:  -306.00014283002662
    Total Energy =                       -306.0001428300269026
  Basis Set: CC-PVTZ
  Basis Set:
  @DF-RHF Final Energy:  -306.00015943482731
    Total Energy =                       -306.0001594348271965
  Basis Set: CC-PVTZ
  Basis Set:
  @DF-RHF Final Energy:  -306.00016555043260
    Total Energy =                       -306.0001655504327118
  Basis Set: CC-PVTZ
  Basis Set:
  Basis Set: CC-PVTZ
  Basis Set:
  @DF-RHF Final Energy:  -306.00016828045591
    Total Energy =                       -306.0001682804559096
  Basis Set: CC-PVTZ
  Basis Set:
  Basis Set: CC-PVTZ
  Basis Set:
  @DF-RHF Final Energy:  -306.00016955832280
    Total Energy =                       -306.0001695583227956
  Basis Set: CC-PVTZ
  Basis Set:
  Charge       = 0
  Multiplicity = 1
  Basis Set: CC-PVTZ
  Basis Set:

    Orbital Energies (a.u.)
    -----------------------

    Doubly Occupied:

       1A    -20.605146     2A    -20.541706     3A    -11.374870
       4A    -11.239894     5A    -11.223909     6A    -11.209570
       7A     -1.478886     8A     -1.370281     9A     -1.082671
      10A     -0.977731    11A     -0.862622    12A     -0.789444
      13A     -0.706228    14A     -0.695868    15A     -0.661978
      16A     -0.613279    17A     -0.598242    18A     -0.567645
      19A     -0.558765    20A     -0.496572    21A     -0.491446
      22A     -0.486442    23A     -0.481339    24A     -0.447187

  @DF-RHF Final Energy:  -306.00016968421642

   => Energetics <=

    Nuclear Repulsion Energy =            244.4786324641486601
    One-Electron Energy =                -901.8341722770103388
    Two-Electron Energy =                 351.3553701286454043
    DFT Exchange-Correlation Energy =       0.0000000000000000
    Empirical Dispersion Energy =           0.0000000000000000
    PCM Polarization Energy =               0.0000000000000000
    EFP Energy =                            0.0000000000000000
    Total Energy =                       -306.0001696842163028
    Molecular point group: c1
  Basis Set: CC-PVTZ
  Basis Set:

  -Total Gradient:
     Atom            X                  Y                   Z
    ------   -----------------  -----------------  -----------------
       1       -0.000002517502     0.000002099582     0.000000005762
       2        0.000002305918     0.000001527694    -0.000009297890
       3       -0.000009198255     0.000005550389     0.000018297274
       4        0.000580156561     0.000680164854     0.002108319475
       5        0.000004801549    -0.000001860094    -0.000009940672
       6       -0.001130792266    -0.001318509275    -0.001426294162
       7       -0.000307761953    -0.000363138496    -0.001531199567
       8       -0.000000237537    -0.000003263999    -0.000000682295
       9       -0.000005420314    -0.000001848697    -0.000005599265
      10        0.000869903489     0.000998592775     0.000853823697
      11       -0.000000028895     0.000001017997     0.000000335820
      12        0.000000489781    -0.000000274517     0.000002116311
      13       -0.000001514579    -0.000000311623    -0.000000133316
      14       -0.000000185996     0.000000253409     0.000000248833

  **** Optimization is complete! (in 9 steps) ****
    Final optimized geometry and variables:
    Molecular point group: c1

    Geometry (in Angstrom), charge = 0, multiplicity = 1:

    H            1.710581160551    -1.724560212306     1.262522229837
    O            1.573164229846    -1.362183129682     0.400185134431
    C            0.655771890329    -0.403868243704     0.487958698730
    C            0.399735230823     0.245198180772    -0.846415180322
    O            0.140690600119    -0.119075403080     1.513701702339
    C           -0.751282396981     1.245885667759    -0.848669090435
    H            1.329542751923     0.717556896249    -1.145992755252
    H            0.235199736018    -0.548168594167    -1.567706569109
    C           -2.129175897702     0.592656239191    -0.861492344227
    H           -0.639780169356     1.887585404399    -1.715863264754
    H           -0.661403582540     1.885746082800     0.020198360703
    H           -2.260984349170    -0.024584700724    -1.744480742705
    H           -2.910015476214     1.343799531776    -0.864759935291
    H           -2.273878957213    -0.030672827552     0.011988844444

  Mulliken Charges: (a.u.)
   Center  Symbol    Alpha    Beta     Spin     Total
       1     H     0.38221  0.38221  0.00000  0.23558
       2     O     4.15963  4.15963  0.00000 -0.31925
       3     C     2.80420  2.80420  0.00000  0.39159
       4     C     3.11200  3.11200  0.00000 -0.22399
       5     O     4.19250  4.19250  0.00000 -0.38501
       6     C     3.08494  3.08494  0.00000 -0.16988
       7     H     0.43189  0.43189  0.00000  0.13622
       8     H     0.43843  0.43843  0.00000  0.12313
       9     C     3.15073  3.15073  0.00000 -0.30146
      10     H     0.44719  0.44719  0.00000  0.10563
      11     H     0.44529  0.44529  0.00000  0.10941
      12     H     0.45767  0.45767  0.00000  0.08465
      13     H     0.44759  0.44759  0.00000  0.10481
      14     H     0.44571  0.44571  0.00000  0.10857

   Total alpha = 24.00000, Total beta = 24.00000, Total charge =  0.00000

*** Psi4 exiting successfully. Buy a developer a beer!
