                              Psi4 1.0.54 Driver

  ==> Input File <==

--------------------------------------------------------------------------
set {
	reference rhf
	basis cc-pvtz
}

set_num_threads( 4 )
memory 2 gb

molecule MOL {
0 1

O	 -2.817697	 1.304178	 0.001046
C	 -2.664672	 0.129869	 0.003507
C	 -3.797908	 -0.860100	 -0.001145
O	 -1.481217	 -0.452708	 0.001092
H	 -4.408836	 -0.679689	 -0.875387
H	 -3.443486	 -1.878443	 -0.002770
H	 -4.412123	 -0.683688	 0.871605
C	 -0.332055	 0.384012	 -0.000250
C	 0.892252	 -0.506059	 -0.000295
H	 -0.360822	 1.020205	 -0.874146
H	 -0.359817	 1.021310	 0.872861
C	 2.188199	 0.299473	 -0.001416
H	 0.857046	 -1.152781	 -0.871031
H	 0.857910	 -1.151798	 0.871202
C	 3.437151	 -0.577593	 -0.000991
H	 2.209565	 0.950707	 -0.871712
H	 2.210062	 0.952234	 0.867721
C	 3.473536	 -1.565090	 1.160273
H	 4.319124	 0.055495	 0.036147
H	 3.492441	 -1.122144	 -0.939337
H	 3.454161	 -1.048603	 2.114060
H	 4.371285	 -2.171480	 1.131210
H	 2.620885	 -2.235161	 1.131195

	symmetry c1
}
set optking {
	frozen_dihedral = ("
		19 15 12 16
	")
}

ee,wfn = optimize('scf', return_wfn=True)
oeprop( wfn, 'DIPOLE', 'QUADRUPOLE', 'MULLIKEN_CHARGES')
f=open( 'psi4out.xyz', 'w' )
f.write( "23  " )
f.write( str(ee) + "\n" )
f.write( MOL.save_string_xyz() )
f.close()
--------------------------------------------------------------------------

    Molecular point group: c1
  Charge       = 0
  Multiplicity = 1
  Basis Set: CC-PVTZ
  Basis Set:
  @DF-RHF Final Energy:  -423.13178629484980
    Total Energy =                       -423.1317862948499169
    Molecular point group: c1
  Basis Set: CC-PVTZ
  Basis Set:
  Basis Set: CC-PVTZ
  Basis Set:
  @DF-RHF Final Energy:  -423.13112313054819
    Total Energy =                       -423.1311231305479623
  Basis Set: CC-PVTZ
  Basis Set:
  Basis Set: CC-PVTZ
  Basis Set:
  @DF-RHF Final Energy:  -423.13256895029355
    Total Energy =                       -423.1325689502939440
  Basis Set: CC-PVTZ
  Basis Set:
  Basis Set: CC-PVTZ
  Basis Set:
  @DF-RHF Final Energy:  -423.13159746944001
    Total Energy =                       -423.1315974694400666
  Basis Set: CC-PVTZ
  Basis Set:
  Basis Set: CC-PVTZ
  Basis Set:
  @DF-RHF Final Energy:  -423.13285048551199
    Total Energy =                       -423.1328504855117671
  Basis Set: CC-PVTZ
  Basis Set:
  Basis Set: CC-PVTZ
  Basis Set:
  @DF-RHF Final Energy:  -423.13288619558472
    Total Energy =                       -423.1328861955850016
  Basis Set: CC-PVTZ
  Basis Set:
  Basis Set: CC-PVTZ
  Basis Set:
  @DF-RHF Final Energy:  -423.13288930845300
    Total Energy =                       -423.1328893084529454
  Basis Set: CC-PVTZ
  Basis Set:
  Charge       = 0
  Multiplicity = 1
  Basis Set: CC-PVTZ
  Basis Set:

    Orbital Energies (a.u.)
    -----------------------

    Doubly Occupied:

       1A    -20.595855     2A    -20.529454     3A    -11.366341
       4A    -11.279338     5A    -11.230630     6A    -11.222067
       7A    -11.221403     8A    -11.219953     9A    -11.210827
      10A     -1.471098    11A     -1.363933    12A     -1.095160
      13A     -1.041958    14A     -1.002532    15A     -0.931901
      16A     -0.855622    17A     -0.792820    18A     -0.772221
      19A     -0.694116    20A     -0.688071    21A     -0.673176
      22A     -0.639113    23A     -0.616127    24A     -0.601194
      25A     -0.576890    26A     -0.571774    27A     -0.548564
      28A     -0.538872    29A     -0.526560    30A     -0.508804
      31A     -0.497983    32A     -0.471417    33A     -0.467912
      34A     -0.467005    35A     -0.455174    36A     -0.438752

  @DF-RHF Final Energy:  -423.13288943438153

   => Energetics <=

    Nuclear Repulsion Energy =            455.2382353089961384
    One-Electron Energy =               -1478.3730191436566201
    Two-Electron Energy =                 600.0018944002789567
    DFT Exchange-Correlation Energy =       0.0000000000000000
    Empirical Dispersion Energy =           0.0000000000000000
    PCM Polarization Energy =               0.0000000000000000
    EFP Energy =                            0.0000000000000000
    Total Energy =                       -423.1328894343815819
    Molecular point group: c1
  Basis Set: CC-PVTZ
  Basis Set:

  -Total Gradient:
     Atom            X                  Y                   Z
    ------   -----------------  -----------------  -----------------
       1       -0.000034800911     0.000018102533    -0.000005160327
       2        0.000070711233    -0.000044661210     0.000005798447
       3       -0.000007504286     0.000021048735     0.000004396031
       4       -0.000040013893     0.000010542054    -0.000010697162
       5        0.000009857420    -0.000001200485     0.000012204213
       6       -0.000000162759     0.000003170710    -0.000000340513
       7        0.000009782871    -0.000000850611    -0.000013038154
       8        0.000016128844     0.000015275753     0.000027043933
       9       -0.000002276303    -0.000011916504    -0.000021789510
      10       -0.000006998129    -0.000008112902    -0.000000273442
      11       -0.000005307699    -0.000004680316    -0.000006716827
      12        0.000938448888     0.001458216653     0.001730457742
      13       -0.000000493829    -0.000005990231     0.000002012709
      14        0.000002801575     0.000005679190    -0.000003538833
      15       -0.000130948765    -0.000018731375    -0.002436988387
      16       -0.000780235926    -0.001234045859    -0.001080622964
      17        0.000002580567     0.000004261022    -0.000000457403
      18        0.000001431773     0.000007187176     0.000000609459
      19       -0.000041315977    -0.000220498632     0.001803659053
      20       -0.000002112238     0.000001443097    -0.000002510136
      21       -0.000000607640    -0.000006094398    -0.000005401467
      22       -0.000004146289     0.000002552064     0.000003340908
      23        0.000005181464     0.000009303538    -0.000001987368

  **** Optimization is complete! (in 8 steps) ****
    Final optimized geometry and variables:
    Molecular point group: c1

    Geometry (in Angstrom), charge = 0, multiplicity = 1:

    O           -2.739213181894     1.402957732573    -0.261380906128
    C           -2.541263893996     0.235311870083    -0.261420214869
    C           -3.633404194651    -0.796789796050    -0.343151798889
    O           -1.338765848254    -0.301723450839    -0.189758065577
    H           -4.195034201239    -0.631866724686    -1.252835532068
    H           -3.240889715799    -1.801006463944    -0.329112596650
    H           -4.307129770147    -0.651315754197     0.490566457420
    C           -0.225280885390     0.577915397322    -0.108375089774
    C            1.030165638747    -0.265017565068    -0.036108392044
    H           -0.222063795460     1.223044615757    -0.976117385700
    H           -0.333767251761     1.203519052035     0.767137923568
    C            2.284238074161     0.600797547079     0.076527504235
    H            1.087849464887    -0.887442476616    -0.924016545797
    H            0.948013146350    -0.933693850274     0.812195268290
    C            3.600280177770    -0.176779332350     0.012808255927
    H            2.275970916586     1.321460932725    -0.736572846092
    H            2.247273033542     1.171813372068     1.000572596900
    C            3.761176866168    -1.251711704030     1.085683345454
    H            4.415780995309     0.531652107218     0.118329421269
    H            3.704857809783    -0.628591865106    -0.969331034478
    H            3.631753891272    -0.834406116969     2.079346496901
    H            4.751095914115    -1.690571784033     1.039892313843
    H            3.044227022992    -2.054977071394     0.967972596803

  Mulliken Charges: (a.u.)
   Center  Symbol    Alpha    Beta     Spin     Total
       1     O     4.20241  4.20241  0.00000 -0.40481
       2     C     2.81529  2.81529  0.00000  0.36943
       3     C     3.13993  3.13993  0.00000 -0.27985
       4     O     4.14479  4.14479  0.00000 -0.28958
       5     H     0.44211  0.44211  0.00000  0.11578
       6     H     0.44191  0.44191  0.00000  0.11617
       7     H     0.44212  0.44212  0.00000  0.11577
       8     C     2.97875  2.97875  0.00000  0.04249
       9     C     3.08597  3.08597  0.00000 -0.17195
      10     H     0.45301  0.45301  0.00000  0.09398
      11     H     0.45417  0.45417  0.00000  0.09166
      12     C     3.10496  3.10496  0.00000 -0.20992
      13     H     0.45048  0.45048  0.00000  0.09904
      14     H     0.44878  0.44878  0.00000  0.10244
      15     C     3.09042  3.09042  0.00000 -0.18085
      16     H     0.44811  0.44811  0.00000  0.10377
      17     H     0.45069  0.45069  0.00000  0.09861
      18     C     3.15480  3.15480  0.00000 -0.30960
      19     H     0.44762  0.44762  0.00000  0.10476
      20     H     0.45245  0.45245  0.00000  0.09509
      21     H     0.45387  0.45387  0.00000  0.09225
      22     H     0.44507  0.44507  0.00000  0.10987
      23     H     0.45228  0.45228  0.00000  0.09544

   Total alpha = 36.00000, Total beta = 36.00000, Total charge = -0.00000

*** Psi4 exiting successfully. Buy a developer a beer!
