                              Psi4 1.0.54 Driver

  ==> Input File <==

--------------------------------------------------------------------------
set {
	reference rhf
	basis cc-pvtz
}

set_num_threads( 4 )
memory 2 gb

molecule MOL {
0 1

H	 -1.752232	 -2.214755	 -0.011938
C	 -1.343852	 -1.221619	 -0.018179
N	 -0.058800	 -1.097635	 -0.261688
C	 -2.148159	 -0.124236	 0.219734
C	 0.449026	 0.119242	 -0.273393
H	 -3.196988	 -0.237571	 0.417076
N	 -1.655094	 1.094230	 0.209506
C	 -0.370318	 1.215445	 -0.035100
C	 1.924033	 0.265863	 -0.538106
H	 0.033214	 2.210441	 -0.046812
C	 2.473268	 1.618136	 -0.080777
H	 2.441758	 -0.528535	 -0.014030
H	 2.114464	 0.130394	 -1.596216
H	 3.541070	 1.672656	 -0.256163
H	 2.294056	 1.764264	 0.976346
H	 2.002317	 2.432925	 -0.619171

	symmetry c1
}
set optking {
	frozen_dihedral = ("
		12 9 5 3
	")
}

ee,wfn = optimize('scf', return_wfn=True)
oeprop( wfn, 'DIPOLE', 'QUADRUPOLE', 'MULLIKEN_CHARGES')
f=open( 'psi4out.xyz', 'w' )
f.write( "16  " )
f.write( str(ee) + "\n" )
f.write( MOL.save_string_xyz() )
f.close()
--------------------------------------------------------------------------

    Molecular point group: c1
  Charge       = 0
  Multiplicity = 1
  Basis Set: CC-PVTZ
  Basis Set:
  @DF-RHF Final Energy:  -340.86861490789875
    Total Energy =                       -340.8686149078988592
    Molecular point group: c1
  Basis Set: CC-PVTZ
  Basis Set:
  Basis Set: CC-PVTZ
  Basis Set:
  @DF-RHF Final Energy:  -340.86788514016979
    Total Energy =                       -340.8678851401698466
  Basis Set: CC-PVTZ
  Basis Set:
  Basis Set: CC-PVTZ
  Basis Set:
  @DF-RHF Final Energy:  -340.87005798394705
    Total Energy =                       -340.8700579839472766
  Basis Set: CC-PVTZ
  Basis Set:
  Basis Set: CC-PVTZ
  Basis Set:
  @DF-RHF Final Energy:  -340.87014496955220
    Total Energy =                       -340.8701449695527117
  Basis Set: CC-PVTZ
  Basis Set:
  Basis Set: CC-PVTZ
  Basis Set:
  @DF-RHF Final Energy:  -340.87016396553372
    Total Energy =                       -340.8701639655340045
  Basis Set: CC-PVTZ
  Basis Set:
  Basis Set: CC-PVTZ
  Basis Set:
  @DF-RHF Final Energy:  -340.87018318781134
    Total Energy =                       -340.8701831878110511
  Basis Set: CC-PVTZ
  Basis Set:
  Charge       = 0
  Multiplicity = 1
  Basis Set: CC-PVTZ
  Basis Set:

    Orbital Energies (a.u.)
    -----------------------

    Doubly Occupied:

       1A    -15.579743     2A    -15.574676     3A    -11.279121
       4A    -11.271969     5A    -11.267109     6A    -11.266845
       7A    -11.232130     8A    -11.221606     9A     -1.315194
      10A     -1.222917    11A     -1.086945    12A     -1.016381
      13A     -0.910239    14A     -0.893500    15A     -0.831561
      16A     -0.716794    17A     -0.711504    18A     -0.653187
      19A     -0.630590    20A     -0.611156    21A     -0.572405
      22A     -0.565549    23A     -0.520830    24A     -0.512972
      25A     -0.507825    26A     -0.485668    27A     -0.431268
      28A     -0.396949    29A     -0.346413

  @DF-RHF Final Energy:  -340.87018353888220

   => Energetics <=

    Nuclear Repulsion Energy =            349.9759903016764611
    One-Electron Energy =               -1154.4262575817667766
    Two-Electron Energy =                 463.5800837412080000
    DFT Exchange-Correlation Energy =       0.0000000000000000
    Empirical Dispersion Energy =           0.0000000000000000
    PCM Polarization Energy =               0.0000000000000000
    EFP Energy =                            0.0000000000000000
    Total Energy =                       -340.8701835388823156
    Molecular point group: c1
  Basis Set: CC-PVTZ
  Basis Set:

  -Total Gradient:
     Atom            X                  Y                   Z
    ------   -----------------  -----------------  -----------------
       1        0.000004028390     0.000006297080    -0.000049728238
       2       -0.000153322237     0.000042415526     0.000166831160
       3        0.000219237442     0.000055129919     0.000363105563
       4        0.000020996395    -0.000183874061    -0.000032798183
       5       -0.000103620217    -0.000132237780    -0.000764701278
       6       -0.000002291075     0.000013589101    -0.000012507804
       7        0.000151078133     0.000136327939    -0.000006813591
       8       -0.000209788775     0.000062365887     0.000023953173
       9        0.000058479769     0.000196180589     0.000613137832
      10       -0.000000934052    -0.000019286179     0.000047498711
      11        0.000051423404     0.000021798028     0.000016252361
      12       -0.000011588570    -0.000183490234    -0.000343029949
      13       -0.000007614207     0.000005903326    -0.000011414709
      14       -0.000067513328     0.000015957093     0.000015492736
      15        0.000012418026     0.000005647251    -0.000056048055
      16        0.000039010905    -0.000042723486     0.000030770270

  **** Optimization is complete! (in 7 steps) ****
    Final optimized geometry and variables:
    Molecular point group: c1

    Geometry (in Angstrom), charge = 0, multiplicity = 1:

    H           -1.603117846710    -2.521216071648    -0.308171782767
    C           -1.247744524705    -1.518737750323    -0.160141915784
    N            0.036377255812    -1.302919077218    -0.324449912239
    C           -2.115765613306    -0.503535696207     0.191630322365
    C            0.486413632293    -0.074874449263    -0.145564011218
    H           -3.164390222493    -0.689536101157     0.324278432152
    N           -1.682692906726     0.722112862953     0.377494670035
    C           -0.395773148366     0.936600742537     0.212286158652
    C            1.965710086502     0.136479569714    -0.365053412179
    H           -0.053560211647     1.939364578673     0.370595586331
    C            2.559234713552     1.421259225320     0.201745804522
    H            2.473017927588    -0.723472563303     0.053446642247
    H            2.148567708906     0.094704335600    -1.434699336416
    H            3.630046790861     1.430803595712     0.042344493562
    H            2.382309635549     1.506031557954     1.267836392772
    H            2.153368261814     2.303952813925    -0.277553407072

  Mulliken Charges: (a.u.)
   Center  Symbol    Alpha    Beta     Spin     Total
       1     H     0.41376  0.41376  0.00000  0.17249
       2     C     3.04245  3.04245  0.00000 -0.08490
       3     N     3.59399  3.59399  0.00000 -0.18799
       4     C     3.04859  3.04859  0.00000 -0.09718
       5     C     2.95486  2.95486  0.00000  0.09029
       6     H     0.41416  0.41416  0.00000  0.17168
       7     N     3.58849  3.58849  0.00000 -0.17697
       8     C     3.07501  3.07501  0.00000 -0.15002
       9     C     3.06187  3.06187  0.00000 -0.12375
      10     H     0.41235  0.41235  0.00000  0.17529
      11     C     3.16265  3.16265  0.00000 -0.32529
      12     H     0.44291  0.44291  0.00000  0.11418
      13     H     0.44559  0.44559  0.00000  0.10881
      14     H     0.44276  0.44276  0.00000  0.11448
      15     H     0.44757  0.44757  0.00000  0.10485
      16     H     0.45299  0.45299  0.00000  0.09402

   Total alpha = 29.00000, Total beta = 29.00000, Total charge =  0.00000

*** Psi4 exiting successfully. Buy a developer a beer!
