  ==> Input File <==

--------------------------------------------------------------------------
set {
	reference rhf
	basis 6-31G*
}

set_num_threads( 4 )
memory 2 gb

molecule MOL {
0 1

O	 -2.439739	 -0.935931	 -0.423848
C	 -1.921153	 0.064240	 -0.045697
C	 -2.624470	 1.379923	 0.150949
O	 -0.632575	 0.154573	 0.251549
H	 -2.168117	 2.136577	 -0.476876
H	 -3.669540	 1.273223	 -0.098610
H	 -2.519365	 1.700893	 1.180846
C	 0.160891	 -1.019931	 0.106212
C	 1.589627	 -0.672828	 0.480843
H	 0.089836	 -1.367806	 -0.916050
H	 -0.238459	 -1.792301	 0.749618
C	 1.722001	 0.048570	 1.823400
H	 1.992087	 -0.045559	 -0.311932
H	 2.181606	 -1.584278	 0.489726
C	 3.169802	 0.406446	 2.156266
H	 1.120678	 0.955282	 1.803815
H	 1.312250	 -0.577517	 2.609198
H	 3.237202	 0.915692	 3.112383
H	 3.597239	 1.061179	 1.402012
H	 3.790670	 -0.483258	 2.211299

	symmetry c1
}
set optking {
	frozen_dihedral = ("
		12 9 8 10
	")
}

ee = optimize('scf')
oeprop('DIPOLE', 'QUADRUPOLE', 'MULLIKEN_CHARGES')
f=open( 'psi4out.xyz', 'w' )
f.write( "20  " )
f.write( str(ee) + "\n" )
f.write( MOL.save_string_xyz() )
f.close()
--------------------------------------------------------------------------

    Molecular point group: c1
  Charge       = 0
  Multiplicity = 1
  Basis Set: 6-31G*
  Basis Set:
  @DF-RHF Final Energy:  -383.94445373680497
    Total Energy =                       -383.9444537368053716
    Molecular point group: c1
  Basis Set: 6-31G*
  Basis Set:
  Basis Set: 6-31G*
  Basis Set:
  @DF-RHF Final Energy:  -383.94458262759264
    Total Energy =                       -383.9445826275928084
  Basis Set: 6-31G*
  Basis Set:
  Basis Set: 6-31G*
  Basis Set:
  @DF-RHF Final Energy:  -383.94460456519221
    Total Energy =                       -383.9446045651922077
  Basis Set: 6-31G*
  Basis Set:
  Basis Set: 6-31G*
  Basis Set:
  @DF-RHF Final Energy:  -383.94473021472447
    Total Energy =                       -383.9447302147244727
  Basis Set: 6-31G*
  Basis Set:
  Basis Set: 6-31G*
  Basis Set:
  @DF-RHF Final Energy:  -383.94480429770431
    Total Energy =                       -383.9448042977043087
  Basis Set: 6-31G*
  Basis Set:
  Basis Set: 6-31G*
  Basis Set:
  @DF-RHF Final Energy:  -383.94480722989385
    Total Energy =                       -383.9448072298937404
  Basis Set: 6-31G*
  Basis Set:
  Charge       = 0
  Multiplicity = 1
  Basis Set: 6-31G*
  Basis Set:

    Orbital Energies (a.u.)
    -----------------------

    Doubly Occupied:

       1A    -20.601403     2A    -20.543978     3A    -11.374453
       4A    -11.282807     5A    -11.233410     6A    -11.225856
       7A    -11.219802     8A    -11.213039     9A     -1.467770
      10A     -1.362004    11A     -1.085306    12A     -1.027952
      13A     -0.981217    14A     -0.880154    15A     -0.813584
      16A     -0.770441    17A     -0.689507    18A     -0.685865
      19A     -0.666568    20A     -0.632406    21A     -0.599216
      22A     -0.592681    23A     -0.572629    24A     -0.549306
      25A     -0.545123    26A     -0.532392    27A     -0.510950
      28A     -0.484012    29A     -0.473342    30A     -0.470592
      31A     -0.449470    32A     -0.438758

  @DF-RHF Final Energy:  -383.94480783130962

   => Energetics <=

    Nuclear Repulsion Energy =            385.9613424797389598
    One-Electron Energy =               -1287.8603193357366763
    Two-Electron Energy =                 517.9541690246882126
    DFT Exchange-Correlation Energy =       0.0000000000000000
    Empirical Dispersion Energy =           0.0000000000000000
    PCM Polarization Energy =               0.0000000000000000
    EFP Energy =                            0.0000000000000000
    Total Energy =                       -383.9448078313095039
    Molecular point group: c1
  Basis Set: 6-31G*
  Basis Set:

  -Total Gradient:
     Atom            X                  Y                   Z
    ------   -----------------  -----------------  -----------------
       1       -0.000000039851     0.000004730126    -0.000020537244
       2        0.000000059726    -0.000013867640     0.000021114205
       3       -0.000000237841    -0.000000174330     0.000005068786
       4        0.000024400117     0.000020119389    -0.000011205709
       5       -0.000000199229    -0.000002988264    -0.000004239468
       6       -0.000000392397    -0.000000480090     0.000002112699
       7        0.000001715204     0.000004225715    -0.000002398541
       8        0.000663982473    -0.003470296766     0.000929363714
       9        0.000264853574    -0.002470752951     0.001427018157
      10       -0.000632791745     0.003515547240    -0.001114455257
      11       -0.000004711889     0.000000416176     0.000000234768
      12       -0.000306790683     0.002399701981    -0.001229555540
      13        0.000004222207     0.000013564639     0.000009144987
      14       -0.000002245532     0.000004230130    -0.000018916985
      15       -0.000003609457    -0.000015933922     0.000009729414
      16        0.000007061214     0.000004088027     0.000000751468
      17       -0.000014726466     0.000005118018     0.000000136121
      18       -0.000001073716     0.000004010303    -0.000003042165
      19        0.000000420541    -0.000001828184    -0.000002845246
      20        0.000000103757     0.000000570408     0.000002521840

  **** Optimization is complete! (in 7 steps) ****
    Final optimized geometry and variables:
    Molecular point group: c1

    Geometry (in Angstrom), charge = 0, multiplicity = 1:

    O           -2.311201094108    -0.898046121201    -0.955595133319
    C           -1.803978593547     0.118575013091    -0.606613119822
    C           -2.526993284501     1.426369119663    -0.428481755212
    O           -0.514485277588     0.235761907760    -0.324822413568
    H           -2.090436927242     2.177134347663    -1.077068952750
    H           -3.572873839504     1.297244686647    -0.663689579465
    H           -2.415717118410     1.770211266670     0.593405066455
    C            0.296052725527    -0.931271788260    -0.451664147946
    C            1.724547799475    -0.560098554026    -0.090447830480
    H            0.229346882674    -1.268496402051    -1.476918920388
    H           -0.097656105931    -1.702966979869     0.195941668103
    C            1.872706500124     0.151164438036     1.256179225585
    H            2.131765547802     0.074018844144    -0.874168427342
    H            2.310740174963    -1.476453268583    -0.096259805623
    C            3.333703462666     0.426528981981     1.610089118551
    H            1.321373205409     1.083848822638     1.230360895128
    H            1.419379729573    -0.454638621155     2.038567000126
    H            3.414909942304     0.941431496890     2.562139068941
    H            3.808934842339     1.048866043955     0.856937086119
    H            3.903291347319    -0.495659690707     1.683276213659

  Mulliken Charges: (a.u.)
   Center  Symbol    Alpha    Beta     Spin     Total
       1     O     4.28352  4.28352  0.00000 -0.56705
       2     C     2.61904  2.61904  0.00000  0.76193
       3     C     3.28172  3.28172  0.00000 -0.56345
       4     O     4.30929  4.30929  0.00000 -0.61858
       5     H     0.40070  0.40070  0.00000  0.19861
       6     H     0.39687  0.39687  0.00000  0.20626
       7     H     0.40075  0.40075  0.00000  0.19850
       8     C     3.00144  3.00144  0.00000 -0.00288
       9     C     3.16654  3.16654  0.00000 -0.33308
      10     H     0.40810  0.40810  0.00000  0.18379
      11     H     0.41008  0.41008  0.00000  0.17984
      12     C     3.15355  3.15355  0.00000 -0.30710
      13     H     0.41614  0.41614  0.00000  0.16773
      14     H     0.41776  0.41776  0.00000  0.16448
      15     C     3.24072  3.24072  0.00000 -0.48145
      16     H     0.41021  0.41021  0.00000  0.17958
      17     H     0.42316  0.42316  0.00000  0.15369
      18     H     0.41765  0.41765  0.00000  0.16470
      19     H     0.42100  0.42100  0.00000  0.15800
      20     H     0.42176  0.42176  0.00000  0.15648

   Total alpha = 32.00000, Total beta = 32.00000, Total charge =  0.00000
