                              Psi4 1.0.54 Driver

  ==> Input File <==

--------------------------------------------------------------------------
set {
	reference rhf
	basis cc-pvtz
}

set_num_threads( 4 )
memory 2 gb

molecule MOL {
0 1

H	 -2.644180	 -0.653737	 1.272255
C	 -2.092774	 -0.380414	 0.391915
O	 -0.808934	 -0.154049	 0.752536
F	 -2.163230	 -1.351640	 -0.507133
F	 -2.627232	 0.691260	 -0.169301
C	 0.085006	 0.250800	 -0.215074
C	 0.650550	 1.600402	 0.220827
Cl	 -0.705673	 0.403680	 -1.795261
H	 0.906388	 -0.434290	 -0.331820
F	 1.521981	 2.035875	 -0.653240
F	 1.268365	 1.453790	 1.368923
F	 -0.280339	 2.502430	 0.369293

	symmetry c1
}
set optking {
	frozen_dihedral = ("
		9 6 3 2
	")
}

ee,wfn = optimize('scf', return_wfn=True)
oeprop( wfn, 'DIPOLE', 'QUADRUPOLE', 'MULLIKEN_CHARGES')
f=open( 'psi4out.xyz', 'w' )
f.write( "12  " )
f.write( str(ee) + "\n" )
f.write( MOL.save_string_xyz() )
f.close()
--------------------------------------------------------------------------

    Molecular point group: c1
  Charge       = 0
  Multiplicity = 1
  Basis Set: CC-PVTZ
  Basis Set:
  @DF-RHF Final Energy: -1146.59299063860317
    Total Energy =                      -1146.5929906386027142
    Molecular point group: c1
  Basis Set: CC-PVTZ
  Basis Set:
  Basis Set: CC-PVTZ
  Basis Set:
  @DF-RHF Final Energy: -1146.60502141603911
    Total Energy =                      -1146.6050214160395626
  Basis Set: CC-PVTZ
  Basis Set:
  Basis Set: CC-PVTZ
  Basis Set:
  @DF-RHF Final Energy: -1146.60882903421975
    Total Energy =                      -1146.6088290342204346
  Basis Set: CC-PVTZ
  Basis Set:
  Basis Set: CC-PVTZ
  Basis Set:
  @DF-RHF Final Energy: -1146.61004627399279
    Total Energy =                      -1146.6100462739932482
  Basis Set: CC-PVTZ
  Basis Set:
  @DF-RHF Final Energy: -1146.61019939857215
    Total Energy =                      -1146.6101993985721492
  Basis Set: CC-PVTZ
  Basis Set:
  @DF-RHF Final Energy: -1146.61016188671374
    Total Energy =                      -1146.6101618867141951
  Basis Set: CC-PVTZ
  Basis Set:
  Basis Set: CC-PVTZ
  Basis Set:
  @DF-RHF Final Energy: -1146.61022283542115
    Total Energy =                      -1146.6102228354213821
  Basis Set: CC-PVTZ
  Basis Set:
  Basis Set: CC-PVTZ
  Basis Set:
  @DF-RHF Final Energy: -1146.61022656227055
    Total Energy =                      -1146.6102265622703271
  Basis Set: CC-PVTZ
  Basis Set:
  Charge       = 0
  Multiplicity = 1
  Basis Set: CC-PVTZ
  Basis Set:

    Orbital Energies (a.u.)
    -----------------------

    Doubly Occupied:

       1A   -104.861738     2A    -26.353961     3A    -26.352474
       4A    -26.352328     5A    -26.333732     6A    -26.333233
       7A    -20.634079     8A    -11.517895     9A    -11.479258
      10A    -11.402678    11A    -10.587249    12A     -8.054084
      13A     -8.052034    14A     -8.051935    15A     -1.766627
      16A     -1.714916    17A     -1.661932    18A     -1.659860
      19A     -1.636924    20A     -1.476144    21A     -1.181630
      22A     -1.058461    23A     -0.988844    24A     -0.918998
      25A     -0.857607    26A     -0.854684    27A     -0.847424
      28A     -0.828985    29A     -0.811596    30A     -0.776571
      31A     -0.736797    32A     -0.729293    33A     -0.710770
      34A     -0.694937    35A     -0.684711    36A     -0.679520
      37A     -0.663616    38A     -0.662459    39A     -0.654887
      40A     -0.636766    41A     -0.593386    42A     -0.550552
      43A     -0.540607    44A     -0.480287    45A     -0.468268

  @DF-RHF Final Energy: -1146.61022692625147

   => Energetics <=

    Nuclear Repulsion Energy =            747.1464986282529708
    One-Electron Energy =               -3077.7239794209594947
    Two-Electron Energy =                1183.9672538664556214
    DFT Exchange-Correlation Energy =       0.0000000000000000
    Empirical Dispersion Energy =           0.0000000000000000
    PCM Polarization Energy =               0.0000000000000000
    EFP Energy =                            0.0000000000000000
    Total Energy =                      -1146.6102269262507889
    Molecular point group: c1
  Basis Set: CC-PVTZ
  Basis Set:

  -Total Gradient:
     Atom            X                  Y                   Z
    ------   -----------------  -----------------  -----------------
       1       -0.000002698258    -0.000000707275    -0.000009834282
       2       -0.000029591020     0.000183339468     0.000120727233
       3        0.000056561040    -0.000302403448    -0.000025916322
       4       -0.000015545396    -0.000006428977     0.000000791693
       5        0.000030962513    -0.000009091933    -0.000044597635
       6       -0.000142120515     0.000074693853    -0.000218780960
       7        0.000075226586     0.000126337486     0.000106815823
       8        0.000007474732     0.000019992418     0.000021375800
       9        0.000102140356     0.000112364654     0.000170823919
      10       -0.000021452236    -0.000051611909    -0.000044870545
      11       -0.000045660503    -0.000054009916    -0.000046132400
      12       -0.000015297308    -0.000092474426    -0.000030402397

  **** Optimization is complete! (in 9 steps) ****
    Final optimized geometry and variables:
    Molecular point group: c1

    Geometry (in Angstrom), charge = 0, multiplicity = 1:

    H           -1.985300344595    -1.382901217740     1.687280247464
    C           -1.612168667078    -1.100103954468     0.719537137258
    O           -0.293448860421    -0.840000932935     0.871804003989
    F           -1.815504123253    -2.087190622781    -0.136708899962
    F           -2.276703322940    -0.048365630955     0.279609560860
    C            0.598375944071    -0.428750093019    -0.107391949347
    C            1.231555867113     0.874273135118     0.382507252209
    CL          -0.041820256450    -0.204844651055    -1.740814899709
    H            1.377885852421    -1.166722330982    -0.181526246636
    F            2.182979915753     1.255571711165    -0.432280911935
    F            1.769650853490     0.674820600042     1.562528824964
    F            0.358284828703     1.838115440899     0.488920738711

  Mulliken Charges: (a.u.)
   Center  Symbol    Alpha    Beta     Spin     Total
       1     H     0.45148  0.45148  0.00000  0.09703
       2     C     2.73799  2.73799  0.00000  0.52401
       3     O     4.16803  4.16803  0.00000 -0.33606
       4     F     4.61613  4.61613  0.00000 -0.23227
       5     F     4.61309  4.61309  0.00000 -0.22617
       6     C     2.94471  2.94471  0.00000  0.11057
       7     C     2.67322  2.67322  0.00000  0.65356
       8    CL     8.56517  8.56517  0.00000 -0.13034
       9     H     0.42152  0.42152  0.00000  0.15696
      10     F     4.60307  4.60307  0.00000 -0.20613
      11     F     4.60506  4.60506  0.00000 -0.21012
      12     F     4.60052  4.60052  0.00000 -0.20105

   Total alpha = 45.00000, Total beta = 45.00000, Total charge = -0.00000

*** Psi4 exiting successfully. Buy a developer a beer!
