  ==> Input File <==

--------------------------------------------------------------------------
set {
	reference rhf
	basis 6-31G*
}

set_num_threads( 4 )
memory 2 gb

molecule MOL {
0 1

H	 2.603429	 -1.474734	 1.702050
C	 2.000405	 -1.254920	 0.825534
C	 0.864617	 -0.302946	 1.187267
H	 1.598290	 -2.185616	 0.440993
H	 2.659870	 -0.840151	 0.070811
N	 -0.000257	 -0.000071	 0.054619
H	 0.266224	 -0.772304	 1.957985
H	 1.268178	 0.611764	 1.631261
C	 -1.363055	 0.315058	 0.462241
C	 0.567292	 1.013332	 -0.824903
C	 -2.412078	 -0.285320	 -0.468531
H	 -1.482241	 1.391144	 0.451970
H	 -1.549931	 -0.001174	 1.492681
C	 0.104553	 0.867089	 -2.271183
H	 1.645425	 0.916139	 -0.806520
H	 0.347093	 2.020873	 -0.459992
H	 -2.262839	 0.075384	 -1.480151
H	 -2.369300	 -1.368867	 -0.491760
H	 -3.410332	 -0.003975	 -0.144961
H	 0.375979	 -0.111069	 -2.652195
H	 -0.969764	 0.977340	 -2.372374
H	 0.571458	 1.623261	 -2.896106

	symmetry c1
}
set optking {
	frozen_dihedral = ("
		3 6 9 11
	")
}

ee = optimize('scf')
oeprop('DIPOLE', 'QUADRUPOLE', 'MULLIKEN_CHARGES')
f=open( 'psi4out.xyz', 'w' )
f.write( "22  " )
f.write( str(ee) + "\n" )
f.write( MOL.save_string_xyz() )
f.close()
--------------------------------------------------------------------------

    Molecular point group: c1
  Charge       = 0
  Multiplicity = 1
  Basis Set: 6-31G*
  Basis Set:
  @DF-RHF Final Energy:  -290.36406583146527
    Total Energy =                       -290.3640658314652683
    Molecular point group: c1
  Basis Set: 6-31G*
  Basis Set:
  Basis Set: 6-31G*
  Basis Set:
  @DF-RHF Final Energy:  -290.36689345553202
    Total Energy =                       -290.3668934555324768
  Basis Set: 6-31G*
  Basis Set:
  Basis Set: 6-31G*
  Basis Set:
  @DF-RHF Final Energy:  -290.36730927185931
    Total Energy =                       -290.3673092718596536
  Basis Set: 6-31G*
  Basis Set:
  Basis Set: 6-31G*
  Basis Set:
  @DF-RHF Final Energy:  -290.36764869587165
    Total Energy =                       -290.3676486958712530
  Basis Set: 6-31G*
  Basis Set:
  @DF-RHF Final Energy:  -290.36781398353679
    Total Energy =                       -290.3678139835370757
  @DF-RHF Final Energy:  -290.36788226520252
    Total Energy =                       -290.3678822652022404
  @DF-RHF Final Energy:  -290.36791558859346
    Total Energy =                       -290.3679155885929504
  @DF-RHF Final Energy:  -290.36792636077223
    Total Energy =                       -290.3679263607729126
  @DF-RHF Final Energy:  -290.36793260206485
    Total Energy =                       -290.3679326020648546
  @DF-RHF Final Energy:  -290.36793712514896
    Total Energy =                       -290.3679371251489556
  @DF-RHF Final Energy:  -290.36790061856311
    Total Energy =                       -290.3679006185631692
  Basis Set: 6-31G*
  Basis Set:
  @DF-RHF Final Energy:  -290.36794143115839
    Total Energy =                       -290.3679414311590108
  Basis Set: 6-31G*
  Basis Set:
  Basis Set: 6-31G*
  Basis Set:
  @DF-RHF Final Energy:  -290.36794581523981
    Total Energy =                       -290.3679458152406596
  Basis Set: 6-31G*
  Basis Set:
  Basis Set: 6-31G*
  Basis Set:
  @DF-RHF Final Energy:  -290.36794711045076
    Total Energy =                       -290.3679471104508139
  Basis Set: 6-31G*
  Basis Set:
  Charge       = 0
  Multiplicity = 1
  Basis Set: 6-31G*
  Basis Set:

    Orbital Energies (a.u.)
    -----------------------

    Doubly Occupied:

       1A    -15.539176     2A    -11.240953     3A    -11.239931
       4A    -11.239556     5A    -11.207104     6A    -11.206030
       7A    -11.202077     8A     -1.221879     9A     -1.025829
      10A     -1.018950    11A     -0.959029    12A     -0.853907
      13A     -0.834024    14A     -0.773905    15A     -0.659825
      16A     -0.634930    17A     -0.615404    18A     -0.599771
      19A     -0.566958    20A     -0.559078    21A     -0.542068
      22A     -0.524576    23A     -0.518595    24A     -0.496594
      25A     -0.489827    26A     -0.477766    27A     -0.463938
      28A     -0.457655    29A     -0.343449

  @DF-RHF Final Energy:  -290.36794717846163

   => Energetics <=

    Nuclear Repulsion Energy =            337.9176140206520245
    One-Electron Energy =               -1061.5455465319848827
    Two-Electron Energy =                 433.2599853328716790
    DFT Exchange-Correlation Energy =       0.0000000000000000
    Empirical Dispersion Energy =           0.0000000000000000
    PCM Polarization Energy =               0.0000000000000000
    EFP Energy =                            0.0000000000000000
    Total Energy =                       -290.3679471784611223
    Molecular point group: c1
  Basis Set: 6-31G*
  Basis Set:

  -Total Gradient:
     Atom            X                  Y                   Z
    ------   -----------------  -----------------  -----------------
       1        0.000003861060    -0.000002621074     0.000000222649
       2        0.000006673929     0.000000905404     0.000004160397
       3        0.000671786190     0.002362173160    -0.000032682569
       4       -0.000002179132     0.000003761962     0.000000753078
       5        0.000001016644    -0.000001108188    -0.000002224488
       6       -0.000871842299    -0.002487240199    -0.000586087299
       7        0.000002917066     0.000000120032     0.000007774508
       8       -0.000001838621    -0.000003377038    -0.000003275524
       9        0.000048566074    -0.001717043389     0.002124010208
      10       -0.000008551221     0.000009870548    -0.000007316605
      11        0.000136887437     0.001839184614    -0.001505148739
      12        0.000003715606    -0.000000402302     0.000000317153
      13        0.000006376251    -0.000001656388     0.000000846431
      14        0.000007825598     0.000001224228    -0.000004127474
      15       -0.000002164075    -0.000002235600     0.000004560782
      16       -0.000000763124    -0.000002251792     0.000002191322
      17        0.000003794481     0.000001217298    -0.000001048743
      18        0.000000129724    -0.000000231157    -0.000002563811
      19        0.000000633628    -0.000001356478     0.000000363268
      20       -0.000001130260     0.000000782999    -0.000000300835
      21       -0.000005732532     0.000001627228     0.000001932514
      22        0.000000017574    -0.000001343870    -0.000002356220

  **** Optimization is complete! (in 15 steps) ****
    Final optimized geometry and variables:
    Molecular point group: c1

    Geometry (in Angstrom), charge = 0, multiplicity = 1:

    H            2.594294512283    -1.454433450759     2.025212612032
    C            2.112065934246    -1.193126286192     1.087706465732
    C            0.870473532073    -0.349061051751     1.367008370977
    H            1.832974195938    -2.109201596034     0.578735123746
    H            2.848794944602    -0.679253016428     0.481486793757
    N            0.035147794946    -0.124448995961     0.190099583467
    H            0.273613025041    -0.886501479956     2.093803361634
    H            1.162949935228     0.594025319693     1.839893200143
    C           -1.326368817514     0.272693560579     0.551499534919
    C            0.683588508776     0.809930698980    -0.723394993300
    C           -2.407031115459    -0.363006590746    -0.321894197800
    H           -1.431803387145     1.360005384118     0.539357862228
    H           -1.513473421679    -0.031706569659     1.573920753240
    C            0.040355361682     0.934510641810    -2.100822676115
    H            1.699842280473     0.472143931081    -0.872402573355
    H            0.750841305188     1.805480426950    -0.270922869637
    H           -2.338127562487    -0.067525197322    -1.359236881188
    H           -2.329455317887    -1.444199996762    -0.279183775592
    H           -3.391414859968    -0.077952449149     0.040603369096
    H           -0.099291119463    -0.042028057179    -2.550972470310
    H           -0.917393200701     1.439765745667    -2.068796016238
    H            0.689784196112     1.517656961787    -2.747073174876

  Mulliken Charges: (a.u.)
   Center  Symbol    Alpha    Beta     Spin     Total
       1     H     0.42147  0.42147  0.00000  0.15706
       2     C     3.24188  3.24188  0.00000 -0.48376
       3     C     3.05595  3.05595  0.00000 -0.11190
       4     H     0.41349  0.41349  0.00000  0.17302
       5     H     0.42057  0.42057  0.00000  0.15886
       6     N     3.78555  3.78555  0.00000 -0.57110
       7     H     0.41833  0.41833  0.00000  0.16335
       8     H     0.43396  0.43396  0.00000  0.13208
       9     C     3.05907  3.05907  0.00000 -0.11813
      10     C     3.05467  3.05467  0.00000 -0.10933
      11     C     3.23334  3.23334  0.00000 -0.46669
      12     H     0.43010  0.43010  0.00000  0.13980
      13     H     0.42019  0.42019  0.00000  0.15962
      14     C     3.24497  3.24497  0.00000 -0.48994
      15     H     0.41696  0.41696  0.00000  0.16608
      16     H     0.43510  0.43510  0.00000  0.12980
      17     H     0.41748  0.41748  0.00000  0.16504
      18     H     0.41734  0.41734  0.00000  0.16531
      19     H     0.42598  0.42598  0.00000  0.14804
      20     H     0.41358  0.41358  0.00000  0.17283
      21     H     0.41968  0.41968  0.00000  0.16063
      22     H     0.42034  0.42034  0.00000  0.15931

   Total alpha = 29.00000, Total beta = 29.00000, Total charge =  0.00000
