  ==> Input File <==

--------------------------------------------------------------------------
set {
	reference rhf
	basis 6-31G*
}

set_num_threads( 4 )
memory 2 gb

molecule MOL {
0 1

H	 -3.135461	 -1.215070	 0.001379
O	 -2.310168	 -0.871793	 -0.309793
C	 -2.026376	 0.340750	 0.341611
C	 -0.673256	 0.843270	 -0.132153
H	 -2.792215	 1.080697	 0.115987
H	 -2.013526	 0.200402	 1.421792
C	 0.486613	 -0.083066	 0.235839
H	 -0.715586	 0.970948	 -1.210718
H	 -0.508072	 1.829858	 0.297090
C	 0.031984	 -1.342024	 0.976211
H	 1.197593	 0.462969	 0.847286
H	 1.015981	 -0.372292	 -0.671332
C	 1.190447	 -2.270557	 1.338792
H	 -0.496192	 -1.054607	 1.882930
H	 -0.686225	 -1.884154	 0.364072
H	 1.908814	 -1.767515	 1.979718
H	 0.838760	 -3.153103	 1.864503
H	 1.718861	 -2.603808	 0.449842

	symmetry c1
}
set optking {
	frozen_dihedral = ("
		10 7 4 8
	")
}

ee = optimize('scf')
oeprop('DIPOLE', 'QUADRUPOLE', 'MULLIKEN_CHARGES')
f=open( 'psi4out.xyz', 'w' )
f.write( "18  " )
f.write( str(ee) + "\n" )
f.write( MOL.save_string_xyz() )
f.close()
--------------------------------------------------------------------------

    Molecular point group: c1
  Charge       = 0
  Multiplicity = 1
  Basis Set: 6-31G*
  Basis Set:
  @DF-RHF Final Energy:  -271.16105763893461
    Total Energy =                       -271.1610576389347216
    Molecular point group: c1
  Basis Set: 6-31G*
  Basis Set:
  Basis Set: 6-31G*
  Basis Set:
  @DF-RHF Final Energy:  -271.16823943705651
    Total Energy =                       -271.1682394370566840
  Basis Set: 6-31G*
  Basis Set:
  Basis Set: 6-31G*
  Basis Set:
  @DF-RHF Final Energy:  -271.16958342300029
    Total Energy =                       -271.1695834230004039
  Basis Set: 6-31G*
  Basis Set:
  Basis Set: 6-31G*
  Basis Set:
  @DF-RHF Final Energy:  -271.16992139386582
    Total Energy =                       -271.1699213938658204
  Basis Set: 6-31G*
  Basis Set:
  Basis Set: 6-31G*
  Basis Set:
  @DF-RHF Final Energy:  -271.17001606600968
    Total Energy =                       -271.1700160660096799
  Basis Set: 6-31G*
  Basis Set:
  Basis Set: 6-31G*
  Basis Set:
  @DF-RHF Final Energy:  -271.17003741663012
    Total Energy =                       -271.1700374166304073
  Basis Set: 6-31G*
  Basis Set:
  Basis Set: 6-31G*
  Basis Set:
  @DF-RHF Final Energy:  -271.17004187138753
    Total Energy =                       -271.1700418713877525
  Basis Set: 6-31G*
  Basis Set:
  Charge       = 0
  Multiplicity = 1
  Basis Set: 6-31G*
  Basis Set:

    Orbital Energies (a.u.)
    -----------------------

    Doubly Occupied:

       1A    -20.553710     2A    -11.268344     3A    -11.213202
       4A    -11.209687     5A    -11.205105     6A    -11.202499
       7A     -1.360063     8A     -1.069329     9A     -1.005577
      10A     -0.912628    11A     -0.832506    12A     -0.765728
      13A     -0.705036    14A     -0.643345    15A     -0.625134
      16A     -0.580534    17A     -0.563542    18A     -0.551860
      19A     -0.532788    20A     -0.497188    21A     -0.489709
      22A     -0.467316    23A     -0.450334    24A     -0.444806
      25A     -0.425343

  @DF-RHF Final Energy:  -271.17004241307541

   => Energetics <=

    Nuclear Repulsion Energy =            254.7294954140228356
    One-Electron Energy =                -872.6484534317074804
    Two-Electron Energy =                 346.7489156046088965
    DFT Exchange-Correlation Energy =       0.0000000000000000
    Empirical Dispersion Energy =           0.0000000000000000
    PCM Polarization Energy =               0.0000000000000000
    EFP Energy =                            0.0000000000000000
    Total Energy =                       -271.1700424130757483
    Molecular point group: c1
  Basis Set: 6-31G*
  Basis Set:

  -Total Gradient:
     Atom            X                  Y                   Z
    ------   -----------------  -----------------  -----------------
       1       -0.000008669071     0.000011109113    -0.000014174729
       2        0.000020891144    -0.000029408402     0.000042873237
       3        0.000002326784     0.000005819846    -0.000014665184
       4        0.000725278098     0.000782444198    -0.000212667454
       5       -0.000015885762    -0.000006689715    -0.000002909228
       6       -0.000006558085    -0.000010424581    -0.000004079484
       7       -0.000028528125     0.000350765275     0.000895127070
       8       -0.000606441821    -0.000747592396    -0.000053920588
       9        0.000018993106    -0.000008235896     0.000009194613
      10       -0.000088431805    -0.000344066690    -0.000642321334
      11        0.000002146534     0.000007643482    -0.000006574091
      12       -0.000002373077    -0.000005752531     0.000002951381
      13       -0.000009061651     0.000013603922     0.000008132991
      14        0.000010603770     0.000004485108    -0.000002302429
      15       -0.000017091728    -0.000015407732    -0.000009731246
      16        0.000003542694    -0.000003661450     0.000001824692
      17       -0.000000552454    -0.000010865716     0.000002332937
      18       -0.000000188549     0.000006234165     0.000000908846

  **** Optimization is complete! (in 8 steps) ****
    Final optimized geometry and variables:
    Molecular point group: c1

    Geometry (in Angstrom), charge = 0, multiplicity = 1:

    H           -2.780521439206    -0.383826161762    -0.570775866479
    O           -1.913419676667    -0.122398862130    -0.846607620429
    C           -1.491800076523     0.986487094861    -0.091235832068
    C           -0.080492978242     1.368061342714    -0.513809486428
    H           -2.149293482070     1.833958152169    -0.277102244486
    H           -1.539175684550     0.768163492428     0.972691694360
    C            1.082538028869     0.419479766095    -0.110415202136
    H           -0.106265094321     1.471354421352    -1.593571680796
    H            0.115027732758     2.360076185084    -0.115691947872
    C            0.728030973509    -0.858868832999     0.657994674313
    H            1.798808579198     0.981766720602     0.483850077935
    H            1.616141605751     0.129008032106    -1.010893790690
    C            1.969464369821    -1.698550320187     0.960405333302
    H            0.240352855971    -0.606162264953     1.596687569147
    H            0.018868580606    -1.445534080331     0.087494018017
    H            2.687510286856    -1.143010391966     1.557739427451
    H            1.709625252252    -2.598624917774     1.509559645074
    H            2.469093872125    -2.003737277731     0.045144619317

  Mulliken Charges: (a.u.)
   Center  Symbol    Alpha    Beta     Spin     Total
       1     H     0.28099  0.28099  0.00000  0.43803
       2     O     4.36924  4.36924  0.00000 -0.73848
       3     C     3.00139  3.00139  0.00000 -0.00278
       4     C     3.16253  3.16253  0.00000 -0.32506
       5     H     0.42837  0.42837  0.00000  0.14327
       6     H     0.42997  0.42997  0.00000  0.14005
       7     C     3.15393  3.15393  0.00000 -0.30785
       8     H     0.41094  0.41094  0.00000  0.17811
       9     H     0.42165  0.42165  0.00000  0.15669
      10     C     3.15857  3.15857  0.00000 -0.31714
      11     H     0.42403  0.42403  0.00000  0.15194
      12     H     0.41943  0.41943  0.00000  0.16114
      13     C     3.23962  3.23962  0.00000 -0.47924
      14     H     0.42815  0.42815  0.00000  0.14371
      15     H     0.40441  0.40441  0.00000  0.19117
      16     H     0.42415  0.42415  0.00000  0.15170
      17     H     0.42067  0.42067  0.00000  0.15865
      18     H     0.42196  0.42196  0.00000  0.15608

   Total alpha = 25.00000, Total beta = 25.00000, Total charge =  0.00000
