                              Psi4 1.0.54 Driver

  ==> Input File <==

--------------------------------------------------------------------------
set {
	reference rhf
	basis cc-pvtz
}

set_num_threads( 4 )
memory 2 gb

molecule MOL {
0 1

O	 -1.310046	 2.454385	 0.708862
C	 -1.402956	 1.620354	 -0.132085
C	 -0.169361	 1.004691	 -0.762362
C	 -2.746660	 1.116875	 -0.602975
C	 0.376695	 -0.140025	 0.100361
H	 0.578020	 1.783257	 -0.848194
H	 -0.397874	 0.639572	 -1.758020
C	 1.630207	 -0.772146	 -0.501001
H	 0.585065	 0.249368	 1.088887
H	 -0.386444	 -0.905336	 0.219595
C	 2.907848	 -0.545876	 0.309149
H	 1.772784	 -0.391628	 -1.509394
H	 1.468529	 -1.842059	 -0.599744
C	 3.373802	 0.906639	 0.372125
H	 3.699140	 -1.146831	 -0.127906
H	 2.764321	 -0.923458	 1.318191
H	 3.519798	 1.311927	 -0.623875
H	 4.316899	 0.983758	 0.900700
H	 2.661122	 1.540651	 0.885346
H	 -2.904231	 1.428488	 -1.630626
H	 -3.532606	 1.516661	 0.019143
H	 -2.775851	 0.033112	 -0.589024

	symmetry c1
}
set optking {
	frozen_dihedral = ("
		3 5 8 12
	")
}

ee,wfn = optimize('scf', return_wfn=True)
oeprop( wfn, 'DIPOLE', 'QUADRUPOLE', 'MULLIKEN_CHARGES')
f=open( 'psi4out.xyz', 'w' )
f.write( "22  " )
f.write( str(ee) + "\n" )
f.write( MOL.save_string_xyz() )
f.close()
--------------------------------------------------------------------------

    Molecular point group: c1
  Charge       = 0
  Multiplicity = 1
  Basis Set: CC-PVTZ
  Basis Set:
  @DF-RHF Final Energy:  -348.21805389326084
    Total Energy =                       -348.2180538932609579
    Molecular point group: c1
  Basis Set: CC-PVTZ
  Basis Set:
  Basis Set: CC-PVTZ
  Basis Set:
  @DF-RHF Final Energy:  -348.21834674830427
    Total Energy =                       -348.2183467483044410
  Basis Set: CC-PVTZ
  Basis Set:
  Basis Set: CC-PVTZ
  Basis Set:
  @DF-RHF Final Energy:  -348.21837991180308
    Total Energy =                       -348.2183799118027991
  Basis Set: CC-PVTZ
  Basis Set:
  Basis Set: CC-PVTZ
  Basis Set:
  @DF-RHF Final Energy:  -348.21842754996561
    Total Energy =                       -348.2184275499655541
  Basis Set: CC-PVTZ
  Basis Set:
  Basis Set: CC-PVTZ
  Basis Set:
  @DF-RHF Final Energy:  -348.21843629313759
    Total Energy =                       -348.2184362931373016
  Basis Set: CC-PVTZ
  Basis Set:
  Basis Set: CC-PVTZ
  Basis Set:
  @DF-RHF Final Energy:  -348.21843860860923
    Total Energy =                       -348.2184386086090626
  Basis Set: CC-PVTZ
  Basis Set:
  Basis Set: CC-PVTZ
  Basis Set:
  @DF-RHF Final Energy:  -348.21844254859707
    Total Energy =                       -348.2184425485970110
  Basis Set: CC-PVTZ
  Basis Set:
  Charge       = 0
  Multiplicity = 1
  Basis Set: CC-PVTZ
  Basis Set:

    Orbital Energies (a.u.)
    -----------------------

    Doubly Occupied:

       1A    -20.536920     2A    -11.319124     3A    -11.228116
       4A    -11.227492     5A    -11.226880     6A    -11.220080
       7A    -11.217689     8A    -11.207952     9A     -1.396888
      10A     -1.095220    11A     -1.044227    12A     -0.998790
      13A     -0.939989    14A     -0.857182    15A     -0.786565
      16A     -0.735344    17A     -0.659586    18A     -0.651348
      19A     -0.627956    20A     -0.617672    21A     -0.599994
      22A     -0.579881    23A     -0.562495    24A     -0.548645
      25A     -0.532427    26A     -0.515493    27A     -0.506028
      28A     -0.489250    29A     -0.467596    30A     -0.465496
      31A     -0.457452    32A     -0.398088

  @DF-RHF Final Energy:  -348.21844298871105

   => Energetics <=

    Nuclear Repulsion Energy =            378.3615682636394126
    One-Electron Energy =               -1221.7242909369756489
    Two-Electron Energy =                 495.1442796846253032
    DFT Exchange-Correlation Energy =       0.0000000000000000
    Empirical Dispersion Energy =           0.0000000000000000
    PCM Polarization Energy =               0.0000000000000000
    EFP Energy =                            0.0000000000000000
    Total Energy =                       -348.2184429887109900
    Molecular point group: c1
  Basis Set: CC-PVTZ
  Basis Set:

  -Total Gradient:
     Atom            X                  Y                   Z
    ------   -----------------  -----------------  -----------------
       1       -0.000005727072    -0.000020463329     0.000000389575
       2        0.000008974169     0.000039301478    -0.000024350607
       3       -0.000330260269    -0.000407217350    -0.000307354071
       4        0.000007994236    -0.000022020671     0.000018253327
       5        0.000590929099     0.000688051388     0.000518587225
       6       -0.000004067684     0.000005334065     0.000003929534
       7       -0.000001584609    -0.000001330626     0.000000156676
       8       -0.000728831300    -0.000919297962    -0.000518335839
       9        0.000007194794     0.000002045029    -0.000010198535
      10        0.000007273710    -0.000012260516     0.000002165686
      11       -0.000000443583     0.000002118172    -0.000010405994
      12        0.000464178001     0.000633886200     0.000327951310
      13       -0.000018758974    -0.000003666747     0.000011236817
      14        0.000005941146     0.000011284616     0.000007880759
      15       -0.000007696606     0.000006858045    -0.000008640348
      16        0.000009174681    -0.000006272932     0.000001760124
      17        0.000012008508    -0.000002850923     0.000015567595
      18       -0.000019290517     0.000001006420    -0.000000355803
      19       -0.000001613542    -0.000006108449    -0.000019793141
      20       -0.000005648562     0.000001849305    -0.000001323123
      21        0.000008650827    -0.000000678290    -0.000004476965
      22        0.000001603543     0.000010433079    -0.000002644200

  **** Optimization is complete! (in 8 steps) ****
    Final optimized geometry and variables:
    Molecular point group: c1

    Geometry (in Angstrom), charge = 0, multiplicity = 1:

    O           -1.618498888912     1.733840124038     0.803215154664
    C           -1.733237726494     0.916181426460    -0.051206522083
    C           -0.515220546613     0.303253677058    -0.713315834119
    C           -3.089104265507     0.433367676210    -0.508047440913
    C            0.034374615308    -0.864494426735     0.117891838102
    H            0.235129831380     1.078057796652    -0.800784734830
    H           -0.762996064285    -0.044661439102    -1.710430091827
    C            1.305509999794    -1.501297698842    -0.482451326006
    H            0.231560740201    -0.509302509598     1.121938877926
    H           -0.737629913345    -1.621080423297     0.212280108888
    C            2.573936166069    -1.284612584458     0.346065314186
    H            1.473649836130    -1.110963955450    -1.482121340221
    H            1.151550467491    -2.568175410771    -0.597588565482
    C            3.028291817602     0.169866539071     0.433476982326
    H            3.374090587997    -1.877100074489    -0.087002281560
    H            2.415496926268    -1.674612044781     1.347772899261
    H            3.233175975409     0.573092272405    -0.553072722996
    H            3.936587959468     0.254610710843     1.018583216518
    H            2.281006033991     0.800729599084     0.900276688131
    H           -3.262456425374     0.769075261904    -1.525535346250
    H           -3.860376362450     0.825689346470     0.136740789784
    H           -3.127140390884    -0.650127932546    -0.517523527240

  Mulliken Charges: (a.u.)
   Center  Symbol    Alpha    Beta     Spin     Total
       1     O     4.17746  4.17746  0.00000 -0.35492
       2     C     2.85829  2.85829  0.00000  0.28341
       3     C     3.10108  3.10108  0.00000 -0.20215
       4     C     3.15525  3.15525  0.00000 -0.31050
       5     C     3.11927  3.11927  0.00000 -0.23854
       6     H     0.43645  0.43645  0.00000  0.12709
       7     H     0.44633  0.44633  0.00000  0.10734
       8     C     3.10077  3.10077  0.00000 -0.20153
       9     H     0.43836  0.43836  0.00000  0.12327
      10     H     0.44069  0.44069  0.00000  0.11863
      11     C     3.08636  3.08636  0.00000 -0.17272
      12     H     0.45373  0.45373  0.00000  0.09254
      13     H     0.44308  0.44308  0.00000  0.11385
      14     C     3.15806  3.15806  0.00000 -0.31611
      15     H     0.44872  0.44872  0.00000  0.10255
      16     H     0.45359  0.45359  0.00000  0.09282
      17     H     0.45469  0.45469  0.00000  0.09062
      18     H     0.44393  0.44393  0.00000  0.11213
      19     H     0.44837  0.44837  0.00000  0.10325
      20     H     0.44838  0.44838  0.00000  0.10323
      21     H     0.43618  0.43618  0.00000  0.12764
      22     H     0.45096  0.45096  0.00000  0.09809

   Total alpha = 32.00000, Total beta = 32.00000, Total charge = -0.00000

*** Psi4 exiting successfully. Buy a developer a beer!
