  ==> Input File <==

--------------------------------------------------------------------------
set {
	reference rhf
	basis 6-31G*
}

set_num_threads( 4 )
memory 2 gb

molecule MOL {
0 1

O	 1.846825	 1.296220	 0.000415
C	 1.705091	 0.115954	 0.001797
C	 0.381791	 -0.609817	 0.001258
O	 2.721346	 -0.737485	 -0.000216
C	 -0.823008	 0.326187	 0.001381
H	 0.371250	 -1.265087	 -0.865474
H	 0.370908	 -1.265746	 0.867490
C	 -2.149452	 -0.435131	 -0.000098
H	 -0.770201	 0.977095	 -0.865636
H	 -0.771220	 0.975655	 0.869608
C	 -3.368779	 0.488503	 -0.000883
H	 -2.193746	 -1.087250	 -0.871175
H	 -2.195311	 -1.087803	 0.870418
C	 -3.473435	 1.337254	 -1.267343
H	 -3.326036	 1.140588	 0.868657
H	 -4.271432	 -0.108231	 0.109861
H	 -2.599747	 1.971563	 -1.387908
H	 -4.347274	 1.980681	 -1.238068
H	 -3.552200	 0.712750	 -2.152838
C	 4.024888	 -0.184556	 -0.001949
H	 4.179030	 0.422472	 -0.882452
H	 4.701782	 -1.024608	 -0.003642
H	 4.181981	 0.421185	 0.878906

	symmetry c1
}
set optking {
	frozen_dihedral = ("
		15 11 8 12
	")
}

ee = optimize('scf')
oeprop('DIPOLE', 'QUADRUPOLE', 'MULLIKEN_CHARGES')
f=open( 'psi4out.xyz', 'w' )
f.write( "23  " )
f.write( str(ee) + "\n" )
f.write( MOL.save_string_xyz() )
f.close()
--------------------------------------------------------------------------

    Molecular point group: c1
  Charge       = 0
  Multiplicity = 1
  Basis Set: 6-31G*
  Basis Set:
  @DF-RHF Final Energy:  -422.97418210273423
    Total Energy =                       -422.9741821027329252
    Molecular point group: c1
  Basis Set: 6-31G*
  Basis Set:
  Basis Set: 6-31G*
  Basis Set:
  @DF-RHF Final Energy:  -422.97439412208757
    Total Energy =                       -422.9743941220875740
  Basis Set: 6-31G*
  Basis Set:
  Basis Set: 6-31G*
  Basis Set:
  @DF-RHF Final Energy:  -422.97460286646361
    Total Energy =                       -422.9746028664637834
  Basis Set: 6-31G*
  Basis Set:
  Basis Set: 6-31G*
  Basis Set:
  @DF-RHF Final Energy:  -422.97471074012577
    Total Energy =                       -422.9747107401260564
  Basis Set: 6-31G*
  Basis Set:
  @DF-RHF Final Energy:  -422.97475963626562
    Total Energy =                       -422.9747596362662989
  Basis Set: 6-31G*
  Basis Set:
  @DF-RHF Final Energy:  -422.97477363644913
    Total Energy =                       -422.9747736364497541
  Basis Set: 6-31G*
  Basis Set:
  Basis Set: 6-31G*
  Basis Set:
  @DF-RHF Final Energy:  -422.97477847112765
    Total Energy =                       -422.9747784711270242
  Basis Set: 6-31G*
  Basis Set:
  Basis Set: 6-31G*
  Basis Set:
  @DF-RHF Final Energy:  -422.97478053564714
    Total Energy =                       -422.9747805356475965
  Basis Set: 6-31G*
  Basis Set:
  Charge       = 0
  Multiplicity = 1
  Basis Set: 6-31G*
  Basis Set:

    Orbital Energies (a.u.)
    -----------------------

    Doubly Occupied:

       1A    -20.603651     2A    -20.545460     3A    -11.372266
       4A    -11.280865     5A    -11.235523     6A    -11.218894
       7A    -11.218040     8A    -11.216732     9A    -11.208105
      10A     -1.469342    11A     -1.362782    12A     -1.093015
      13A     -1.042113    14A     -0.985269    15A     -0.931318
      16A     -0.855136    17A     -0.784078    18A     -0.767166
      19A     -0.696705    20A     -0.683431    21A     -0.672195
      22A     -0.643494    23A     -0.615059    24A     -0.597428
      25A     -0.588467    26A     -0.561703    27A     -0.533763
      28A     -0.526793    29A     -0.521286    30A     -0.513253
      31A     -0.490406    32A     -0.466117    33A     -0.462384
      34A     -0.459506    35A     -0.454936    36A     -0.435619

  @DF-RHF Final Energy:  -422.97478070964132

   => Energetics <=

    Nuclear Repulsion Energy =            456.9867278761547595
    One-Electron Energy =               -1481.6984151024844323
    Two-Electron Energy =                 601.7369065166881228
    DFT Exchange-Correlation Energy =       0.0000000000000000
    Empirical Dispersion Energy =           0.0000000000000000
    PCM Polarization Energy =               0.0000000000000000
    EFP Energy =                            0.0000000000000000
    Total Energy =                       -422.9747807096414363
    Molecular point group: c1
  Basis Set: 6-31G*
  Basis Set:

  -Total Gradient:
     Atom            X                  Y                   Z
    ------   -----------------  -----------------  -----------------
       1        0.000004270884    -0.000002643356     0.000008239226
       2       -0.000004208981    -0.000001046953     0.000000185759
       3       -0.000003375304    -0.000001284972    -0.000025497899
       4        0.000001097769     0.000004964221    -0.000011126576
       5       -0.000002409690    -0.000000553520     0.000014790228
       6       -0.000000851712    -0.000003550002     0.000010642610
       7       -0.000000236383     0.000003612872     0.000009463778
       8       -0.000030795646    -0.000042632494     0.000011392130
       9       -0.000009103294    -0.000002809093    -0.000001152380
      10        0.000002554286     0.000000261727    -0.000002442584
      11       -0.000022707904    -0.000031613638     0.000045449325
      12        0.000032223801     0.000036731826    -0.000035538210
      13        0.000003770741     0.000007541833     0.000001094533
      14       -0.000002444789    -0.000009727075    -0.000001594089
      15        0.000024955035     0.000047185650    -0.000029256103
      16        0.000000916519     0.000002399723    -0.000008507511
      17        0.000002495749    -0.000006052815     0.000006135453
      18        0.000000083662    -0.000000390165     0.000003725036
      19       -0.000000894442     0.000000418728    -0.000002863467
      20        0.000002141593    -0.000001723268     0.000010115485
      21       -0.000002099996    -0.000000498163    -0.000000898874
      22        0.000001781038     0.000000845474    -0.000001145406
      23        0.000002837056     0.000000563463    -0.000001210462

  **** Optimization is complete! (in 9 steps) ****
    Final optimized geometry and variables:
    Molecular point group: c1

    Geometry (in Angstrom), charge = 0, multiplicity = 1:

    O            1.734560800332     1.101587402519     0.099820429142
    C            1.580908476874    -0.076431758318     0.142652118638
    C            0.250396378629    -0.788934093760     0.150140272297
    O            2.588342853887    -0.938927192393     0.190035657540
    C           -0.944658246763     0.158950488969     0.108140256766
    H            0.242404632720    -1.469679160594    -0.696887503858
    H            0.223769102877    -1.418582888663     1.035220169416
    C           -2.275353045492    -0.597579213623     0.107949131911
    H           -0.863063009549     0.787732952182    -0.770939161711
    H           -0.901579475843     0.826472714120     0.963581913091
    C           -3.514406567001     0.303868883986     0.150888970513
    H           -2.329104246210    -1.237578551916    -0.771699267859
    H           -2.302692646278    -1.262841907203     0.968869627818
    C           -3.713783738718     1.167446155989    -1.095910943094
    H           -3.462039341093     0.943767237407     1.029169237496
    H           -4.391534126498    -0.324312253130     0.284772447796
    H           -2.911501399014     1.885935207271    -1.225262855397
    H           -4.642770439183     1.725534223743    -1.032197124091
    H           -3.758488918130     0.554350723837    -1.992174294005
    C            3.897345681133    -0.398969894539     0.187851519398
    H            4.071525834270     0.171774221707    -0.712942629531
    H            4.565607452222    -1.244930806733     0.229587366834
    H            4.046734484669     0.239032806790     1.047006335281

  Mulliken Charges: (a.u.)
   Center  Symbol    Alpha    Beta     Spin     Total
       1     O     4.28621  4.28621  0.00000 -0.57241
       2     C     2.60518  2.60518  0.00000  0.78965
       3     C     3.20771  3.20771  0.00000 -0.41542
       4     O     4.30721  4.30721  0.00000 -0.61441
       5     C     3.15414  3.15414  0.00000 -0.30829
       6     H     0.40063  0.40063  0.00000  0.19874
       7     H     0.40075  0.40075  0.00000  0.19849
       8     C     3.15516  3.15516  0.00000 -0.31032
       9     H     0.40941  0.40941  0.00000  0.18119
      10     H     0.41252  0.41252  0.00000  0.17495
      11     C     3.15229  3.15229  0.00000 -0.30457
      12     H     0.42413  0.42413  0.00000  0.15174
      13     H     0.42253  0.42253  0.00000  0.15494
      14     C     3.24226  3.24226  0.00000 -0.48451
      15     H     0.42173  0.42173  0.00000  0.15653
      16     H     0.42059  0.42059  0.00000  0.15881
      17     H     0.41724  0.41724  0.00000  0.16552
      18     H     0.41869  0.41869  0.00000  0.16262
      19     H     0.42261  0.42261  0.00000  0.15477
      20     C     3.09244  3.09244  0.00000 -0.18487
      21     H     0.40909  0.40909  0.00000  0.18183
      22     H     0.40842  0.40842  0.00000  0.18317
      23     H     0.40907  0.40907  0.00000  0.18186

   Total alpha = 36.00000, Total beta = 36.00000, Total charge = -0.00000
