  ==> Input File <==

--------------------------------------------------------------------------
set {
	reference rhf
	basis 6-31G*
}

set_num_threads( 4 )
memory 2 gb

molecule MOL {
0 1

H	 -4.526818	 -0.741364	 4.172740
O	 -4.070554	 -0.816668	 4.998103
C	 -3.221933	 -1.936081	 4.969670
C	 -1.990718	 -1.734927	 4.093101
H	 -2.917472	 -2.100711	 5.995279
H	 -3.769727	 -2.821498	 4.649142
C	 -2.308752	 -1.539898	 2.608619
H	 -1.439873	 -0.874659	 4.464418
H	 -1.343524	 -2.602126	 4.213406
C	 -1.050289	 -1.394943	 1.748341
H	 -2.932876	 -0.658565	 2.489939
H	 -2.891652	 -2.387873	 2.248750
C	 -1.309753	 -1.282496	 0.241564
H	 -0.486557	 -0.525717	 2.082255
H	 -0.409867	 -2.256751	 1.923972
C	 -2.037799	 -0.007733	 -0.193645
H	 -0.352893	 -1.328480	 -0.274305
H	 -1.874243	 -2.152013	 -0.091795
C	 -3.489788	 0.042957	 0.286558
H	 -2.017067	 0.064384	 -1.280144
H	 -1.513726	 0.868678	 0.179924
C	 -4.216917	 1.317354	 -0.141063
H	 -4.025645	 -0.823308	 -0.095450
H	 -3.513059	 -0.038752	 1.371301
H	 -4.239342	 1.411634	 -1.223113
H	 -5.243387	 1.322503	 0.212445
H	 -3.726170	 2.201406	 0.256408

	symmetry c1
}
set optking {
	frozen_dihedral = ("
		10 13 16 20
	")
}

ee = optimize('scf')
oeprop('DIPOLE', 'QUADRUPOLE', 'MULLIKEN_CHARGES')
f=open( 'psi4out.xyz', 'w' )
f.write( "27  " )
f.write( str(ee) + "\n" )
f.write( MOL.save_string_xyz() )
f.close()
--------------------------------------------------------------------------

    Molecular point group: c1
  Charge       = 0
  Multiplicity = 1
  Basis Set: 6-31G*
  Basis Set:
  @DF-RHF Final Energy:  -388.26189383141167
    Total Energy =                       -388.2618938314126353
    Molecular point group: c1
  Basis Set: 6-31G*
  Basis Set:
  Basis Set: 6-31G*
  Basis Set:
  @DF-RHF Final Energy:  -388.27352358742451
    Total Energy =                       -388.2735235874238242
  Basis Set: 6-31G*
  Basis Set:
  Basis Set: 6-31G*
  Basis Set:
  @DF-RHF Final Energy:  -388.27578130147543
    Total Energy =                       -388.2757813014754902
  Basis Set: 6-31G*
  Basis Set:
  Basis Set: 6-31G*
  Basis Set:
  @DF-RHF Final Energy:  -388.27616838717245
    Total Energy =                       -388.2761683871717651
  Basis Set: 6-31G*
  Basis Set:
  @DF-RHF Final Energy:  -388.27637597283820
    Total Energy =                       -388.2763759728381956
  @DF-RHF Final Energy:  -388.27651780791945
    Total Energy =                       -388.2765178079200723
  @DF-RHF Final Energy:  -388.27684004121051
    Total Energy =                       -388.2768400412107894
  Basis Set: 6-31G*
  Basis Set:
  @DF-RHF Final Energy:  -388.27707292442284
    Total Energy =                       -388.2770729244232371
  Basis Set: 6-31G*
  Basis Set:
  Basis Set: 6-31G*
  Basis Set:
  @DF-RHF Final Energy:  -388.27722970760277
    Total Energy =                       -388.2772297076022596
  Basis Set: 6-31G*
  Basis Set:
  Basis Set: 6-31G*
  Basis Set:
  @DF-RHF Final Energy:  -388.27725633841288
    Total Energy =                       -388.2772563384132809
  Basis Set: 6-31G*
  Basis Set:
  Charge       = 0
  Multiplicity = 1
  Basis Set: 6-31G*
  Basis Set:

    Orbital Energies (a.u.)
    -----------------------

    Doubly Occupied:

       1A    -20.552202     2A    -11.266974     3A    -11.219345
       4A    -11.217151     5A    -11.216127     6A    -11.215796
       7A    -11.214913     8A    -11.214582     9A    -11.209192
      10A     -1.358950    11A     -1.093972    12A     -1.060361
      13A     -1.010094    14A     -0.950696    15A     -0.885400
      16A     -0.829905    17A     -0.794316    18A     -0.777333
      19A     -0.693925    20A     -0.653178    21A     -0.626951
      22A     -0.619298    23A     -0.600459    24A     -0.588501
      25A     -0.576356    26A     -0.560351    27A     -0.540168
      28A     -0.518360    29A     -0.504727    30A     -0.498835
      31A     -0.489640    32A     -0.477588    33A     -0.469001
      34A     -0.460351    35A     -0.444481    36A     -0.441879
      37A     -0.422154

  @DF-RHF Final Energy:  -388.27725687728133

   => Energetics <=

    Nuclear Repulsion Energy =            468.5654318971883754
    One-Electron Energy =               -1455.1383561587240365
    Two-Electron Energy =                 598.2956673842541022
    DFT Exchange-Correlation Energy =       0.0000000000000000
    Empirical Dispersion Energy =           0.0000000000000000
    PCM Polarization Energy =               0.0000000000000000
    EFP Energy =                            0.0000000000000000
    Total Energy =                       -388.2772568772816157
    Molecular point group: c1
  Basis Set: 6-31G*
  Basis Set:

  -Total Gradient:
     Atom            X                  Y                   Z
    ------   -----------------  -----------------  -----------------
       1       -0.000004000490     0.000006303973    -0.000004922719
       2        0.000008883287    -0.000001521733    -0.000040272106
       3        0.000021060300    -0.000023352667     0.000016701278
       4        0.000012896537    -0.000070893104    -0.000039352078
       5        0.000019159476    -0.000005697413    -0.000001179714
       6       -0.000003360388     0.000008553707     0.000001927648
       7       -0.000164949335     0.000070656986    -0.000089302967
       8       -0.000032750283    -0.000020494500    -0.000035994925
       9        0.000035159318    -0.000000916565     0.000001353042
      10        0.000819298313     0.000407921452    -0.000239686490
      11        0.000028318032     0.000042854827     0.000009445094
      12       -0.000062436673     0.000049062563    -0.000032564487
      13       -0.000924123218    -0.000421016559     0.000307456973
      14       -0.000062881025     0.000034786837     0.000010229626
      15        0.000083355786     0.000081244678    -0.000049378969
      16       -0.000645933879    -0.000278793958     0.000008062873
      17       -0.000023799526    -0.000035514994     0.000041277400
      18       -0.000089597114    -0.000029555220     0.000006147957
      19        0.000012107877    -0.000022341692     0.000225463167
      20        0.001008609957     0.000313416371    -0.000102719089
      21       -0.000055706946     0.000017871818     0.000008768308
      22        0.000058845204    -0.000009897885     0.000042957650
      23        0.000022776097    -0.000011445207     0.000018889983
      24       -0.000067701375    -0.000062831261    -0.000064815600
      25        0.000003910338    -0.000018224331     0.000000668560
      26        0.000009293855    -0.000021512761     0.000006094960
      27       -0.000006434119     0.000001336640    -0.000005255372

  **** Optimization is complete! (in 11 steps) ****
    Final optimized geometry and variables:
    Molecular point group: c1

    Geometry (in Angstrom), charge = 0, multiplicity = 1:

    H           -1.964276585654    -0.809632116236     2.239448947524
    O           -1.497534818169    -0.619821284288     3.040259986896
    C           -0.293045460622    -1.342675445311     3.068520903949
    C            0.755125392184    -0.799963389434     2.103450088878
    H            0.071465836786    -1.267610655314     4.084952798305
    H           -0.476886016755    -2.397551937324     2.868121699918
    C            0.352894082029    -0.897623075231     0.630270453852
    H            0.955283392188     0.237294315338     2.359223957385
    H            1.681075450692    -1.350245191962     2.263125955077
    C            1.457661727631    -0.422146235462    -0.319489331602
    H           -0.549619844618    -0.317828416677     0.463068855760
    H            0.105951150156    -1.931671509657     0.390896398090
    C            1.100394809387    -0.496616083557    -1.817262208205
    H            1.742246719121     0.596282624663    -0.062328155260
    H            2.339045797244    -1.031873728672    -0.136450197294
    C            0.576266717730     0.803199718456    -2.442398372350
    H            1.991608938361    -0.782043296842    -2.369629385718
    H            0.380439863274    -1.296124080351    -1.983721034085
    C           -0.793479670346     1.276822754614    -1.951015579575
    H            0.534072054631     0.667325558575    -3.521503188330
    H            1.305808215849     1.593631074015    -2.272572311764
    C           -1.293394463250     2.507027238820    -2.708327051457
    H           -1.515421088617     0.469479925283    -2.058261231074
    H           -0.747505762989     1.510571286663    -0.891369298745
    H           -1.396159511212     2.299165978212    -3.769630292744
    H           -2.261667952004     2.830260517234    -2.338838896729
    H           -0.604049559818     3.339791394089    -2.600813754363

  Mulliken Charges: (a.u.)
   Center  Symbol    Alpha    Beta     Spin     Total
       1     H     0.27973  0.27973  0.00000  0.44054
       2     O     4.37108  4.37108  0.00000 -0.74216
       3     C     2.99739  2.99739  0.00000  0.00521
       4     C     3.16164  3.16164  0.00000 -0.32329
       5     H     0.41448  0.41448  0.00000  0.17103
       6     H     0.43197  0.43197  0.00000  0.13606
       7     C     3.16388  3.16388  0.00000 -0.32777
       8     H     0.41531  0.41531  0.00000  0.16937
       9     H     0.42436  0.42436  0.00000  0.15129
      10     C     3.15463  3.15463  0.00000 -0.30927
      11     H     0.42182  0.42182  0.00000  0.15636
      12     H     0.42507  0.42507  0.00000  0.14985
      13     C     3.15679  3.15679  0.00000 -0.31358
      14     H     0.42042  0.42042  0.00000  0.15917
      15     H     0.42071  0.42071  0.00000  0.15858
      16     C     3.15116  3.15116  0.00000 -0.30232
      17     H     0.41924  0.41924  0.00000  0.16152
      18     H     0.42322  0.42322  0.00000  0.15355
      19     C     3.15418  3.15418  0.00000 -0.30835
      20     H     0.42283  0.42283  0.00000  0.15433
      21     H     0.42381  0.42381  0.00000  0.15238
      22     C     3.23904  3.23904  0.00000 -0.47808
      23     H     0.42496  0.42496  0.00000  0.15008
      24     H     0.42014  0.42014  0.00000  0.15972
      25     H     0.42176  0.42176  0.00000  0.15648
      26     H     0.41904  0.41904  0.00000  0.16192
      27     H     0.42133  0.42133  0.00000  0.15735

   Total alpha = 37.00000, Total beta = 37.00000, Total charge = -0.00000
