  ==> Input File <==

--------------------------------------------------------------------------
set {
	reference rhf
	basis cc-pvtz
}

set_num_threads( 4 )
memory 2 gb

molecule MOL {
0 1

H	 -0.925005	 2.312679	 -0.770839
C	 -0.794872	 1.302662	 -0.443933
C	 -1.902524	 0.495168	 -0.031364
C	 0.420242	 0.750191	 -0.407808
H	 -2.892907	 0.909896	 -0.048671
C	 -1.712029	 -0.764553	 0.372853
H	 1.298043	 1.291116	 -0.701079
N	 0.640204	 -0.530428	 -0.000115
H	 -2.516146	 -1.397007	 0.688066
C	 -0.385808	 -1.363658	 0.410807
C	 2.006991	 -1.033007	 -0.000020
O	 -0.174439	 -2.490814	 0.767298
H	 2.182444	 -1.636914	 -0.880881
H	 2.678769	 -0.195442	 -0.002236
H	 2.183828	 -1.633244	 0.883082

	symmetry c1
}
set optking {
	frozen_dihedral = ("
		10 8 11 13
	")
}

ee = optimize('scf')
oeprop('DIPOLE', 'QUADRUPOLE', 'MULLIKEN_CHARGES')
f=open( 'psi4out.xyz', 'w' )
f.write( "15  " )
f.write( str(ee) + "\n" )
f.write( MOL.save_string_xyz() )
f.close()
--------------------------------------------------------------------------

    Molecular point group: c1
  Charge       = 0
  Multiplicity = 1
  Basis Set: CC-PVTZ
  Basis Set:
  @DF-RHF Final Energy:  -360.72281650744065
    Total Energy =                       -360.7228165074407684
    Molecular point group: c1
  Basis Set: CC-PVTZ
  Basis Set:
  Basis Set: CC-PVTZ
  Basis Set:
  @DF-RHF Final Energy:  -360.72322647331868
    Total Energy =                       -360.7232264733186184
  Basis Set: CC-PVTZ
  Basis Set:
  Basis Set: CC-PVTZ
  Basis Set:
  @DF-RHF Final Energy:  -360.72326685234128
    Total Energy =                       -360.7232668523414532
  Basis Set: CC-PVTZ
  Basis Set:
  Basis Set: CC-PVTZ
  Basis Set:
  @DF-RHF Final Energy:  -360.72325343271496
    Total Energy =                       -360.7232534327148414
  Basis Set: CC-PVTZ
  Basis Set:
  Charge       = 0
  Multiplicity = 1
  Basis Set: CC-PVTZ
  Basis Set:

    Orbital Energies (a.u.)
    -----------------------

    Doubly Occupied:

       1A    -20.501921     2A    -15.617526     3A    -11.338030
       4A    -11.294273     5A    -11.265505     6A    -11.258134
       7A    -11.229749     8A    -11.227898     9A     -1.391109
      10A     -1.285843    11A     -1.118808    12A     -1.029208
      13A     -0.972596    14A     -0.876390    15A     -0.838869
      16A     -0.719542    17A     -0.702180    18A     -0.663924
      19A     -0.653294    20A     -0.626045    21A     -0.611909
      22A     -0.574854    23A     -0.553645    24A     -0.550969
      25A     -0.530904    26A     -0.484347    27A     -0.420558
      28A     -0.410585    29A     -0.310260

  @DF-RHF Final Energy:  -360.72328445803061

   => Energetics <=

    Nuclear Repulsion Energy =            358.7652045718975273
    One-Electron Energy =               -1200.8592309134960487
    Two-Electron Energy =                 481.3707418835679164
    DFT Exchange-Correlation Energy =       0.0000000000000000
    Empirical Dispersion Energy =           0.0000000000000000
    PCM Polarization Energy =               0.0000000000000000
    EFP Energy =                            0.0000000000000000
    Total Energy =                       -360.7232844580305482
    Molecular point group: c1
  Basis Set: CC-PVTZ
  Basis Set:

  -Total Gradient:
     Atom            X                  Y                   Z
    ------   -----------------  -----------------  -----------------
       1       -0.000004281049     0.000004901887     0.000002547036
       2        0.000174710028    -0.000058040145    -0.000021565222
       3       -0.000103870593    -0.000124730672     0.000061100140
       4       -0.000119503121     0.000249976784    -0.000035876299
       5        0.000007900220     0.000004830687    -0.000005948236
       6       -0.000120892126     0.000113614945    -0.000023292526
       7        0.000003594843    -0.000030114933    -0.000001971380
       8       -0.000104142114    -0.000333585296    -0.001093218980
       9        0.000004304300    -0.000018154290     0.000004151992
      10        0.000376296033     0.000369048816     0.000654668475
      11       -0.000357046298    -0.000912637441     0.000919696928
      12       -0.000084659059    -0.000075946903     0.000020943509
      13        0.000295541266     0.000745054523    -0.000433176080
      14        0.000031957834     0.000047572439    -0.000007205485
      15        0.000000089837     0.000018209601    -0.000040853871

  **** Optimization is complete! (in 5 steps) ****
    Final optimized geometry and variables:
    Molecular point group: c1

    Geometry (in Angstrom), charge = 0, multiplicity = 1:

    H           -0.762958462198     2.812053849470    -0.871857305185
    C           -0.623972179893     1.804371193375    -0.541443150416
    C           -1.723422680507     0.992222808688    -0.118671545717
    C            0.597841848088     1.263925465206    -0.505359269025
    H           -2.716145717746     1.401509907102    -0.132131767209
    C           -1.523856425180    -0.265006284608     0.291321251257
    H            1.468351663733     1.812723237615    -0.802944193817
    N            0.826016405844    -0.011060460362    -0.089220659731
    H           -2.322250283077    -0.901597112402     0.613029813312
    C           -0.194121746302    -0.853070303459     0.314413193256
    C            2.179014870479    -0.546505057631    -0.081977026578
    O            0.040333004897    -1.982339384041     0.649661148977
    H            2.359036035714    -1.150791413839    -0.961411857741
    H            2.881523163602     0.273369058389    -0.065834322205
    H            2.317511271919    -1.160446221199     0.791027839857

  Mulliken Charges: (a.u.)
   Center  Symbol    Alpha    Beta     Spin     Total
       1     H     0.41393  0.41393  0.00000  0.17214
       2     C     3.10578  3.10578  0.00000 -0.21155
       3     C     3.06022  3.06022  0.00000 -0.12044
       4     C     3.03632  3.03632  0.00000 -0.07264
       5     H     0.41842  0.41842  0.00000  0.16316
       6     C     3.11825  3.11825  0.00000 -0.23651
       7     H     0.42039  0.42039  0.00000  0.15922
       8     N     3.50956  3.50956  0.00000 -0.01912
       9     H     0.40920  0.40920  0.00000  0.18160
      10     C     2.84537  2.84537  0.00000  0.30926
      11     C     3.09497  3.09497  0.00000 -0.18994
      12     O     4.23595  4.23595  0.00000 -0.47189
      13     H     0.44501  0.44501  0.00000  0.10998
      14     H     0.45544  0.45544  0.00000  0.08913
      15     H     0.43119  0.43119  0.00000  0.13762

   Total alpha = 29.00000, Total beta = 29.00000, Total charge =  0.00000
