  ==> Input File <==

--------------------------------------------------------------------------
set {
	reference rhf
	basis cc-pvtz
}

set_num_threads( 4 )
memory 2 gb

molecule MOL {
0 1

H	 2.959000	 -0.392000	 -0.000000
O	 2.121000	 -0.845000	 -0.000000
C	 1.155000	 0.073000	 0.000000
C	 -0.213000	 -0.557000	 0.000000
O	 1.390000	 1.238000	 0.000000
C	 -1.350000	 0.462000	 -0.000000
H	 -0.270000	 -1.211000	 -0.866000
H	 -0.270000	 -1.210000	 0.867000
C	 -2.721000	 -0.211000	 0.000000
H	 -1.253000	 1.105000	 -0.868000
H	 -1.253000	 1.106000	 0.867000
H	 -2.855000	 -0.839000	 -0.877000
H	 -3.515000	 0.529000	 -0.001000
H	 -2.855000	 -0.837000	 0.878000

	symmetry c1
}
ee = optimize('scf')
oeprop('DIPOLE', 'QUADRUPOLE', 'MULLIKEN_CHARGES')
f=open( 'psi4out.xyz', 'w' )
f.write( "14  " )
f.write( str(ee) + "\n" )
f.write( MOL.save_string_xyz() )
f.close()
--------------------------------------------------------------------------

    Molecular point group: c1
  Charge       = 0
  Multiplicity = 1
  Basis Set: CC-PVTZ
  Basis Set:
  @DF-RHF Final Energy:  -306.00088030591138
    Total Energy =                       -306.0008803059113234
    Molecular point group: c1
  Basis Set: CC-PVTZ
  Basis Set:
  Basis Set: CC-PVTZ
  Basis Set:
  @DF-RHF Final Energy:  -306.00105289913188
    Total Energy =                       -306.0010528991321621
  Basis Set: CC-PVTZ
  Basis Set:
  Basis Set: CC-PVTZ
  Basis Set:
  @DF-RHF Final Energy:  -306.00105506997460
    Total Energy =                       -306.0010550699746545
  Basis Set: CC-PVTZ
  Basis Set:
  Basis Set: CC-PVTZ
  Basis Set:
  @DF-RHF Final Energy:  -306.00102891208417
    Total Energy =                       -306.0010289120842799
  Basis Set: CC-PVTZ
  Basis Set:
  Charge       = 0
  Multiplicity = 1
  Basis Set: CC-PVTZ
  Basis Set:

    Orbital Energies (a.u.)
    -----------------------

    Doubly Occupied:

       1A    -20.604481     2A    -20.541063     3A    -11.374026
       4A    -11.239874     5A    -11.223888     6A    -11.215421
       7A     -1.478081     8A     -1.369619     9A     -1.084468
      10A     -0.981012    11A     -0.859289    12A     -0.792984
      13A     -0.704190    14A     -0.691931    15A     -0.670074
      16A     -0.617922    17A     -0.596887    18A     -0.574686
      19A     -0.546034    20A     -0.507068    21A     -0.492306
      22A     -0.485319    23A     -0.482029    24A     -0.447751

  @DF-RHF Final Energy:  -306.00105645977862

   => Energetics <=

    Nuclear Repulsion Energy =            240.4526760123152371
    One-Electron Energy =                -893.7466587088117649
    Two-Electron Energy =                 347.2929262367180172
    DFT Exchange-Correlation Energy =       0.0000000000000000
    Empirical Dispersion Energy =           0.0000000000000000
    PCM Polarization Energy =               0.0000000000000000
    EFP Energy =                            0.0000000000000000
    Total Energy =                       -306.0010564597785105
    Molecular point group: c1
  Basis Set: CC-PVTZ
  Basis Set:

  -Total Gradient:
     Atom            X                  Y                   Z
    ------   -----------------  -----------------  -----------------
       1        0.000001767731    -0.000030953014    -0.000000649928
       2       -0.000000907325     0.000062238720    -0.000007487277
       3        0.000024390095    -0.000046839932     0.000028329299
       4        0.000013591770     0.000021736977    -0.000005283317
       5        0.000001852630     0.000020285188    -0.000008355838
       6       -0.000008392330    -0.000008440907    -0.000013761062
       7       -0.000013944562    -0.000013553275    -0.000000359078
       8       -0.000009411467    -0.000013767321    -0.000000121828
       9       -0.000003855104     0.000002863365     0.000005295992
      10        0.000000694218     0.000004730394     0.000003486352
      11       -0.000000695058     0.000006847330    -0.000002818419
      12       -0.000001125390     0.000002564486     0.000001678975
      13       -0.000001179610    -0.000005292150     0.000002750749
      14       -0.000002785599    -0.000002419862    -0.000002704621

  **** Optimization is complete! (in 5 steps) ****
    Final optimized geometry and variables:
    Molecular point group: c1

    Geometry (in Angstrom), charge = 0, multiplicity = 1:

    H            2.848012722905    -0.421476918547     0.000185593874
    O            2.012306994341    -0.863439976027     0.000221683379
    C            1.050374160356     0.054876658873     0.000135328731
    C           -0.318151312740    -0.570511846946     0.000143617867
    O            1.286318817543     1.213452742651    -0.000039565416
    C           -1.454884498174     0.441629290600    -0.000560025602
    H           -0.371612914781    -1.223645969466    -0.864984722162
    H           -0.371919958072    -1.222758533047     0.865929276216
    C           -2.822576806410    -0.232186553790     0.000063206091
    H           -1.359760539268     1.084703837510    -0.867077492148
    H           -1.359641179234     1.085995256017     0.864983347680
    H           -2.954352408914    -0.858985722105    -0.875745073581
    H           -3.615885633282     0.505351927457     0.000019380578
    H           -2.953878527777    -0.858359420724     0.876393520775

  Mulliken Charges: (a.u.)
   Center  Symbol    Alpha    Beta     Spin     Total
       1     H     0.38231  0.38231  0.00000  0.23538
       2     O     4.16005  4.16005  0.00000 -0.32010
       3     C     2.80527  2.80527  0.00000  0.38945
       4     C     3.10547  3.10547  0.00000 -0.21093
       5     O     4.19095  4.19095  0.00000 -0.38190
       6     C     3.07933  3.07933  0.00000 -0.15865
       7     H     0.43889  0.43889  0.00000  0.12222
       8     H     0.43890  0.43890  0.00000  0.12219
       9     C     3.15031  3.15031  0.00000 -0.30061
      10     H     0.44622  0.44622  0.00000  0.10756
      11     H     0.44621  0.44621  0.00000  0.10759
      12     H     0.45550  0.45550  0.00000  0.08900
      13     H     0.44509  0.44509  0.00000  0.10981
      14     H     0.45550  0.45550  0.00000  0.08899

   Total alpha = 24.00000, Total beta = 24.00000, Total charge = -0.00000
