  ==> Input File <==

--------------------------------------------------------------------------
set {
	reference rhf
	basis 6-31G*
}

set_num_threads( 4 )
memory 2 gb

molecule MOL {
0 1

H	 -3.892951	 0.981613	 -0.358725
C	 -3.196921	 0.361773	 0.172313
C	 -2.076860	 -0.007332	 -0.404944
H	 -3.439953	 0.057760	 1.173024
O	 -1.912252	 0.038765	 -1.753143
H	 -1.221130	 -0.347523	 0.151106
C	 -0.770653	 -0.531046	 -2.295282
C	 -0.953955	 -2.008658	 -2.558641
H	 0.095789	 -0.407118	 -1.655269
H	 -0.578610	 -0.047360	 -3.241671
F	 0.147528	 -2.498304	 -3.108902
F	 -1.178622	 -2.681937	 -1.442375
F	 -1.956937	 -2.244535	 -3.378872

	symmetry c1
}
set optking {
	frozen_dihedral = ("
		6 3 2 1
	")
}

ee = optimize('scf')
oeprop('DIPOLE', 'QUADRUPOLE', 'MULLIKEN_CHARGES')
f=open( 'psi4out.xyz', 'w' )
f.write( "13  " )
f.write( str(ee) + "\n" )
f.write( MOL.save_string_xyz() )
f.close()
--------------------------------------------------------------------------

    Molecular point group: c1
  Charge       = 0
  Multiplicity = 1
  Basis Set: 6-31G*
  Basis Set:
  @DF-RHF Final Energy:  -527.52651206851351
    Total Energy =                       -527.5265120685137390
    Molecular point group: c1
  Basis Set: 6-31G*
  Basis Set:
  Basis Set: 6-31G*
  Basis Set:
  @DF-RHF Final Energy:  -527.53185448463114
    Total Energy =                       -527.5318544846313671
  Basis Set: 6-31G*
  Basis Set:
  Basis Set: 6-31G*
  Basis Set:
  @DF-RHF Final Energy:  -527.53208387716461
    Total Energy =                       -527.5320838771649505
  Basis Set: 6-31G*
  Basis Set:
  Basis Set: 6-31G*
  Basis Set:
  @DF-RHF Final Energy:  -527.53211037994731
    Total Energy =                       -527.5321103799469711
  Basis Set: 6-31G*
  Basis Set:
  @DF-RHF Final Energy:  -527.53211318024114
    Total Energy =                       -527.5321131802410264
  @DF-RHF Final Energy:  -527.53211481421681
    Total Energy =                       -527.5321148142170387
  @DF-RHF Final Energy:  -527.53211592224898
    Total Energy =                       -527.5321159222489769
  @DF-RHF Final Energy:  -527.52334174380644
    Total Energy =                       -527.5233417438067818
  @DF-RHF Final Energy:  -527.50832305548306
    Total Energy =                       -527.5083230554831744
  @DF-RHF Final Energy:  -527.53075822971516
    Total Energy =                       -527.5307582297150475
  @DF-RHF Final Energy:  -527.53204512521211
    Total Energy =                       -527.5320451252121075
  @DF-RHF Final Energy:  -527.53207582445430
    Total Energy =                       -527.5320758244546369
  @DF-RHF Final Energy:  -527.53208945531503
    Total Energy =                       -527.5320894553146900
  @DF-RHF Final Energy:  -527.53210042763544
    Total Energy =                       -527.5321004276355552
  @DF-RHF Final Energy:  -527.53210619903564
    Total Energy =                       -527.5321061990351836
  @DF-RHF Final Energy:  -527.53211491844741
    Total Energy =                       -527.5321149184476326
  @DF-RHF Final Energy:  -527.53211690224498
    Total Energy =                       -527.5321169022446384
  @DF-RHF Final Energy:  -527.53041741282755
    Total Energy =                       -527.5304174128275463
  @DF-RHF Final Energy:  -527.53211447726267
    Total Energy =                       -527.5321144772620983
  Basis Set: 6-31G*
  Basis Set:
  @DF-RHF Final Energy:  -527.53211736845185
    Total Energy =                       -527.5321173684518499
  Basis Set: 6-31G*
  Basis Set:
  Basis Set: 6-31G*
  Basis Set:
  @DF-RHF Final Energy:  -527.53211614688576
    Total Energy =                       -527.5321161468851869
  Basis Set: 6-31G*
  Basis Set:
  Basis Set: 6-31G*
  Basis Set:
  @DF-RHF Final Energy:  -527.53211783916322
    Total Energy =                       -527.5321178391631065
  Basis Set: 6-31G*
  Basis Set:
  Charge       = 0
  Multiplicity = 1
  Basis Set: 6-31G*
  Basis Set:

    Orbital Energies (a.u.)
    -----------------------

    Doubly Occupied:

       1A    -26.344225     2A    -26.343092     3A    -26.340086
       4A    -20.608063     5A    -11.502740     6A    -11.318887
       7A    -11.300341     8A    -11.216118     9A     -1.741284
      10A     -1.639403    11A     -1.637774    12A     -1.437955
      13A     -1.084342    14A     -1.016308    15A     -0.924935
      16A     -0.836292    17A     -0.830502    18A     -0.820984
      19A     -0.792143    20A     -0.720972    21A     -0.710975
      22A     -0.695663    23A     -0.675639    24A     -0.660090
      25A     -0.654260    26A     -0.642612    27A     -0.634421
      28A     -0.584166    29A     -0.562617    30A     -0.525626
      31A     -0.512579    32A     -0.350394

  @DF-RHF Final Energy:  -527.53211789216607

   => Energetics <=

    Nuclear Repulsion Energy =            413.2108492903762453
    One-Electron Energy =               -1550.1549623311457253
    Two-Electron Energy =                 609.4119951486034097
    DFT Exchange-Correlation Energy =       0.0000000000000000
    Empirical Dispersion Energy =           0.0000000000000000
    PCM Polarization Energy =               0.0000000000000000
    EFP Energy =                            0.0000000000000000
    Total Energy =                       -527.5321178921660703
    Molecular point group: c1
  Basis Set: 6-31G*
  Basis Set:

  -Total Gradient:
     Atom            X                  Y                   Z
    ------   -----------------  -----------------  -----------------
       1        0.005482970756     0.010614065608     0.003246237881
       2       -0.006125376657    -0.010140752187    -0.004881599130
       3       -0.003184554908    -0.011876632451     0.002223235761
       4        0.000000483024    -0.000012002595     0.000009266074
       5       -0.000048049471    -0.000198711647    -0.000012900367
       6        0.003871088561     0.011606705113    -0.000577475752
       7        0.000000441508     0.000003161278    -0.000009767679
       8        0.000017610406    -0.000005634920    -0.000021445605
       9        0.000000040126    -0.000002848622    -0.000001203476
      10        0.000002889587    -0.000001536738    -0.000003780223
      11       -0.000008058926     0.000012004001     0.000004479045
      12       -0.000009011832    -0.000004529265     0.000023835580
      13       -0.000000472173     0.000006712410     0.000001117894

  **** Optimization is complete! (in 23 steps) ****
    Final optimized geometry and variables:
    Molecular point group: c1

    Geometry (in Angstrom), charge = 0, multiplicity = 1:

    H           -2.541483722252     2.210512540822     1.569161093422
    C           -1.799326250612     1.660357824197     2.116618211512
    C           -0.681863788832     1.256432447640     1.555742409277
    H           -1.895775498573     1.616028863407     3.184626032594
    O           -0.484518326792     1.345424884477     0.213185553305
    H            0.193268946100     0.992162900651     2.122861348286
    C            0.668631904971     0.790781309258    -0.320008626671
    C            0.488222384621    -0.676852918584    -0.636002410948
    H            1.520467621699     0.890658158382     0.343483798414
    H            0.884397817378     1.304584829089    -1.245165824723
    F            1.602016131795    -1.151290587953    -1.174971475494
    F            0.234426815356    -1.385761909107     0.451197845010
    F           -0.494468360511    -0.882045992078    -1.488401781197

  Mulliken Charges: (a.u.)
   Center  Symbol    Alpha    Beta     Spin     Total
       1     H     0.40174  0.40174  0.00000  0.19652
       2     C     3.23390  3.23390  0.00000 -0.46779
       3     C     2.89586  2.89586  0.00000  0.20829
       4     H     0.40853  0.40853  0.00000  0.18295
       5     O     4.30114  4.30114  0.00000 -0.60227
       6     H     0.40709  0.40709  0.00000  0.18582
       7     C     3.06381  3.06381  0.00000 -0.12763
       8     C     2.45542  2.45542  0.00000  1.08916
       9     H     0.40604  0.40604  0.00000  0.18792
      10     H     0.38979  0.38979  0.00000  0.22042
      11     F     4.68298  4.68298  0.00000 -0.36595
      12     F     4.67925  4.67925  0.00000 -0.35850
      13     F     4.67446  4.67446  0.00000 -0.34893

   Total alpha = 32.00000, Total beta = 32.00000, Total charge = -0.00000
