  ==> Input File <==

--------------------------------------------------------------------------
set {
	reference rhf
	basis 6-31G*
}

set_num_threads( 1 )
memory 2 gb

molecule MOL {
0 1

H	 -2.172150	 0.880146	 0.502514
C	 -2.018062	 -0.000025	 -0.114509
O	 -0.774054	 0.001095	 -0.743181
H	 -2.760490	 0.003458	 -0.901350
H	 -2.173624	 -0.884374	 0.496163
C	 0.026457	 -1.167227	 -0.716035
C	 1.274570	 -0.768052	 -1.500181
C	 0.408941	 -1.541754	 0.719453
C	 -0.677205	 -2.335866	 -1.413356
H	 1.760417	 0.076140	 -1.024026
H	 1.004273	 -0.475886	 -2.508622
H	 1.981413	 -1.589672	 -1.554725
H	 0.841159	 -0.686483	 1.228105
H	 1.140874	 -2.342921	 0.716686
H	 -0.444621	 -1.884920	 1.294105
H	 -1.007620	 -2.038653	 -2.403074
H	 0.002471	 -3.175244	 -1.518325
H	 -1.539844	 -2.685348	 -0.856266

	symmetry c1
}
set optking {
	frozen_dihedral = ("
		2 3 6 7
	")
}

ee = energy('scf')
oeprop('DIPOLE', 'QUADRUPOLE', 'MULLIKEN_CHARGES')
f=open( 'psi4out.xyz', 'w' )
f.write( "18  " )
f.write( str(ee) + "\n" )
f.write( MOL.save_string_xyz() )
f.close()
--------------------------------------------------------------------------

    Molecular point group: c1

    Geometry (in Angstrom), charge = 0, multiplicity = 1:

       Center              X                  Y                   Z               Mass
    ------------   -----------------  -----------------  -----------------  -----------------
           H         -1.858845634074     1.841189356498     1.124188338858     1.007825032070
           C         -1.704757634074     0.961018356498     0.507165338858    12.000000000000
           O         -0.460749634074     0.962138356498    -0.121506661142    15.994914619560
           H         -2.447185634074     0.964501356498    -0.279675661142     1.007825032070
           H         -1.860319634074     0.076669356498     1.117837338858     1.007825032070
           C          0.339761365926    -0.206183643502    -0.094360661142    12.000000000000
           C          1.587874365926     0.192991356498    -0.878506661142    12.000000000000
           C          0.722245365926    -0.580710643502     1.341127338858    12.000000000000
           C         -0.363900634074    -1.374822643502    -0.791681661142    12.000000000000
           H          2.073721365926     1.037183356498    -0.402351661142     1.007825032070
           H          1.317577365926     0.485157356498    -1.886947661142     1.007825032070
           H          2.294717365926    -0.628628643502    -0.933050661142     1.007825032070
           H          1.154463365926     0.274560356498     1.849779338858     1.007825032070
           H          1.454178365926    -1.381877643502     1.338360338858     1.007825032070
           H         -0.131316634074    -0.923876643502     1.915779338858     1.007825032070
           H         -0.694315634074    -1.077609643502    -1.781399661142     1.007825032070
           H          0.315775365926    -2.214200643502    -0.896650661142     1.007825032070
           H         -1.226539634074    -1.724304643502    -0.234591661142     1.007825032070

  Charge       = 0
  Multiplicity = 1
  Basis Set: 6-31G*
  Basis Set:

    Orbital Energies (a.u.)
    -----------------------

    Doubly Occupied:

       1A    -20.544114     2A    -11.282216     3A    -11.260366
       4A    -11.208861     5A    -11.208797     6A    -11.203287
       7A     -1.369028     8A     -1.072979     9A     -0.946187
      10A     -0.939834    11A     -0.911969    12A     -0.752681
      13A     -0.655232    14A     -0.643877    15A     -0.639697
      16A     -0.589827    17A     -0.572647    18A     -0.551240
      19A     -0.538630    20A     -0.523829    21A     -0.515246
      22A     -0.490055    23A     -0.486269    24A     -0.438134
      25A     -0.400377

  @DF-RHF Final Energy:  -271.17211569060026

   => Energetics <=

    Nuclear Repulsion Energy =            272.3532502274027252
    One-Electron Energy =                -907.5595451938747829
    Two-Electron Energy =                 364.0341792758716224
    DFT Exchange-Correlation Energy =       0.0000000000000000
    Empirical Dispersion Energy =           0.0000000000000000
    PCM Polarization Energy =               0.0000000000000000
    EFP Energy =                            0.0000000000000000
    Total Energy =                       -271.1721156906004921

  Mulliken Charges: (a.u.)
   Center  Symbol    Alpha    Beta     Spin     Total
       1     H     0.41861  0.41861  0.00000  0.16277
       2     C     3.07661  3.07661  0.00000 -0.15321
       3     O     4.32124  4.32124  0.00000 -0.64249
       4     H     0.42276  0.42276  0.00000  0.15448
       5     H     0.43062  0.43062  0.00000  0.13876
       6     C     2.84437  2.84437  0.00000  0.31127
       7     C     3.23296  3.23296  0.00000 -0.46591
       8     C     3.24578  3.24578  0.00000 -0.49157
       9     C     3.24585  3.24585  0.00000 -0.49169
      10     H     0.41395  0.41395  0.00000  0.17209
      11     H     0.41406  0.41406  0.00000  0.17189
      12     H     0.42522  0.42522  0.00000  0.14955
      13     H     0.41311  0.41311  0.00000  0.17378
      14     H     0.41992  0.41992  0.00000  0.16016
      15     H     0.42074  0.42074  0.00000  0.15853
      16     H     0.41329  0.41329  0.00000  0.17343
      17     H     0.41990  0.41990  0.00000  0.16020
      18     H     0.42101  0.42101  0.00000  0.15798

   Total alpha = 25.00000, Total beta = 25.00000, Total charge =  0.00000
