  ==> Input File <==

--------------------------------------------------------------------------
set {
	reference rhf
	basis cc-pvtz
}

set_num_threads( 4 )
memory 2 gb

molecule MOL {
0 1

H	 0.201311	 1.741324	 0.844935
C	 1.030738	 1.113899	 0.539082
N	 0.526300	 -0.128137	 0.000000
H	 1.633309	 0.915594	 1.416364
H	 1.634853	 1.685858	 -0.168364
C	 -0.247113	 0.037112	 -1.209233
H	 1.280396	 -0.759531	 -0.162297
H	 -0.996493	 -0.743733	 -1.271440
H	 0.397975	 -0.057351	 -2.073512
H	 -0.763794	 0.997171	 -1.271673

	symmetry c1
}
set optking {
	frozen_dihedral = ("
		2 3 6 8
	")
}

ee = optimize('scf')
oeprop('DIPOLE', 'QUADRUPOLE', 'MULLIKEN_CHARGES')
f=open( 'psi4out.xyz', 'w' )
f.write( "10  " )
f.write( str(ee) + "\n" )
f.write( MOL.save_string_xyz() )
f.close()
--------------------------------------------------------------------------

    Molecular point group: c1
  Charge       = 0
  Multiplicity = 1
  Basis Set: CC-PVTZ
  Basis Set:
  @DF-RHF Final Energy:  -134.28879792197745
    Total Energy =                       -134.2887979219773911
    Molecular point group: c1
  Basis Set: CC-PVTZ
  Basis Set:
  Basis Set: CC-PVTZ
  Basis Set:
  @DF-RHF Final Energy:  -134.29023557887066
    Total Energy =                       -134.2902355788705790
  Basis Set: CC-PVTZ
  Basis Set:
  Basis Set: CC-PVTZ
  Basis Set:
  @DF-RHF Final Energy:  -134.29039659232541
    Total Energy =                       -134.2903965923254077
  Basis Set: CC-PVTZ
  Basis Set:
  Basis Set: CC-PVTZ
  Basis Set:
  @DF-RHF Final Energy:  -134.29040895554209
    Total Energy =                       -134.2904089555421479
  Basis Set: CC-PVTZ
  Basis Set:
  Charge       = 0
  Multiplicity = 1
  Basis Set: CC-PVTZ
  Basis Set:

    Orbital Energies (a.u.)
    -----------------------

    Doubly Occupied:

       1A    -15.529758     2A    -11.234373     3A    -11.233726
       4A     -1.197596     5A     -0.947960     6A     -0.855567
       7A     -0.661738     8A     -0.609927     9A     -0.590205
      10A     -0.543180    11A     -0.512161    12A     -0.506846
      13A     -0.358951

  @DF-RHF Final Energy:  -134.29041028503912

   => Energetics <=

    Nuclear Repulsion Energy =             84.5997981692539724
    One-Electron Energy =                -348.2164387131214767
    Two-Electron Energy =                 129.3262302588284456
    DFT Exchange-Correlation Energy =       0.0000000000000000
    Empirical Dispersion Energy =           0.0000000000000000
    PCM Polarization Energy =               0.0000000000000000
    EFP Energy =                            0.0000000000000000
    Total Energy =                       -134.2904102850390586
    Molecular point group: c1
  Basis Set: CC-PVTZ
  Basis Set:

  -Total Gradient:
     Atom            X                  Y                   Z
    ------   -----------------  -----------------  -----------------
       1        0.000001766693    -0.000013059569     0.000000286750
       2       -0.002535553418     0.000438834450     0.001645268130
       3        0.002965278943     0.000059929360    -0.001770072990
       4       -0.000005871577    -0.000006375829    -0.000009706996
       5       -0.000004726407    -0.000026121868     0.000003902536
       6        0.002193945809    -0.002863495073    -0.001782144467
       7       -0.000027710461     0.000011859848    -0.000027134870
       8       -0.002548883433     0.002375218266     0.001884202570
       9       -0.000015614332     0.000012604227     0.000049271179
      10       -0.000022631817     0.000010606187     0.000006128159

  **** Optimization is complete! (in 5 steps) ****
    Final optimized geometry and variables:
    Molecular point group: c1

    Geometry (in Angstrom), charge = 0, multiplicity = 1:

    H           -0.241386340452     1.409839436772     1.068787312014
    C            0.584717988124     0.771957303056     0.778128218513
    N            0.074138131418    -0.468370411106     0.242442540574
    H            1.170361712328     0.569672162789     1.666161565078
    H            1.211058399435     1.335003720519     0.082591155804
    C           -0.688002395456    -0.336433467927    -0.981641844266
    H            0.804116535333    -1.136907096734     0.136949493882
    H           -1.441148047552    -1.112649455390    -1.047484558716
    H           -0.080684471301    -0.349129396588    -1.885558018445
    H           -1.222629210159     0.606165483311    -0.966826651658

  Mulliken Charges: (a.u.)
   Center  Symbol    Alpha    Beta     Spin     Total
       1     H     0.45693  0.45693  0.00000  0.08614
       2     C     3.07993  3.07993  0.00000 -0.15985
       3     N     3.63406  3.63406  0.00000 -0.26811
       4     H     0.45302  0.45302  0.00000  0.09396
       5     H     0.47556  0.47556  0.00000  0.04888
       6     C     3.08086  3.08086  0.00000 -0.16173
       7     H     0.43909  0.43909  0.00000  0.12182
       8     H     0.45334  0.45334  0.00000  0.09332
       9     H     0.46742  0.46742  0.00000  0.06515
      10     H     0.45980  0.45980  0.00000  0.08041

   Total alpha = 13.00000, Total beta = 13.00000, Total charge = -0.00000
