                              Psi4 1.0.54 Driver

  ==> Input File <==

--------------------------------------------------------------------------
set {
	reference rhf
	basis cc-pvtz
}

set_num_threads( 4 )
memory 2 gb

molecule MOL {
0 1

O	 3.354190	 0.544968	 1.001469
C	 2.841259	 0.166180	 -0.000295
C	 1.542794	 -0.614730	 -0.000853
C	 3.456842	 0.441516	 -1.353614
C	 0.288398	 0.247429	 0.000314
H	 1.557171	 -1.273139	 -0.866508
H	 1.557484	 -1.274998	 0.863344
C	 -0.993089	 -0.581367	 -0.000217
H	 0.305153	 0.900562	 -0.864701
H	 0.305567	 0.898805	 0.866656
C	 -2.258482	 0.271340	 0.000669
H	 -1.002280	 -1.233920	 -0.870484
H	 -1.002061	 -1.235367	 0.868958
C	 -3.544441	 -0.550271	 -0.000253
H	 -2.250545	 0.925250	 -0.867923
H	 -2.250598	 0.923423	 0.870642
C	 -4.804551	 0.308747	 0.000556
H	 -3.553737	 -1.201524	 -0.870151
H	 -3.553831	 -1.203282	 0.868313
H	 -4.842050	 0.949078	 -0.874436
H	 -5.698404	 -0.304480	 -0.000254
H	 -4.842277	 0.947103	 0.876982
H	 2.764661	 1.001891	 -1.972414
H	 4.371393	 1.001331	 -1.232804
H	 3.664762	 -0.491132	 -1.866429

	symmetry c1
}
set optking {
	frozen_dihedral = ("
		1 2 3 6
	")
}

ee,wfn = optimize('scf', return_wfn=True)
oeprop( wfn, 'DIPOLE', 'QUADRUPOLE', 'MULLIKEN_CHARGES')
f=open( 'psi4out.xyz', 'w' )
f.write( "25  " )
f.write( str(ee) + "\n" )
f.write( MOL.save_string_xyz() )
f.close()
--------------------------------------------------------------------------

    Molecular point group: c1
  Charge       = 0
  Multiplicity = 1
  Basis Set: CC-PVTZ
  Basis Set:
  @DF-RHF Final Energy:  -387.27194864101125
    Total Energy =                       -387.2719486410112495
    Molecular point group: c1
  Basis Set: CC-PVTZ
  Basis Set:
  Basis Set: CC-PVTZ
  Basis Set:
  @DF-RHF Final Energy:  -387.27268054963116
    Total Energy =                       -387.2726805496311044
  Basis Set: CC-PVTZ
  Basis Set:
  Basis Set: CC-PVTZ
  Basis Set:
  @DF-RHF Final Energy:  -387.27286461181592
    Total Energy =                       -387.2728646118160896
  Basis Set: CC-PVTZ
  Basis Set:
  Basis Set: CC-PVTZ
  Basis Set:
  @DF-RHF Final Energy:  -387.27291864561693
    Total Energy =                       -387.2729186456168691
  Basis Set: CC-PVTZ
  Basis Set:
  @DF-RHF Final Energy:  -387.27295178965295
    Total Energy =                       -387.2729517896534617
  @DF-RHF Final Energy:  -387.27296058079833
    Total Energy =                       -387.2729605807987809
  Basis Set: CC-PVTZ
  Basis Set:
  @DF-RHF Final Energy:  -387.27296694527024
    Total Energy =                       -387.2729669452701273
  Basis Set: CC-PVTZ
  Basis Set:
  Basis Set: CC-PVTZ
  Basis Set:
  @DF-RHF Final Energy:  -387.27297644185023
    Total Energy =                       -387.2729764418505738
  Basis Set: CC-PVTZ
  Basis Set:
  Basis Set: CC-PVTZ
  Basis Set:
  @DF-RHF Final Energy:  -387.27297817966934
    Total Energy =                       -387.2729781796693942
  Basis Set: CC-PVTZ
  Basis Set:
  Charge       = 0
  Multiplicity = 1
  Basis Set: CC-PVTZ
  Basis Set:

    Orbital Energies (a.u.)
    -----------------------

    Doubly Occupied:

       1A    -20.536654     2A    -11.319064     3A    -11.228625
       4A    -11.227464     5A    -11.226635     6A    -11.220359
       7A    -11.217057     8A    -11.216334     9A    -11.209341
      10A     -1.396682    11A     -1.100789    12A     -1.060836
      13A     -1.013738    14A     -0.971840    15A     -0.895200
      16A     -0.818759    17A     -0.796335    18A     -0.733787
      19A     -0.669316    20A     -0.649556    21A     -0.640176
      22A     -0.611359    23A     -0.607286    24A     -0.588592
      25A     -0.569020    26A     -0.558056    27A     -0.542590
      28A     -0.541080    29A     -0.509767    30A     -0.501547
      31A     -0.491054    32A     -0.478303    33A     -0.468420
      34A     -0.467776    35A     -0.455547    36A     -0.397929

  @DF-RHF Final Energy:  -387.27297820616155

   => Energetics <=

    Nuclear Repulsion Energy =            439.8778404587373529
    One-Electron Energy =               -1396.4278911300359596
    Two-Electron Energy =                 569.2770724651370529
    DFT Exchange-Correlation Energy =       0.0000000000000000
    Empirical Dispersion Energy =           0.0000000000000000
    PCM Polarization Energy =               0.0000000000000000
    EFP Energy =                            0.0000000000000000
    Total Energy =                       -387.2729782061614969
    Molecular point group: c1
  Basis Set: CC-PVTZ
  Basis Set:

  -Total Gradient:
     Atom            X                  Y                   Z
    ------   -----------------  -----------------  -----------------
       1        0.000083392962    -0.000138860480     0.000012852176
       2       -0.000105461506     0.000164719410    -0.000000989113
       3       -0.000060961369     0.000093228088    -0.000113566337
       4       -0.000000051784     0.000005940453     0.000003958917
       5        0.000001039618     0.000002440860     0.000003608733
       6        0.000077866585    -0.000117995586     0.000084254928
       7       -0.000001266674    -0.000000734776     0.000006225983
       8        0.000003458210    -0.000001272508     0.000008928905
       9        0.000001472415     0.000003216968    -0.000001256190
      10        0.000001098780    -0.000003411769     0.000004016666
      11        0.000001598579    -0.000000244822    -0.000002725341
      12       -0.000000960742    -0.000002198886     0.000002676521
      13       -0.000001832129     0.000002432641     0.000002166621
      14       -0.000000555250    -0.000000368431    -0.000003141925
      15       -0.000000651880     0.000003963843     0.000000327650
      16        0.000002713539    -0.000004418691     0.000001198027
      17       -0.000000633454    -0.000000495399    -0.000004021338
      18       -0.000001770535    -0.000002234794    -0.000000055710
      19        0.000001261969     0.000001736079     0.000000547473
      20       -0.000000747917     0.000001312536    -0.000000497111
      21       -0.000001006692    -0.000000184546    -0.000000491415
      22        0.000000881030    -0.000000829308     0.000000494601
      23        0.000007836264    -0.000005728137     0.000003151971
      24       -0.000003798335    -0.000005045346    -0.000006288210
      25       -0.000002921690     0.000005032604    -0.000001376480

  **** Optimization is complete! (in 10 steps) ****
    Final optimized geometry and variables:
    Molecular point group: c1

    Geometry (in Angstrom), charge = 0, multiplicity = 1:

    O            3.320971216827     0.501957097447     1.082282711779
    C            2.843463125995     0.131346677883     0.059580408768
    C            1.580439933854    -0.706021136491     0.042857984321
    C            3.460084461309     0.482649854974    -1.273890394783
    C            0.327517077754     0.178268448447     0.023240928533
    H            1.580027783976    -1.363840504562    -0.820207940261
    H            1.581209506072    -1.316524110316     0.936553883600
    C           -0.964707236550    -0.633305083477     0.025610433929
    H            0.344687615838     0.821569231146    -0.852456111907
    H            0.350685419915     0.831639611654     0.888762172885
    C           -2.219239993913     0.235282680554     0.017607324937
    H           -0.977590381470    -1.292090390207    -0.839296632567
    H           -0.978776552025    -1.277964894039     0.900474483300
    C           -3.514303690316    -0.572013452220     0.023473872889
    H           -2.204345980483     0.881016540719    -0.857358717650
    H           -2.204419329740     0.894670203979     0.881896414716
    C           -4.764481185369     0.301240225541     0.015324271416
    H           -3.530192157498    -1.231359142269    -0.840137994501
    H           -3.531028265195    -1.216241551474     0.898225412496
    H           -4.794759202680     0.933396041823    -0.865940194745
    H           -5.664888055677    -0.302127574651     0.020027499386
    H           -4.795486931087     0.948196317526     0.885643153292
    H            2.710892955551     0.863527994011    -1.958353997260
    H            4.244329760971     1.211673511384    -1.139616863547
    H            3.875239573416    -0.415620381625    -1.719823363921

  Mulliken Charges: (a.u.)
   Center  Symbol    Alpha    Beta     Spin     Total
       1     O     4.17795  4.17795  0.00000 -0.35590
       2     C     2.85841  2.85841  0.00000  0.28318
       3     C     3.09713  3.09713  0.00000 -0.19425
       4     C     3.15535  3.15535  0.00000 -0.31070
       5     C     3.10311  3.10311  0.00000 -0.20623
       6     H     0.44944  0.44944  0.00000  0.10112
       7     H     0.43893  0.43893  0.00000  0.12213
       8     C     3.09000  3.09000  0.00000 -0.18000
       9     H     0.45196  0.45196  0.00000  0.09608
      10     H     0.44106  0.44106  0.00000  0.11789
      11     C     3.08661  3.08661  0.00000 -0.17321
      12     H     0.45418  0.45418  0.00000  0.09164
      13     H     0.45132  0.45132  0.00000  0.09736
      14     C     3.08479  3.08479  0.00000 -0.16958
      15     H     0.45514  0.45514  0.00000  0.08971
      16     H     0.45285  0.45285  0.00000  0.09430
      17     C     3.15033  3.15033  0.00000 -0.30066
      18     H     0.45477  0.45477  0.00000  0.09046
      19     H     0.45380  0.45380  0.00000  0.09241
      20     H     0.45521  0.45521  0.00000  0.08958
      21     H     0.44798  0.44798  0.00000  0.10403
      22     H     0.45441  0.45441  0.00000  0.09119
      23     H     0.45097  0.45097  0.00000  0.09806
      24     H     0.43593  0.43593  0.00000  0.12813
      25     H     0.44837  0.44837  0.00000  0.10326

   Total alpha = 36.00000, Total beta = 36.00000, Total charge =  0.00000

*** Psi4 exiting successfully. Buy a developer a beer!
