  ==> Input File <==

--------------------------------------------------------------------------
set {
	reference rhf
	basis 6-31G*
}

set_num_threads( 4 )
memory 2 gb

molecule MOL {
0 1

H	 -0.554210	 -1.668917	 -1.943967
C	 -0.771426	 -0.606330	 -1.997698
O	 -0.774054	 0.001095	 -0.743181
H	 -1.767826	 -0.484048	 -2.400891
H	 -0.068002	 -0.141781	 -2.682227
C	 0.406953	 0.000033	 0.038965
C	 1.527284	 -0.003667	 -0.998752
C	 0.498933	 1.262172	 0.902524
C	 0.494271	 -1.259566	 0.906664
H	 1.452513	 0.873252	 -1.631882
H	 1.448863	 -0.881882	 -1.629595
H	 2.502020	 -0.005104	 -0.521731
H	 0.364280	 2.147110	 0.289513
H	 1.472180	 1.321775	 1.378800
H	 -0.247853	 1.275162	 1.689097
H	 0.356778	 -2.146106	 0.296587
H	 1.467182	 -1.320941	 1.383330
H	 -0.252763	 -1.267328	 1.693119

	symmetry c1
}
set optking {
	frozen_dihedral = ("
		2 3 6 7
	")
}

ee = optimize('scf')
oeprop('DIPOLE', 'QUADRUPOLE', 'MULLIKEN_CHARGES')
f=open( 'psi4out.xyz', 'w' )
f.write( "18  " )
f.write( str(ee) + "\n" )
f.write( MOL.save_string_xyz() )
f.close()
--------------------------------------------------------------------------

    Molecular point group: c1
  Charge       = 0
  Multiplicity = 1
  Basis Set: 6-31G*
  Basis Set:
  @DF-RHF Final Energy:  -271.16098694009474
    Total Energy =                       -271.1609869400946877
    Molecular point group: c1
  Basis Set: 6-31G*
  Basis Set:
  Basis Set: 6-31G*
  Basis Set:
  @DF-RHF Final Energy:  -271.16678827506541
    Total Energy =                       -271.1667882750654144
  Basis Set: 6-31G*
  Basis Set:
  Basis Set: 6-31G*
  Basis Set:
  @DF-RHF Final Energy:  -271.17177895857230
    Total Energy =                       -271.1717789585724177
  Basis Set: 6-31G*
  Basis Set:
  Basis Set: 6-31G*
  Basis Set:
  @DF-RHF Final Energy:  -271.17352342250769
    Total Energy =                       -271.1735234225075715
  Basis Set: 6-31G*
  Basis Set:
  @DF-RHF Final Energy:  -271.17369342294847
    Total Energy =                       -271.1736934229483040
  @DF-RHF Final Energy:  -271.17368061546983
    Total Energy =                       -271.1736806154697206
  @DF-RHF Final Energy:  -271.17372602441458
    Total Energy =                       -271.1737260244144636
  Basis Set: 6-31G*
  Basis Set:
  @DF-RHF Final Energy:  -271.17372433982888
    Total Energy =                       -271.1737243398290502
  Basis Set: 6-31G*
  Basis Set:
  Basis Set: 6-31G*
  Basis Set:
  @DF-RHF Final Energy:  -271.17372755231810
    Total Energy =                       -271.1737275523181552
  Basis Set: 6-31G*
  Basis Set:
  Basis Set: 6-31G*
  Basis Set:
  @DF-RHF Final Energy:  -271.17372868039070
    Total Energy =                       -271.1737286803906954
  Basis Set: 6-31G*
  Basis Set:
  Charge       = 0
  Multiplicity = 1
  Basis Set: 6-31G*
  Basis Set:

    Orbital Energies (a.u.)
    -----------------------

    Doubly Occupied:

       1A    -20.545258     2A    -11.281529     3A    -11.261699
       4A    -11.212621     5A    -11.204791     6A    -11.203598
       7A     -1.368380     8A     -1.073420     9A     -0.949927
      10A     -0.935724    11A     -0.912127    12A     -0.751728
      13A     -0.656231    14A     -0.645536    15A     -0.637525
      16A     -0.586908    17A     -0.574696    18A     -0.551247
      19A     -0.536828    20A     -0.525618    21A     -0.515027
      22A     -0.490401    23A     -0.484392    24A     -0.441446
      25A     -0.399119

  @DF-RHF Final Energy:  -271.17372873190504

   => Energetics <=

    Nuclear Repulsion Energy =            272.1426257358991734
    One-Electron Energy =                -907.1411581521190328
    Two-Electron Energy =                 363.8248036843148157
    DFT Exchange-Correlation Energy =       0.0000000000000000
    Empirical Dispersion Energy =           0.0000000000000000
    PCM Polarization Energy =               0.0000000000000000
    EFP Energy =                            0.0000000000000000
    Total Energy =                       -271.1737287319050438
    Molecular point group: c1
  Basis Set: 6-31G*
  Basis Set:

  -Total Gradient:
     Atom            X                  Y                   Z
    ------   -----------------  -----------------  -----------------
       1       -0.000018648222     0.000025926547    -0.000010769770
       2        0.000738634727     0.002700860625    -0.001364730725
       3       -0.001103251728    -0.005257404903     0.002060445149
       4       -0.000003673296    -0.000012480410    -0.000022128411
       5        0.000028955452     0.000014807812     0.000007731254
       6        0.000472700084     0.005229030195    -0.000560179942
       7       -0.000034487016    -0.002706161412    -0.000103218739
       8       -0.000018273209     0.000005891001     0.000002179728
       9       -0.000039683204    -0.000014491089     0.000004038033
      10        0.000002564971    -0.000011341884    -0.000010271791
      11        0.000012820238     0.000014759261    -0.000004059001
      12        0.000003013682     0.000005923850    -0.000001319952
      13       -0.000003455909     0.000014246674     0.000006492551
      14       -0.000011629507    -0.000006120292    -0.000014613973
      15       -0.000006892949     0.000001426234     0.000007613989
      16       -0.000002576200    -0.000010680052     0.000008407857
      17       -0.000011454384     0.000009679859    -0.000015050476
      18       -0.000004663531    -0.000003872016     0.000009434217

  **** Optimization is complete! (in 11 steps) ****
    Final optimized geometry and variables:
    Molecular point group: c1

    Geometry (in Angstrom), charge = 0, multiplicity = 1:

    H           -0.846085927052    -1.512916588443    -1.619183405382
    C           -1.141050737141    -0.466187730979    -1.609200275308
    O           -1.007876927993     0.115563704434    -0.350702063559
    H           -2.190953530212    -0.409091018894    -1.864267581597
    H           -0.574474357017     0.060329502154    -2.370586622176
    C            0.242794419208     0.094504152377     0.321579844616
    C            1.441886143676     0.097020182573    -0.631533899416
    C            0.245449220074     1.356519263083     1.179489095071
    C            0.282468865983    -1.155737519104     1.205848645685
    H            1.409941578993     0.948916531289    -1.303036584904
    H            1.494874776051    -0.807446124187    -1.226788932463
    H            2.358955389123     0.162965883014    -0.055985823870
    H            0.216138124828     2.239838592491     0.550855329038
    H            1.132343998653     1.404048002869     1.803573768909
    H           -0.628672307453     1.370852209382     1.820436069826
    H            0.227973201150    -2.057742036032     0.604043121724
    H            1.197644439372    -1.198143550991     1.788605397169
    H           -0.560684553099    -1.155995080703     1.887465504853

  Mulliken Charges: (a.u.)
   Center  Symbol    Alpha    Beta     Spin     Total
       1     H     0.43214  0.43214  0.00000  0.13572
       2     C     3.07728  3.07728  0.00000 -0.15456
       3     O     4.32209  4.32209  0.00000 -0.64419
       4     H     0.41248  0.41248  0.00000  0.17504
       5     H     0.42807  0.42807  0.00000  0.14385
       6     C     2.84122  2.84122  0.00000  0.31756
       7     C     3.25626  3.25626  0.00000 -0.51251
       8     C     3.23220  3.23220  0.00000 -0.46440
       9     C     3.23553  3.23553  0.00000 -0.47107
      10     H     0.41449  0.41449  0.00000  0.17102
      11     H     0.41739  0.41739  0.00000  0.16522
      12     H     0.41546  0.41546  0.00000  0.16908
      13     H     0.41705  0.41705  0.00000  0.16589
      14     H     0.42540  0.42540  0.00000  0.14921
      15     H     0.41279  0.41279  0.00000  0.17441
      16     H     0.42165  0.42165  0.00000  0.15669
      17     H     0.42469  0.42469  0.00000  0.15061
      18     H     0.41379  0.41379  0.00000  0.17241

   Total alpha = 25.00000, Total beta = 25.00000, Total charge = -0.00000
