                              Psi4 1.0.54 Driver

  ==> Input File <==

--------------------------------------------------------------------------
set {
	reference rhf
	basis cc-pvtz
}

set_num_threads( 4 )
memory 2 gb

molecule MOL {
0 1

O	 2.868453	 1.353349	 -0.000734
C	 2.841259	 0.166180	 -0.000295
C	 1.542794	 -0.614730	 -0.000853
C	 4.113372	 -0.651103	 0.000743
C	 0.288398	 0.247429	 0.000314
H	 1.557171	 -1.273139	 -0.866508
H	 1.557484	 -1.274998	 0.863344
C	 -0.993089	 -0.581367	 -0.000217
H	 0.305153	 0.900562	 -0.864701
H	 0.305567	 0.898805	 0.866656
C	 -2.258482	 0.271340	 0.000669
H	 -1.002280	 -1.233920	 -0.870484
H	 -1.002061	 -1.235367	 0.868958
C	 -3.520194	 -0.514649	 0.345692
H	 -2.380029	 0.733212	 -0.976067
H	 -2.140029	 1.087672	 0.708975
C	 -4.780457	 0.344144	 0.344481
H	 -3.640047	 -1.330133	 -0.362517
H	 -3.400103	 -0.975626	 1.322420
H	 -4.947687	 0.792061	 -0.629401
H	 -5.656868	 -0.243459	 0.592771
H	 -4.706083	 1.149013	 1.068151
H	 4.145311	 -1.294584	 -0.871587
H	 4.970080	 0.004978	 -0.000091
H	 4.145223	 -1.291980	 0.874988

	symmetry c1
}
set optking {
	frozen_dihedral = ("
		15 11 8 12
	")
}

ee,wfn = optimize('scf', return_wfn=True)
oeprop( wfn, 'DIPOLE', 'QUADRUPOLE', 'MULLIKEN_CHARGES')
f=open( 'psi4out.xyz', 'w' )
f.write( "25  " )
f.write( str(ee) + "\n" )
f.write( MOL.save_string_xyz() )
f.close()
--------------------------------------------------------------------------

    Molecular point group: c1
  Charge       = 0
  Multiplicity = 1
  Basis Set: CC-PVTZ
  Basis Set:
  @DF-RHF Final Energy:  -387.27394041256241
    Total Energy =                       -387.2739404125619558
    Molecular point group: c1
  Basis Set: CC-PVTZ
  Basis Set:
  Basis Set: CC-PVTZ
  Basis Set:
  @DF-RHF Final Energy:  -387.27398827819940
    Total Energy =                       -387.2739882781991128
  Basis Set: CC-PVTZ
  Basis Set:
  Basis Set: CC-PVTZ
  Basis Set:
  @DF-RHF Final Energy:  -387.27404280902704
    Total Energy =                       -387.2740428090269234
  Basis Set: CC-PVTZ
  Basis Set:
  Basis Set: CC-PVTZ
  Basis Set:
  @DF-RHF Final Energy:  -387.27386336402463
    Total Energy =                       -387.2738633640248054
  Basis Set: CC-PVTZ
  Basis Set:
  Basis Set: CC-PVTZ
  Basis Set:
  @DF-RHF Final Energy:  -387.27405496121997
    Total Energy =                       -387.2740549612196901
  Basis Set: CC-PVTZ
  Basis Set:
  Charge       = 0
  Multiplicity = 1
  Basis Set: CC-PVTZ
  Basis Set:

    Orbital Energies (a.u.)
    -----------------------

    Doubly Occupied:

       1A    -20.538837     2A    -11.320469     3A    -11.230082
       4A    -11.226555     5A    -11.215224     6A    -11.214568
       7A    -11.213417     8A    -11.211551     9A    -11.206357
      10A     -1.398876    11A     -1.095029    12A     -1.057576
      13A     -1.015509    14A     -0.969996    15A     -0.891533
      16A     -0.814627    17A     -0.791098    18A     -0.731009
      19A     -0.662773    20A     -0.654235    21A     -0.633735
      22A     -0.626487    23A     -0.597470    24A     -0.584869
      25A     -0.567416    26A     -0.560499    27A     -0.540957
      28A     -0.527565    29A     -0.513395    30A     -0.492168
      31A     -0.489253    32A     -0.474411    33A     -0.463759
      34A     -0.462939    35A     -0.451967    36A     -0.401307

  @DF-RHF Final Energy:  -387.27405524290856

   => Energetics <=

    Nuclear Repulsion Energy =            439.1680456785190358
    One-Electron Energy =               -1395.1891687054367139
    Two-Electron Energy =                 568.7470677840090048
    DFT Exchange-Correlation Energy =       0.0000000000000000
    Empirical Dispersion Energy =           0.0000000000000000
    PCM Polarization Energy =               0.0000000000000000
    EFP Energy =                            0.0000000000000000
    Total Energy =                       -387.2740552429086165
    Molecular point group: c1
  Basis Set: CC-PVTZ
  Basis Set:

  -Total Gradient:
     Atom            X                  Y                   Z
    ------   -----------------  -----------------  -----------------
       1       -0.000002006221     0.000016840493    -0.000000487048
       2       -0.000020921197    -0.000044155767    -0.000001319765
       3        0.000025700760    -0.000000193225    -0.000001447229
       4       -0.000000265526    -0.000010453626    -0.000003900132
       5       -0.000010802385     0.000010425708     0.000026004926
       6        0.000006721518     0.000004219305     0.000003392881
       7        0.000005469392     0.000004836534    -0.000003971370
       8       -0.001764352149    -0.002570860957     0.001420973233
       9       -0.000005276507     0.000000194671     0.000004116706
      10        0.000006231520     0.000000857197    -0.000005809354
      11        0.001888058562     0.002788248811     0.000628946094
      12        0.001185179553     0.001723575654    -0.001310783948
      13       -0.000000658967     0.000009023402    -0.000002010529
      14        0.000022869760    -0.000004502572     0.000019501865
      15       -0.001313929237    -0.001946455628    -0.000768151989
      16       -0.000000200949    -0.000011100164    -0.000002927916
      17       -0.000014115742     0.000021210473    -0.000008972116
      18        0.000002834505     0.000007060328     0.000012630951
      19       -0.000004228567     0.000000066300    -0.000010693336
      20        0.000004225803    -0.000001214417     0.000015878118
      21        0.000010566596    -0.000001564944    -0.000005613374
      22       -0.000001396161    -0.000010610104    -0.000008233023
      23       -0.000001697124     0.000005048463     0.000005765312
      24       -0.000015695793     0.000003618703     0.000000489275
      25       -0.000002311448     0.000005885365    -0.000003378232

  **** Optimization is complete! (in 6 steps) ****
    Final optimized geometry and variables:
    Molecular point group: c1

    Geometry (in Angstrom), charge = 0, multiplicity = 1:

    O            2.866581343979     1.343646035384    -0.075156165492
    C            2.837909949836     0.156670458111    -0.091652548747
    C            1.538755936699    -0.623032852323    -0.078919053630
    C            4.108793548820    -0.661861593652    -0.126810899038
    C            0.285499121184     0.239931471658    -0.042720036874
    H            1.536828869831    -1.269697591473    -0.953453678178
    H            1.568670834846    -1.295002419171     0.775913997214
    C           -0.997592482129    -0.588073373615    -0.023728177439
    H            0.284216135377     0.901595435063    -0.901710367220
    H            0.321675237073     0.882926140309     0.829111922092
    C           -2.260469713597     0.271172199502    -0.038163622737
    H           -1.003988437317    -1.242185937044    -0.892418780843
    H           -1.001558357704    -1.229776771794     0.853825613766
    C           -3.530463337932    -0.519199886133     0.268838139677
    H           -2.367776164858     0.728647042899    -1.018312344730
    H           -2.160811985981     1.081823400580     0.678477088198
    C           -4.795583288913     0.329811570819     0.203766700331
    H           -3.616142613968    -1.346845579935    -0.430496147729
    H           -3.446089721704    -0.963866318745     1.256656857779
    H           -4.929661962588     0.757633145921    -0.784173595243
    H           -5.676676334392    -0.259329325706     0.430987746833
    H           -4.753508040050     1.149135394411     0.913754036606
    H            4.123215631011    -1.292377060293    -1.008987895056
    H            4.966246941595    -0.006758669994    -0.134334883695
    H            4.156332092218    -1.315509500039     0.737196170903

  Mulliken Charges: (a.u.)
   Center  Symbol    Alpha    Beta     Spin     Total
       1     O     4.17073  4.17073  0.00000 -0.34146
       2     C     2.86217  2.86217  0.00000  0.27566
       3     C     3.11425  3.11425  0.00000 -0.22850
       4     C     3.15129  3.15129  0.00000 -0.30259
       5     C     3.08304  3.08304  0.00000 -0.16608
       6     H     0.44555  0.44555  0.00000  0.10890
       7     H     0.44555  0.44555  0.00000  0.10890
       8     C     3.09049  3.09049  0.00000 -0.18098
       9     H     0.44595  0.44595  0.00000  0.10810
      10     H     0.44627  0.44627  0.00000  0.10747
      11     C     3.08653  3.08653  0.00000 -0.17306
      12     H     0.45560  0.45560  0.00000  0.08881
      13     H     0.45589  0.45589  0.00000  0.08821
      14     C     3.08427  3.08427  0.00000 -0.16854
      15     H     0.45385  0.45385  0.00000  0.09231
      16     H     0.45325  0.45325  0.00000  0.09350
      17     C     3.15035  3.15035  0.00000 -0.30069
      18     H     0.45532  0.45532  0.00000  0.08935
      19     H     0.45514  0.45514  0.00000  0.08973
      20     H     0.45499  0.45499  0.00000  0.09003
      21     H     0.44869  0.44869  0.00000  0.10261
      22     H     0.45466  0.45466  0.00000  0.09069
      23     H     0.45043  0.45043  0.00000  0.09914
      24     H     0.43536  0.43536  0.00000  0.12929
      25     H     0.45039  0.45039  0.00000  0.09922

   Total alpha = 36.00000, Total beta = 36.00000, Total charge = -0.00000

*** Psi4 exiting successfully. Buy a developer a beer!
