                              Psi4 1.0.54 Driver

  ==> Input File <==

--------------------------------------------------------------------------
set {
	reference rhf
	basis cc-pvtz
}

set_num_threads( 4 )
memory 2 gb

molecule MOL {
0 1

O	 -0.060339	 0.585049	 -0.966179
C	 0.485107	 0.171416	 -0.000134
C	 1.606966	 -0.836201	 0.000174
O	 0.174995	 0.547220	 1.228356
C	 2.988788	 -0.202529	 -0.000115
H	 1.465110	 -1.474645	 -0.864821
H	 1.465209	 -1.474077	 0.865596
H	 3.131767	 0.419673	 -0.873407
H	 3.750876	 -0.972315	 0.000098
H	 3.131883	 0.420264	 0.872742
C	 -0.868819	 1.497742	 1.387248
C	 -1.033424	 1.759841	 2.865996
H	 -1.775399	 1.102719	 0.950879
H	 -0.609803	 2.399610	 0.850715
H	 -1.291601	 0.849769	 3.392766
H	 -1.824811	 2.483190	 3.023178
H	 -0.119411	 2.154103	 3.292034

	symmetry c1
}
set optking {
	frozen_dihedral = ("
		4 2 3 6
	")
}

ee,wfn = optimize('scf', return_wfn=True)
oeprop( wfn, 'DIPOLE', 'QUADRUPOLE', 'MULLIKEN_CHARGES')
f=open( 'psi4out.xyz', 'w' )
f.write( "17  " )
f.write( str(ee) + "\n" )
f.write( MOL.save_string_xyz() )
f.close()
--------------------------------------------------------------------------

    Molecular point group: c1
  Charge       = 0
  Multiplicity = 1
  Basis Set: CC-PVTZ
  Basis Set:
  @DF-RHF Final Energy:  -345.03839997733991
    Total Energy =                       -345.0383999773396226
    Molecular point group: c1
  Basis Set: CC-PVTZ
  Basis Set:
  Basis Set: CC-PVTZ
  Basis Set:
  @DF-RHF Final Energy:  -345.03889691903487
    Total Energy =                       -345.0388969190346415
  Basis Set: CC-PVTZ
  Basis Set:
  Basis Set: CC-PVTZ
  Basis Set:
  @DF-RHF Final Energy:  -345.03776279427115
    Total Energy =                       -345.0377627942708614
  Basis Set: CC-PVTZ
  Basis Set:
  Basis Set: CC-PVTZ
  Basis Set:
  @DF-RHF Final Energy:  -345.03902657877717
    Total Energy =                       -345.0390265787774524
  Basis Set: CC-PVTZ
  Basis Set:
  Basis Set: CC-PVTZ
  Basis Set:
  @DF-RHF Final Energy:  -345.03903139683803
    Total Energy =                       -345.0390313968380269
  Basis Set: CC-PVTZ
  Basis Set:
  Charge       = 0
  Multiplicity = 1
  Basis Set: CC-PVTZ
  Basis Set:

    Orbital Energies (a.u.)
    -----------------------

    Doubly Occupied:

       1A    -20.594903     2A    -20.530673     3A    -11.362548
       4A    -11.282634     5A    -11.234401     6A    -11.224668
       7A    -11.220640     8A     -1.470243     9A     -1.363491
      10A     -1.073169    11A     -1.032399    12A     -0.909307
      13A     -0.854507    14A     -0.779265    15A     -0.696524
      16A     -0.685552    17A     -0.670540    18A     -0.616438
      19A     -0.601898    20A     -0.575712    21A     -0.554462
      22A     -0.539980    23A     -0.527400    24A     -0.508904
      25A     -0.503935    26A     -0.497893    27A     -0.454969
      28A     -0.434764

  @DF-RHF Final Energy:  -345.03903217846909

   => Energetics <=

    Nuclear Repulsion Energy =            316.8356850134205729
    One-Electron Energy =               -1098.1457987936148584
    Two-Electron Energy =                 436.2710816017247453
    DFT Exchange-Correlation Energy =       0.0000000000000000
    Empirical Dispersion Energy =           0.0000000000000000
    PCM Polarization Energy =               0.0000000000000000
    EFP Energy =                            0.0000000000000000
    Total Energy =                       -345.0390321784695971
    Molecular point group: c1
  Basis Set: CC-PVTZ
  Basis Set:

  -Total Gradient:
     Atom            X                  Y                   Z
    ------   -----------------  -----------------  -----------------
       1       -0.000051210656     0.000066758747    -0.000054261550
       2        0.000251403181     0.000216190319     0.000060207949
       3        0.000208954629     0.000231241614    -0.000235176947
       4       -0.000130597897    -0.000230595587    -0.000015807038
       5       -0.000030065027    -0.000043609345     0.000035026918
       6       -0.000210577970    -0.000238470327     0.000159528436
       7        0.000035164625    -0.000050462869     0.000048512294
       8       -0.000006790042     0.000013329275    -0.000029977102
       9       -0.000000730776    -0.000005039607     0.000002745065
      10        0.000014562917     0.000019577604     0.000023378574
      11       -0.000078725885    -0.000081514654     0.000004967468
      12        0.000003575962     0.000037320516    -0.000009008753
      13       -0.000051710900     0.000012263790    -0.000012704730
      14        0.000031191085     0.000062677469    -0.000028463240
      15       -0.000019852976    -0.000049994136     0.000016090666
      16       -0.000014795178     0.000018953977     0.000000479574
      17        0.000050204905     0.000021373214     0.000034462414

  **** Optimization is complete! (in 6 steps) ****
    Final optimized geometry and variables:
    Molecular point group: c1

    Geometry (in Angstrom), charge = 0, multiplicity = 1:

    O           -0.457701767373     0.104588410248    -1.618098319288
    C            0.027704066082    -0.356764072510    -0.640750221236
    C            1.127591343929    -1.387304852812    -0.644078833130
    O           -0.318743930283     0.001857322576     0.582756735073
    C            2.503749834099    -0.716673973758    -0.662510018056
    H            0.996536991279    -1.995972990902    -1.527427377195
    H            1.031281956870    -2.015281078188     0.231114349339
    H            2.614032877235    -0.089720835532    -1.538226494671
    H            3.283699668936    -1.467013463139    -0.683005956093
    H            2.650496167670    -0.103958865318     0.218581928330
    C           -1.314245602105     1.006399714300     0.721351449367
    C           -1.529281190309     1.243216529172     2.197953319849
    H           -2.220785505471     0.673290021575     0.236191476699
    H           -0.981683817416     1.904092867624     0.219254054729
    H           -1.861079443620     0.337320565126     2.689681482023
    H           -2.285356367285     2.006529295262     2.339263950916
    H           -0.614624346369     1.575192376712     2.673165818134

  Mulliken Charges: (a.u.)
   Center  Symbol    Alpha    Beta     Spin     Total
       1     O     4.20346  4.20346  0.00000 -0.40692
       2     C     2.80359  2.80359  0.00000  0.39283
       3     C     3.08332  3.08332  0.00000 -0.16664
       4     O     4.15402  4.15402  0.00000 -0.30804
       5     C     3.15078  3.15078  0.00000 -0.30155
       6     H     0.43993  0.43993  0.00000  0.12015
       7     H     0.44500  0.44500  0.00000  0.11001
       8     H     0.44515  0.44515  0.00000  0.10970
       9     H     0.44779  0.44779  0.00000  0.10443
      10     H     0.45004  0.45004  0.00000  0.09993
      11     C     2.97927  2.97927  0.00000  0.04146
      12     C     3.13319  3.13319  0.00000 -0.26638
      13     H     0.45294  0.45294  0.00000  0.09412
      14     H     0.45429  0.45429  0.00000  0.09142
      15     H     0.45131  0.45131  0.00000  0.09738
      16     H     0.45429  0.45429  0.00000  0.09141
      17     H     0.45166  0.45166  0.00000  0.09669

   Total alpha = 28.00000, Total beta = 28.00000, Total charge =  0.00000

*** Psi4 exiting successfully. Buy a developer a beer!
