  ==> Input File <==

--------------------------------------------------------------------------
set {
	reference rhf
	basis 6-31G*
}

set_num_threads( 4 )
memory 2 gb

molecule MOL {
0 1

H	 -2.820289	 -0.070277	 0.869895
O	 -2.347518	 -0.290803	 0.079804
C	 -1.184022	 0.487508	 -0.006784
C	 0.062599	 -0.378592	 0.031606
H	 -1.176523	 1.099369	 -0.904519
H	 -1.187323	 1.153111	 0.844927
O	 1.171513	 0.459272	 -0.058250
H	 0.050699	 -1.089204	 -0.797170
H	 0.078739	 -0.954914	 0.954740
C	 2.397842	 -0.198080	 -0.002151
H	 2.508049	 -0.905315	 -0.822092
H	 3.173794	 0.550865	 -0.078850
H	 2.517602	 -0.735921	 0.936026

	symmetry c1
}
set optking {
	frozen_dihedral = ("
		1 2 3 5
	")
}

ee = optimize('scf')
oeprop('DIPOLE', 'QUADRUPOLE', 'MULLIKEN_CHARGES')
f=open( 'psi4out.xyz', 'w' )
f.write( "13  " )
f.write( str(ee) + "\n" )
f.write( MOL.save_string_xyz() )
f.close()
--------------------------------------------------------------------------

    Molecular point group: c1
  Charge       = 0
  Multiplicity = 1
  Basis Set: 6-31G*
  Basis Set:
  @DF-RHF Final Energy:  -267.94817576241405
    Total Energy =                       -267.9481757624139391
    Molecular point group: c1
  Basis Set: 6-31G*
  Basis Set:
  Basis Set: 6-31G*
  Basis Set:
  @DF-RHF Final Energy:  -267.94925133692755
    Total Energy =                       -267.9492513369276026
  Basis Set: 6-31G*
  Basis Set:
  Basis Set: 6-31G*
  Basis Set:
  @DF-RHF Final Energy:  -267.94954516097766
    Total Energy =                       -267.9495451609776637
  Basis Set: 6-31G*
  Basis Set:
  Basis Set: 6-31G*
  Basis Set:
  @DF-RHF Final Energy:  -267.94955057022639
    Total Energy =                       -267.9495505702266200
  Basis Set: 6-31G*
  Basis Set:
  Charge       = 0
  Multiplicity = 1
  Basis Set: 6-31G*
  Basis Set:

    Orbital Energies (a.u.)
    -----------------------

    Doubly Occupied:

       1A    -20.559081     2A    -20.558118     3A    -11.269212
       4A    -11.267674     5A    -11.266163     6A     -1.385352
       7A     -1.362918     8A     -1.017638     9A     -0.911538
      10A     -0.834100    11A     -0.712359    12A     -0.676759
      13A     -0.647025    14A     -0.640340    15A     -0.603927
      16A     -0.551965    17A     -0.545996    18A     -0.490502
      19A     -0.477897    20A     -0.437343    21A     -0.418594

  @DF-RHF Final Energy:  -267.94955137799695

   => Energetics <=

    Nuclear Repulsion Energy =            190.2054130823899527
    One-Electron Energy =                -743.0409216280463625
    Two-Electron Energy =                 284.8859571676593418
    DFT Exchange-Correlation Energy =       0.0000000000000000
    Empirical Dispersion Energy =           0.0000000000000000
    PCM Polarization Energy =               0.0000000000000000
    EFP Energy =                            0.0000000000000000
    Total Energy =                       -267.9495513779971247
    Molecular point group: c1
  Basis Set: 6-31G*
  Basis Set:

  -Total Gradient:
     Atom            X                  Y                   Z
    ------   -----------------  -----------------  -----------------
       1       -0.000060066403     0.000076672587    -0.000069778244
       2        0.000068035977    -0.000046432686     0.000098475609
       3        0.000004515747    -0.000137304754    -0.000052495280
       4       -0.000010318069     0.000028012077    -0.000019690743
       5       -0.000028124509     0.000062237435     0.000048152212
       6        0.000008156687    -0.000001220145     0.000001685708
       7        0.000032605915     0.000007268110    -0.000007546916
       8        0.000000191832    -0.000004677292    -0.000002163200
       9       -0.000017491277     0.000009543842    -0.000001935347
      10        0.000005148249     0.000006115891     0.000007917893
      11       -0.000004915596     0.000002595586    -0.000000714478
      12        0.000000126611    -0.000000357798    -0.000001400831
      13        0.000002134838    -0.000002452854    -0.000000506383

  **** Optimization is complete! (in 5 steps) ****
    Final optimized geometry and variables:
    Molecular point group: c1

    Geometry (in Angstrom), charge = 0, multiplicity = 1:

    H           -2.852162544568    -0.115792430956     0.777293465287
    O           -2.322682988211    -0.325696843628     0.023997270528
    C           -1.180918392214     0.494516776362    -0.014894304863
    C            0.059115669555    -0.375843133168     0.036388801660
    H           -1.181706334051     1.069613826611    -0.933359364342
    H           -1.162578625100     1.196750694484     0.812344547177
    O            1.172866014100     0.458432193511    -0.051456758657
    H            0.037835684098    -1.087498902437    -0.786802416660
    H            0.072196407297    -0.946053410697     0.964383947564
    C            2.394165175423    -0.210035148814    -0.044092928345
    H            2.477866043724    -0.893758395975    -0.886440987005
    H            3.175066665600     0.534324942278    -0.117566521079
    H            2.532110735137    -0.776366853923     0.875024985493

  Mulliken Charges: (a.u.)
   Center  Symbol    Alpha    Beta     Spin     Total
       1     H     0.27746  0.27746  0.00000  0.44508
       2     O     4.37516  4.37516  0.00000 -0.75032
       3     C     3.00590  3.00590  0.00000 -0.01180
       4     C     2.99129  2.99129  0.00000  0.01742
       5     H     0.41481  0.41481  0.00000  0.17039
       6     H     0.42357  0.42357  0.00000  0.15286
       7     O     4.30924  4.30924  0.00000 -0.61848
       8     H     0.42355  0.42355  0.00000  0.15290
       9     H     0.43071  0.43071  0.00000  0.13859
      10     C     3.07942  3.07942  0.00000 -0.15884
      11     H     0.42803  0.42803  0.00000  0.14394
      12     H     0.41164  0.41164  0.00000  0.17671
      13     H     0.42922  0.42922  0.00000  0.14155

   Total alpha = 21.00000, Total beta = 21.00000, Total charge =  0.00000
