  ==> Input File <==

--------------------------------------------------------------------------
set {
	reference rhf
	basis 6-31G*
}

set_num_threads( 4 )
memory 2 gb

molecule MOL {
0 1

O	 -2.099195	 -0.943702	 1.498153
C	 -1.740069	 0.060429	 0.973728
C	 -2.471735	 1.374041	 1.032343
O	 -0.632575	 0.154573	 0.251549
H	 -2.728808	 1.695132	 0.029467
H	 -3.366632	 1.264395	 1.626458
H	 -1.829117	 2.132039	 1.465052
C	 0.160891	 -1.019931	 0.106212
C	 1.589627	 -0.672828	 0.480843
H	 0.089836	 -1.367806	 -0.916050
H	 -0.238459	 -1.792301	 0.749618
C	 2.246377	 0.346236	 -0.452210
H	 2.163194	 -1.597435	 0.473358
H	 1.604769	 -0.303424	 1.502885
C	 3.691736	 0.652107	 -0.061850
H	 2.219579	 -0.032311	 -1.472055
H	 1.666466	 1.263317	 -0.447249
H	 4.134505	 1.377213	 -0.737283
H	 4.305508	 -0.243868	 -0.089969
H	 3.748266	 1.059562	 0.943567

	symmetry c1
}
set optking {
	frozen_dihedral = ("
		2 4 8 10
	")
}

ee = optimize('scf')
oeprop('DIPOLE', 'QUADRUPOLE', 'MULLIKEN_CHARGES')
f=open( 'psi4out.xyz', 'w' )
f.write( "20  " )
f.write( str(ee) + "\n" )
f.write( MOL.save_string_xyz() )
f.close()
--------------------------------------------------------------------------

    Molecular point group: c1
  Charge       = 0
  Multiplicity = 1
  Basis Set: 6-31G*
  Basis Set:
  @DF-RHF Final Energy:  -383.94288499054630
    Total Energy =                       -383.9428849905460766
    Molecular point group: c1
  Basis Set: 6-31G*
  Basis Set:
  Basis Set: 6-31G*
  Basis Set:
  @DF-RHF Final Energy:  -383.94313242912972
    Total Energy =                       -383.9431324291299461
  Basis Set: 6-31G*
  Basis Set:
  Basis Set: 6-31G*
  Basis Set:
  @DF-RHF Final Energy:  -383.94350622961440
    Total Energy =                       -383.9435062296145134
  Basis Set: 6-31G*
  Basis Set:
  Basis Set: 6-31G*
  Basis Set:
  @DF-RHF Final Energy:  -383.94361130601317
    Total Energy =                       -383.9436113060130538
  Basis Set: 6-31G*
  Basis Set:
  Basis Set: 6-31G*
  Basis Set:
  @DF-RHF Final Energy:  -383.94368417668466
    Total Energy =                       -383.9436841766845419
  Basis Set: 6-31G*
  Basis Set:
  Basis Set: 6-31G*
  Basis Set:
  @DF-RHF Final Energy:  -383.94369241600185
    Total Energy =                       -383.9436924160016815
  Basis Set: 6-31G*
  Basis Set:
  Charge       = 0
  Multiplicity = 1
  Basis Set: 6-31G*
  Basis Set:

    Orbital Energies (a.u.)
    -----------------------

    Doubly Occupied:

       1A    -20.600942     2A    -20.543768     3A    -11.376197
       4A    -11.280983     5A    -11.232964     6A    -11.225239
       7A    -11.220245     8A    -11.213273     9A     -1.465542
      10A     -1.362912    11A     -1.085451    12A     -1.028291
      13A     -0.980803    14A     -0.882928    15A     -0.816409
      16A     -0.764887    17A     -0.695357    18A     -0.684151
      19A     -0.661334    20A     -0.630905    21A     -0.598540
      22A     -0.593661    23A     -0.569908    24A     -0.562027
      25A     -0.541009    26A     -0.525383    27A     -0.517525
      28A     -0.488919    29A     -0.475026    30A     -0.465451
      31A     -0.445015    32A     -0.438777

  @DF-RHF Final Energy:  -383.94369263169926

   => Energetics <=

    Nuclear Repulsion Energy =            385.3469851215078279
    One-Electron Energy =               -1286.6337079943480148
    Two-Electron Energy =                 517.3430302411408093
    DFT Exchange-Correlation Energy =       0.0000000000000000
    Empirical Dispersion Energy =           0.0000000000000000
    PCM Polarization Energy =               0.0000000000000000
    EFP Energy =                            0.0000000000000000
    Total Energy =                       -383.9436926316993777
    Molecular point group: c1
  Basis Set: 6-31G*
  Basis Set:

  -Total Gradient:
     Atom            X                  Y                   Z
    ------   -----------------  -----------------  -----------------
       1       -0.000014907577    -0.000003637183    -0.000019572564
       2        0.000253374216     0.000104698644     0.000420037953
       3       -0.000007275404    -0.000004251467    -0.000028083519
       4       -0.000209444878    -0.000116853935    -0.000608648079
       5        0.000000565493     0.000007002657    -0.000000382274
       6        0.000006310461    -0.000006415284    -0.000002050703
       7        0.000001392930     0.000001379399     0.000003012731
       8       -0.000351238365    -0.000318593040     0.000372248543
       9       -0.000008610917     0.000016058166    -0.000003105859
      10        0.000347698505     0.000315116780    -0.000121138637
      11        0.000003646288     0.000001712363    -0.000006889984
      12        0.000001926101    -0.000009154680    -0.000006436761
      13       -0.000017467565    -0.000009242475    -0.000003605105
      14        0.000002229303     0.000002467350     0.000000525523
      15       -0.000003239586     0.000008843044     0.000007852922
      16       -0.000002993658     0.000000574092    -0.000000262606
      17       -0.000002448658     0.000010224527    -0.000004761351
      18       -0.000000818273     0.000001205194     0.000001712010
      19       -0.000001865389    -0.000000228222    -0.000002386110
      20        0.000003166980    -0.000000905930     0.000001933871

  **** Optimization is complete! (in 7 steps) ****
    Final optimized geometry and variables:
    Molecular point group: c1

    Geometry (in Angstrom), charge = 0, multiplicity = 1:

    O           -2.244801425619    -0.921330275474     1.022888044003
    C           -1.840269037802     0.059955729892     0.488941877330
    C           -2.530628381772     1.397093812318     0.518563184232
    O           -0.717877224843     0.121990838425    -0.215984965655
    H           -2.760966551203     1.711413371855    -0.492851210950
    H           -3.437975272186     1.323673440223     1.099185114305
    H           -1.871086340106     2.140498091862     0.951096896730
    C            0.097415868230    -1.040615687410    -0.354807848635
    C            1.535216579011    -0.692164453605    -0.009377323313
    H            0.015386367682    -1.360482408011    -1.386704235077
    H           -0.283769794017    -1.820408771007     0.283588303060
    C            2.157939906522     0.363089106166    -0.924885126513
    H            2.116566588278    -1.610817602526    -0.062195544697
    H            1.574935319946    -0.357051296879     1.024176178300
    C            3.607793114339     0.676899354288    -0.558017952915
    H            2.112913383871     0.014526510413    -1.954769286746
    H            1.565941465378     1.271439717798    -0.881008861460
    H            4.026446641522     1.426052307296    -1.222536838955
    H            4.232036168805    -0.209842352686    -0.624222660887
    H            3.681888768605     1.057208495174     0.456877944690

  Mulliken Charges: (a.u.)
   Center  Symbol    Alpha    Beta     Spin     Total
       1     O     4.28283  4.28283  0.00000 -0.56566
       2     C     2.61932  2.61932  0.00000  0.76137
       3     C     3.28233  3.28233  0.00000 -0.56466
       4     O     4.30986  4.30986  0.00000 -0.61972
       5     H     0.40038  0.40038  0.00000  0.19925
       6     H     0.39708  0.39708  0.00000  0.20584
       7     H     0.40118  0.40118  0.00000  0.19765
       8     C     3.01283  3.01283  0.00000 -0.02566
       9     C     3.16235  3.16235  0.00000 -0.32470
      10     H     0.41536  0.41536  0.00000  0.16929
      11     H     0.39131  0.39131  0.00000  0.21738
      12     C     3.15484  3.15484  0.00000 -0.30969
      13     H     0.41923  0.41923  0.00000  0.16155
      14     H     0.41599  0.41599  0.00000  0.16802
      15     C     3.24027  3.24027  0.00000 -0.48054
      16     H     0.42319  0.42319  0.00000  0.15362
      17     H     0.41158  0.41158  0.00000  0.17683
      18     H     0.41769  0.41769  0.00000  0.16463
      19     H     0.42169  0.42169  0.00000  0.15663
      20     H     0.42072  0.42072  0.00000  0.15856

   Total alpha = 32.00000, Total beta = 32.00000, Total charge = -0.00000
