  ==> Input File <==

--------------------------------------------------------------------------
set {
	reference rhf
	basis 6-31G*
}

set_num_threads( 4 )
memory 2 gb

molecule MOL {
0 1

O	 3.225979	 0.970355	 -0.599647
C	 2.701189	 0.057885	 -0.047330
C	 1.245376	 -0.013843	 0.345420
O	 3.347903	 -1.046386	 0.304773
C	 0.729133	 1.278823	 0.973608
H	 0.688291	 -0.283918	 -0.545596
H	 1.136162	 -0.851857	 1.029161
C	 -0.716740	 1.187678	 1.473247
H	 0.819672	 2.087856	 0.255007
H	 1.375807	 1.542135	 1.803610
C	 -1.768525	 1.003924	 0.375480
H	 -0.941960	 2.099868	 2.020887
H	 -0.800883	 0.375226	 2.193560
C	 -3.200643	 1.029146	 0.913439
H	 -1.650108	 1.790192	 -0.368549
H	 -1.605807	 0.063212	 -0.145630
C	 -4.260006	 0.841203	 -0.174016
H	 -3.376054	 1.973816	 1.425362
H	 -3.316665	 0.250051	 1.665270
C	 -5.687518	 0.871470	 0.370955
H	 -4.144862	 1.618325	 -0.926655
H	 -4.088950	 -0.104567	 -0.683957
H	 -6.415155	 0.735662	 -0.423217
H	 -5.901563	 1.819179	 0.856987
H	 -5.844929	 0.083376	 1.101984
C	 4.728119	 -1.109107	 -0.004993
H	 4.882018	 -1.033965	 -1.071845
H	 5.068212	 -2.067527	 0.355250
H	 5.265056	 -0.311663	 0.488280

	symmetry c1
}
set optking {
	frozen_dihedral = ("
		6 3 2 1
	")
}

ee = optimize('scf')
oeprop('DIPOLE', 'QUADRUPOLE', 'MULLIKEN_CHARGES')
f=open( 'psi4out.xyz', 'w' )
f.write( "29  " )
f.write( str(ee) + "\n" )
f.write( MOL.save_string_xyz() )
f.close()
--------------------------------------------------------------------------

    Molecular point group: c1
  Charge       = 0
  Multiplicity = 1
  Basis Set: 6-31G*
  Basis Set:
  @DF-RHF Final Energy:  -501.04254352292674
    Total Energy =                       -501.0425435229269624
    Molecular point group: c1
  Basis Set: 6-31G*
  Basis Set:
  Basis Set: 6-31G*
  Basis Set:
  @DF-RHF Final Energy:  -501.04259657788498
    Total Energy =                       -501.0425965778857744
  Basis Set: 6-31G*
  Basis Set:
  Basis Set: 6-31G*
  Basis Set:
  @DF-RHF Final Energy:  -501.04299844723971
    Total Energy =                       -501.0429984472393699
  Basis Set: 6-31G*
  Basis Set:
  Basis Set: 6-31G*
  Basis Set:
  @DF-RHF Final Energy:  -501.04309399504336
    Total Energy =                       -501.0430939950429092
  Basis Set: 6-31G*
  Basis Set:
  Basis Set: 6-31G*
  Basis Set:
  @DF-RHF Final Energy:  -501.04307568197521
    Total Energy =                       -501.0430756819739599
  Basis Set: 6-31G*
  Basis Set:
  Basis Set: 6-31G*
  Basis Set:
  @DF-RHF Final Energy:  -501.04309614112515
    Total Energy =                       -501.0430961411237831
  Basis Set: 6-31G*
  Basis Set:
  Charge       = 0
  Multiplicity = 1
  Basis Set: 6-31G*
  Basis Set:

    Orbital Energies (a.u.)
    -----------------------

    Doubly Occupied:

       1A    -20.605206     2A    -20.542689     3A    -11.371569
       4A    -11.280626     5A    -11.233724     6A    -11.222484
       7A    -11.218726     8A    -11.216193     9A    -11.215792
      10A    -11.214613    11A    -11.208994    12A     -1.469354
      13A     -1.361439    14A     -1.098551    15A     -1.066774
      16A     -1.019072    17A     -0.977168    18A     -0.929325
      19A     -0.862141    20A     -0.799101    21A     -0.790616
      22A     -0.766420    23A     -0.699789    24A     -0.681036
      25A     -0.671942    26A     -0.651268    27A     -0.628641
      28A     -0.604096    29A     -0.594252    30A     -0.579644
      31A     -0.571373    32A     -0.543812    33A     -0.538983
      34A     -0.530418    35A     -0.517428    36A     -0.510231
      37A     -0.496457    38A     -0.478160    39A     -0.470023
      40A     -0.462393    41A     -0.460203    42A     -0.454022
      43A     -0.444619    44A     -0.430861

  @DF-RHF Final Energy:  -501.04309617332137

   => Energetics <=

    Nuclear Repulsion Energy =            610.2157149303416190
    One-Electron Energy =               -1891.5371700859020621
    Two-Electron Energy =                 780.2783589822382737
    DFT Exchange-Correlation Energy =       0.0000000000000000
    Empirical Dispersion Energy =           0.0000000000000000
    PCM Polarization Energy =               0.0000000000000000
    EFP Energy =                            0.0000000000000000
    Total Energy =                       -501.0430961733221693
    Molecular point group: c1
  Basis Set: 6-31G*
  Basis Set:

  -Total Gradient:
     Atom            X                  Y                   Z
    ------   -----------------  -----------------  -----------------
       1       -0.000245396436    -0.000427431898    -0.000867492326
       2        0.000297980426     0.000829338170     0.001206231797
       3        0.000042383125    -0.001288736875    -0.000147547802
       4        0.000014460399    -0.000018683926     0.000000458058
       5        0.000021260201     0.000000280169     0.000012124190
       6       -0.000131081504     0.000905318201    -0.000204338693
       7        0.000002212064    -0.000007425780     0.000004688342
       8       -0.000011687781     0.000022028793    -0.000015146048
       9        0.000004965564     0.000009534753     0.000006416413
      10       -0.000003971077    -0.000005806701    -0.000006758056
      11        0.000008405276    -0.000022272319     0.000006537671
      12       -0.000016015838     0.000002135115     0.000000326613
      13        0.000010905967     0.000001036239    -0.000004675230
      14        0.000001046427     0.000009256463     0.000003315678
      15        0.000006306052    -0.000007633405     0.000006141867
      16        0.000007883284    -0.000007476299    -0.000005810321
      17        0.000000599559     0.000005115791    -0.000001111021
      18       -0.000001480776     0.000001806610     0.000004673924
      19       -0.000000622638     0.000000179566    -0.000003864849
      20       -0.000000048877    -0.000000745632     0.000000174937
      21       -0.000001287424     0.000000323851    -0.000000527905
      22        0.000001136191     0.000000798188     0.000000117053
      23       -0.000000024872    -0.000000618106     0.000000102582
      24        0.000000302767    -0.000000285876    -0.000000428956
      25       -0.000000191429     0.000000015923     0.000000406825
      26       -0.000016996628    -0.000001002178     0.000004237833
      27        0.000000323957    -0.000000281414     0.000001162127
      28        0.000003530555    -0.000000661744     0.000000008175
      29        0.000005103457     0.000001894320     0.000000577123

  **** Optimization is complete! (in 7 steps) ****
    Final optimized geometry and variables:
    Molecular point group: c1

    Geometry (in Angstrom), charge = 0, multiplicity = 1:

    O            3.088822153252     0.535188526612    -0.906404850426
    C            2.619776623036    -0.400491514342    -0.340829796356
    C            1.179218107973    -0.502292872054     0.100402472475
    O            3.309942218656    -1.496278931815    -0.058064770494
    C            0.656540016469     0.819633424791     0.671628420705
    H            0.612942751785    -0.780357258158    -0.783910262321
    H            1.079830739658    -1.309876891359     0.815179969266
    C           -0.798816035939     0.755707301775     1.146994068990
    H            0.770416743279     1.596450225710    -0.076287040225
    H            1.284405938501     1.108320695390     1.510538294220
    C           -1.830257275396     0.541436150730     0.035631760745
    H           -1.026737672805     1.688772716376     1.657173154533
    H           -0.903012030318    -0.029760982158     1.893814959427
    C           -3.272184869522     0.602709637732     0.543909895754
    H           -1.687852174562     1.296956207984    -0.735265626710
    H           -1.668653365507    -0.420446017192    -0.445492704275
    C           -4.312108448967     0.383610795546    -0.556393647873
    H           -3.446901514490     1.568482570621     1.015066139196
    H           -3.411635030649    -0.145165035545     1.322976412737
    C           -5.749529187568     0.449803580298    -0.041474533145
    H           -4.173618606555     1.129590500184    -1.336057861394
    H           -4.141647835442    -0.582996126114    -1.025822459615
    H           -6.462958717329     0.290503473538    -0.844113016140
    H           -5.962561455276     1.417960525986     0.402918727101
    H           -5.929862920454    -0.307436634234     0.716390964013
    C            4.663607261596    -1.526872008292    -0.473648076342
    H            4.733554471540    -1.427813641617    -1.547296595152
    H            5.046654643387    -2.485488980654    -0.160209239421
    H            5.222006133192    -0.728772958007    -0.006213212479

  Mulliken Charges: (a.u.)
   Center  Symbol    Alpha    Beta     Spin     Total
       1     O     4.28718  4.28718  0.00000 -0.57436
       2     C     2.60457  2.60457  0.00000  0.79086
       3     C     3.20912  3.20912  0.00000 -0.41823
       4     O     4.30560  4.30560  0.00000 -0.61120
       5     C     3.15968  3.15968  0.00000 -0.31937
       6     H     0.39876  0.39876  0.00000  0.20249
       7     H     0.40105  0.40105  0.00000  0.19791
       8     C     3.15538  3.15538  0.00000 -0.31076
       9     H     0.40454  0.40454  0.00000  0.19092
      10     H     0.41593  0.41593  0.00000  0.16814
      11     C     3.15534  3.15534  0.00000 -0.31069
      12     H     0.41831  0.41831  0.00000  0.16339
      13     H     0.42329  0.42329  0.00000  0.15343
      14     C     3.15041  3.15041  0.00000 -0.30082
      15     H     0.42127  0.42127  0.00000  0.15746
      16     H     0.42365  0.42365  0.00000  0.15269
      17     C     3.15153  3.15153  0.00000 -0.30306
      18     H     0.42336  0.42336  0.00000  0.15329
      19     H     0.42401  0.42401  0.00000  0.15197
      20     C     3.23938  3.23938  0.00000 -0.47876
      21     H     0.42245  0.42245  0.00000  0.15510
      22     H     0.42339  0.42339  0.00000  0.15323
      23     H     0.41913  0.41913  0.00000  0.16173
      24     H     0.42157  0.42157  0.00000  0.15687
      25     H     0.42190  0.42190  0.00000  0.15621
      26     C     3.09340  3.09340  0.00000 -0.18681
      27     H     0.40890  0.40890  0.00000  0.18220
      28     H     0.40845  0.40845  0.00000  0.18311
      29     H     0.40846  0.40846  0.00000  0.18308

   Total alpha = 44.00000, Total beta = 44.00000, Total charge =  0.00000
