  ==> Input File <==

--------------------------------------------------------------------------
set {
	reference rhf
	basis cc-pvtz
}

set_num_threads( 4 )
memory 2 gb

molecule MOL {
0 1

H	 2.240742	 1.760169	 0.064650
O	 1.320481	 1.769731	 0.250856
C	 0.700177	 0.619554	 -0.266242
C	 -0.713111	 0.588314	 0.266177
H	 1.227076	 -0.275254	 0.050965
H	 0.680261	 0.644347	 -1.352688
O	 -1.421673	 -0.521378	 -0.196983
H	 -1.244794	 1.469161	 -0.069059
H	 -0.685100	 0.604721	 1.352683
H	 -0.933408	 -1.297830	 0.014544

	symmetry c1
}
set optking {
	frozen_dihedral = ("
		5 3 4 7
	")
}

ee = optimize('scf')
oeprop('DIPOLE', 'QUADRUPOLE', 'MULLIKEN_CHARGES')
f=open( 'psi4out.xyz', 'w' )
f.write( "10  " )
f.write( str(ee) + "\n" )
f.write( MOL.save_string_xyz() )
f.close()
--------------------------------------------------------------------------

    Molecular point group: c1
  Charge       = 0
  Multiplicity = 1
  Basis Set: CC-PVTZ
  Basis Set:
  @DF-RHF Final Energy:  -229.02475919874610
    Total Energy =                       -229.0247591987461533
    Molecular point group: c1
  Basis Set: CC-PVTZ
  Basis Set:
  Basis Set: CC-PVTZ
  Basis Set:
  @DF-RHF Final Energy:  -229.02536090931628
    Total Energy =                       -229.0253609093163050
  Basis Set: CC-PVTZ
  Basis Set:
  Basis Set: CC-PVTZ
  Basis Set:
  @DF-RHF Final Energy:  -229.02556057658845
    Total Energy =                       -229.0255605765885321
  Basis Set: CC-PVTZ
  Basis Set:
  Basis Set: CC-PVTZ
  Basis Set:
  @DF-RHF Final Energy:  -229.02558728774633
    Total Energy =                       -229.0255872877463048
  Basis Set: CC-PVTZ
  Basis Set:
  Charge       = 0
  Multiplicity = 1
  Basis Set: CC-PVTZ
  Basis Set:

    Orbital Energies (a.u.)
    -----------------------

    Doubly Occupied:

       1A    -20.555556     2A    -20.552900     3A    -11.271024
       4A    -11.267239     5A     -1.379233     6A     -1.365930
       7A     -0.999843     8A     -0.847495     9A     -0.724331
      10A     -0.692028    11A     -0.641432    12A     -0.616917
      13A     -0.579285    14A     -0.528416    15A     -0.494428
      16A     -0.447460    17A     -0.442854

  @DF-RHF Final Energy:  -229.02558857756594

   => Energetics <=

    Nuclear Repulsion Energy =            131.5402050555186406
    One-Electron Energy =                -574.3188430345874167
    Two-Electron Energy =                 213.7530494015029490
    DFT Exchange-Correlation Energy =       0.0000000000000000
    Empirical Dispersion Energy =           0.0000000000000000
    PCM Polarization Energy =               0.0000000000000000
    EFP Energy =                            0.0000000000000000
    Total Energy =                       -229.0255885775658271
    Molecular point group: c1
  Basis Set: CC-PVTZ
  Basis Set:

  -Total Gradient:
     Atom            X                  Y                   Z
    ------   -----------------  -----------------  -----------------
       1       -0.000021934473    -0.000008338648     0.000004737963
       2       -0.000106108681    -0.000158722939    -0.000101774635
       3        0.000063647594     0.000115713042    -0.000067707643
       4       -0.000004332852    -0.000144293558     0.000173274869
       5        0.000037442134     0.000028661912     0.000097830128
       6        0.000024235030     0.000004889067    -0.000041593941
       7       -0.000005922706     0.000140967525    -0.000104996433
       8       -0.000001772245     0.000001065838    -0.000009676814
       9       -0.000008513266     0.000018484489     0.000031216750
      10        0.000023259462     0.000001573274     0.000018689753

  **** Optimization is complete! (in 5 steps) ****
    Final optimized geometry and variables:
    Molecular point group: c1

    Geometry (in Angstrom), charge = 0, multiplicity = 1:

    H            2.198997732864     1.257676035021    -0.028032968656
    O            1.326683793713     1.154959196779     0.303761406241
    C            0.718407441325     0.029145296193    -0.262764543506
    C           -0.709148576177    -0.025183980488     0.242967996487
    H            1.242890162317    -0.881645712482     0.022819475047
    H            0.711346122542     0.082677816162    -1.347243851237
    O           -1.402515425886    -1.118074671876    -0.290362070903
    H           -1.234240074684     0.865855282533    -0.070492128844
    H           -0.709505566812    -0.042465913961     1.328422463380
    H           -1.116229065096    -1.914648391375     0.117583928722

  Mulliken Charges: (a.u.)
   Center  Symbol    Alpha    Beta     Spin     Total
       1     H     0.39304  0.39304  0.00000  0.21392
       2     O     4.19902  4.19902  0.00000 -0.39803
       3     C     2.96462  2.96462  0.00000  0.07075
       4     C     2.97685  2.97685  0.00000  0.04629
       5     H     0.48174  0.48174  0.00000  0.03652
       6     H     0.46973  0.46973  0.00000  0.06053
       7     O     4.20259  4.20259  0.00000 -0.40519
       8     H     0.45222  0.45222  0.00000  0.09557
       9     H     0.46626  0.46626  0.00000  0.06747
      10     H     0.39392  0.39392  0.00000  0.21216

   Total alpha = 17.00000, Total beta = 17.00000, Total charge =  0.00000
