  ==> Input File <==

--------------------------------------------------------------------------
set {
	reference rhf
	basis 6-31G*
}

set_num_threads( 4 )
memory 2 gb

molecule MOL {
0 1

H	 -2.584401	 0.722242	 -0.862650
C	 -1.784484	 1.320111	 -1.282212
C	 -0.486617	 0.524320	 -1.353046
H	 -1.668983	 2.196719	 -0.656513
H	 -2.083044	 1.644042	 -2.273780
C	 -0.000005	 0.033229	 -0.000001
H	 0.307632	 1.120252	 -1.798500
H	 -0.599720	 -0.341297	 -2.002900
C	 1.290528	 -0.768786	 0.000276
O	 -0.597838	 0.264595	 1.006105
C	 2.545731	 0.095645	 -0.000061
H	 1.275672	 -1.427874	 -0.865626
H	 1.275566	 -1.427086	 0.866768
H	 2.577157	 0.734767	 -0.874036
H	 3.433520	 -0.528139	 0.000137
H	 2.577172	 0.735117	 0.873581

	symmetry c1
}
set optking {
	frozen_dihedral = ("
		3 6 9 12
	")
}

ee = optimize('scf')
oeprop('DIPOLE', 'QUADRUPOLE', 'MULLIKEN_CHARGES')
f=open( 'psi4out.xyz', 'w' )
f.write( "16  " )
f.write( str(ee) + "\n" )
f.write( MOL.save_string_xyz() )
f.close()
--------------------------------------------------------------------------

    Molecular point group: c1
  Charge       = 0
  Multiplicity = 1
  Basis Set: 6-31G*
  Basis Set:
  @DF-RHF Final Energy:  -270.03036913178181
    Total Energy =                       -270.0303691317820949
    Molecular point group: c1
  Basis Set: 6-31G*
  Basis Set:
  Basis Set: 6-31G*
  Basis Set:
  @DF-RHF Final Energy:  -270.03065557061950
    Total Energy =                       -270.0306555706195013
  Basis Set: 6-31G*
  Basis Set:
  Basis Set: 6-31G*
  Basis Set:
  @DF-RHF Final Energy:  -270.02943419651530
    Total Energy =                       -270.0294341965151830
  Basis Set: 6-31G*
  Basis Set:
  Basis Set: 6-31G*
  Basis Set:
  @DF-RHF Final Energy:  -270.03103847415878
    Total Energy =                       -270.0310384741588337
  Basis Set: 6-31G*
  Basis Set:
  Basis Set: 6-31G*
  Basis Set:
  @DF-RHF Final Energy:  -270.03105522534645
    Total Energy =                       -270.0310552253466199
  Basis Set: 6-31G*
  Basis Set:
  Basis Set: 6-31G*
  Basis Set:
  @DF-RHF Final Energy:  -270.03105640264306
    Total Energy =                       -270.0310564026429461
  Basis Set: 6-31G*
  Basis Set:
  Charge       = 0
  Multiplicity = 1
  Basis Set: 6-31G*
  Basis Set:

    Orbital Energies (a.u.)
    -----------------------

    Doubly Occupied:

       1A    -20.549139     2A    -11.322595     3A    -11.233702
       4A    -11.232237     5A    -11.229086     6A    -11.213166
       7A     -1.394396     8A     -1.071894     9A     -1.036112
      10A     -0.911203    11A     -0.857738    12A     -0.726343
      13A     -0.663465    14A     -0.641728    15A     -0.625439
      16A     -0.603884    17A     -0.563771    18A     -0.540275
      19A     -0.532952    20A     -0.510284    21A     -0.503522
      22A     -0.497916    23A     -0.478652    24A     -0.396439

  @DF-RHF Final Energy:  -270.03105658343833

   => Energetics <=

    Nuclear Repulsion Energy =            240.5687701382718728
    One-Electron Energy =                -842.5277732970534998
    Two-Electron Energy =                 331.9279465753434692
    DFT Exchange-Correlation Energy =       0.0000000000000000
    Empirical Dispersion Energy =           0.0000000000000000
    PCM Polarization Energy =               0.0000000000000000
    EFP Energy =                            0.0000000000000000
    Total Energy =                       -270.0310565834381009
    Molecular point group: c1
  Basis Set: 6-31G*
  Basis Set:

  -Total Gradient:
     Atom            X                  Y                   Z
    ------   -----------------  -----------------  -----------------
       1       -0.000008018088    -0.000000599898     0.000003443339
       2        0.000007544928     0.000007421095    -0.000001738717
       3        0.000349995648     0.000626422948     0.000126043143
       4        0.000000931159    -0.000006861265    -0.000002113853
       5       -0.000000582528    -0.000003172293     0.000000323858
       6       -0.000644908340    -0.001107126798    -0.000072658829
       7        0.000012770145     0.000002614690     0.000002885802
       8        0.000003281990     0.000008606826    -0.000004496522
       9        0.000689154306     0.001212155967    -0.000585456370
      10        0.000003869818     0.000006773048     0.000012919102
      11        0.000017541059     0.000003845535    -0.000002065513
      12       -0.000420677558    -0.000727632329     0.000517740665
      13        0.000004302738    -0.000015455682     0.000009601370
      14       -0.000003178537    -0.000003345611    -0.000000155540
      15       -0.000001417813     0.000004029300    -0.000001406729
      16       -0.000010608927    -0.000007675535    -0.000002865208

  **** Optimization is complete! (in 7 steps) ****
    Final optimized geometry and variables:
    Molecular point group: c1

    Geometry (in Angstrom), charge = 0, multiplicity = 1:

    H           -2.714921585749     0.612380817918    -0.514621894980
    C           -1.892622694593     1.138631012085    -0.982849104123
    C           -0.663901518198     0.243816746706    -1.090827827026
    H           -1.682509767764     2.016435838259    -0.383231617944
    H           -2.210042734168     1.465894029466    -1.967459471518
    C           -0.168255053822    -0.273220088023     0.248120349907
    H            0.152848339708     0.763417770128    -1.586336158706
    H           -0.874766468139    -0.624382004108    -1.713674964045
    C            1.147891369149    -1.032174953348     0.256614357339
    O           -0.772010747366    -0.082030463702     1.259886933207
    C            2.352734552508    -0.081629169258     0.287484657316
    H            1.208639630588    -1.682279354234    -0.611902038104
    H            1.153148649487    -1.655746428198     1.142276725833
    H            2.399799428175     0.543032977933    -0.598459650769
    H            3.275877869219    -0.648003398794     0.339804907055
    H            2.306424227303     0.565623766636     1.156379966546

  Mulliken Charges: (a.u.)
   Center  Symbol    Alpha    Beta     Spin     Total
       1     H     0.40863  0.40863  0.00000  0.18273
       2     C     3.23489  3.23489  0.00000 -0.46978
       3     C     3.20910  3.20910  0.00000 -0.41820
       4     H     0.41237  0.41237  0.00000  0.17525
       5     H     0.42024  0.42024  0.00000  0.15952
       6     C     2.73610  2.73610  0.00000  0.52779
       7     H     0.40946  0.40946  0.00000  0.18108
       8     H     0.40782  0.40782  0.00000  0.18435
       9     C     3.19820  3.19820  0.00000 -0.39641
      10     O     4.26334  4.26334  0.00000 -0.52668
      11     C     3.24941  3.24941  0.00000 -0.49883
      12     H     0.41500  0.41500  0.00000  0.17000
      13     H     0.39942  0.39942  0.00000  0.20116
      14     H     0.41770  0.41770  0.00000  0.16459
      15     H     0.41089  0.41089  0.00000  0.17822
      16     H     0.40741  0.40741  0.00000  0.18518

   Total alpha = 24.00000, Total beta = 24.00000, Total charge = -0.00000
