  ==> Input File <==

--------------------------------------------------------------------------
set {
	reference rhf
	basis cc-pvtz
}

set_num_threads( 4 )
memory 2 gb

molecule MOL {
0 1

H	 1.035417	 -2.455695	 2.159020
O	 0.924156	 -2.084637	 1.296655
C	 -0.075881	 -1.209084	 1.340854
C	 -0.318151	 -0.570512	 0.000144
O	 -0.676110	 -0.988920	 2.335450
C	 -1.454884	 0.441630	 -0.000560
H	 0.616159	 -0.113897	 -0.310432
H	 -0.504102	 -1.372305	 -0.707281
C	 -2.822577	 -0.232186	 0.000063
H	 -1.359760	 1.084704	 -0.867077
H	 -1.359641	 1.085996	 0.864983
H	 -2.954352	 -0.858985	 -0.875745
H	 -3.615886	 0.505352	 0.000019
H	 -2.953878	 -0.858359	 0.876394

	symmetry c1
}
set optking {
	frozen_dihedral = ("
		7 4 6 10
	")
}

ee = optimize('scf')
oeprop('DIPOLE', 'QUADRUPOLE', 'MULLIKEN_CHARGES')
f=open( 'psi4out.xyz', 'w' )
f.write( "14  " )
f.write( str(ee) + "\n" )
f.write( MOL.save_string_xyz() )
f.close()
--------------------------------------------------------------------------

    Molecular point group: c1
  Charge       = 0
  Multiplicity = 1
  Basis Set: CC-PVTZ
  Basis Set:
  @DF-RHF Final Energy:  -305.99985584775914
    Total Energy =                       -305.9998558477588517
    Molecular point group: c1
  Basis Set: CC-PVTZ
  Basis Set:
  Basis Set: CC-PVTZ
  Basis Set:
  @DF-RHF Final Energy:  -306.00006934296584
    Total Energy =                       -306.0000693429659577
  Basis Set: CC-PVTZ
  Basis Set:
  Basis Set: CC-PVTZ
  Basis Set:
  @DF-RHF Final Energy:  -305.99988044577879
    Total Energy =                       -305.9998804457786719
  Basis Set: CC-PVTZ
  Basis Set:
  Basis Set: CC-PVTZ
  Basis Set:
  @DF-RHF Final Energy:  -306.00014102568832
    Total Energy =                       -306.0001410256884355
  Basis Set: CC-PVTZ
  Basis Set:
  @DF-RHF Final Energy:  -306.00015110175468
    Total Energy =                       -306.0001511017547955
  Basis Set: CC-PVTZ
  Basis Set:
  @DF-RHF Final Energy:  -306.00015798671177
    Total Energy =                       -306.0001579867116561
  Basis Set: CC-PVTZ
  Basis Set:
  Basis Set: CC-PVTZ
  Basis Set:
  @DF-RHF Final Energy:  -306.00016303738329
    Total Energy =                       -306.0001630373833450
  Basis Set: CC-PVTZ
  Basis Set:
  Basis Set: CC-PVTZ
  Basis Set:
  @DF-RHF Final Energy:  -306.00016961025005
    Total Energy =                       -306.0001696102500546
  Basis Set: CC-PVTZ
  Basis Set:
  Charge       = 0
  Multiplicity = 1
  Basis Set: CC-PVTZ
  Basis Set:

    Orbital Energies (a.u.)
    -----------------------

    Doubly Occupied:

       1A    -20.605131     2A    -20.541711     3A    -11.374873
       4A    -11.239901     5A    -11.223916     6A    -11.209573
       7A     -1.478870     8A     -1.370278     9A     -1.082672
      10A     -0.977732    11A     -0.862616    12A     -0.789440
      13A     -0.706224    14A     -0.695860    15A     -0.661970
      16A     -0.613279    17A     -0.598241    18A     -0.567652
      19A     -0.558764    20A     -0.496575    21A     -0.491449
      22A     -0.486446    23A     -0.481343    24A     -0.447186

  @DF-RHF Final Energy:  -306.00016967965018

   => Energetics <=

    Nuclear Repulsion Energy =            244.4756775362674546
    One-Electron Energy =                -901.8282828421326940
    Two-Electron Energy =                 351.3524356262150832
    DFT Exchange-Correlation Energy =       0.0000000000000000
    Empirical Dispersion Energy =           0.0000000000000000
    PCM Polarization Energy =               0.0000000000000000
    EFP Energy =                            0.0000000000000000
    Total Energy =                       -306.0001696796501847
    Molecular point group: c1
  Basis Set: CC-PVTZ
  Basis Set:

  -Total Gradient:
     Atom            X                  Y                   Z
    ------   -----------------  -----------------  -----------------
       1        0.000004044539    -0.000001890191     0.000000418105
       2        0.000018993590    -0.000021876682     0.000004732238
       3       -0.000042731330     0.000040083280     0.000022845831
       4        0.000560019866     0.000704486398     0.002104230700
       5        0.000022385409    -0.000017807935    -0.000020297675
       6       -0.001103568411    -0.001335775731    -0.001426117673
       7       -0.000300150109    -0.000378623933    -0.001528038502
       8        0.000001221795    -0.000004103968    -0.000001009705
       9       -0.000009341951     0.000000015571    -0.000008666588
      10        0.000850280852     0.001016116301     0.000848194994
      11       -0.000001606430     0.000000571953    -0.000000229992
      12        0.000001983514    -0.000000771262     0.000002375803
      13       -0.000000940458    -0.000000917656     0.000000608072
      14       -0.000000590875     0.000000493855     0.000000954394

  **** Optimization is complete! (in 9 steps) ****
    Final optimized geometry and variables:
    Molecular point group: c1

    Geometry (in Angstrom), charge = 0, multiplicity = 1:

    H            1.725034919677    -1.697596102746     1.279470267050
    O            1.586100454635    -1.342942315135     0.414170627597
    C            0.658570542887    -0.393554936234     0.492604645296
    C            0.399399426933     0.243149608564    -0.847120625993
    O            0.137880102187    -0.106751616171     1.514932920317
    C           -0.761801585008     1.231927690740    -0.859693944889
    H            1.325115908960     0.722834265454    -1.147721303236
    H            0.244949784882    -0.557095060432    -1.563025790131
    C           -2.132894126362     0.564505661241    -0.871352518791
    H           -0.654596120928     1.868425714709    -1.731253261781
    H           -0.680838528060     1.878979589303     0.004713358232
    H           -2.255952735962    -0.060521091070    -1.750116143704
    H           -2.921378228231     1.307545960357    -0.882215693963
    H           -2.273578755405    -0.053852262830     0.006310080535

  Mulliken Charges: (a.u.)
   Center  Symbol    Alpha    Beta     Spin     Total
       1     H     0.38221  0.38221  0.00000  0.23558
       2     O     4.15965  4.15965  0.00000 -0.31929
       3     C     2.80420  2.80420  0.00000  0.39160
       4     C     3.11200  3.11200  0.00000 -0.22399
       5     O     4.19249  4.19249  0.00000 -0.38498
       6     C     3.08494  3.08494  0.00000 -0.16989
       7     H     0.43189  0.43189  0.00000  0.13622
       8     H     0.43843  0.43843  0.00000  0.12313
       9     C     3.15073  3.15073  0.00000 -0.30146
      10     H     0.44718  0.44718  0.00000  0.10563
      11     H     0.44529  0.44529  0.00000  0.10941
      12     H     0.45767  0.45767  0.00000  0.08465
      13     H     0.44759  0.44759  0.00000  0.10481
      14     H     0.44571  0.44571  0.00000  0.10858

   Total alpha = 24.00000, Total beta = 24.00000, Total charge =  0.00000
