  ==> Input File <==

--------------------------------------------------------------------------
set {
	reference rhf
	basis cc-pvtz
}

set_num_threads( 4 )
memory 2 gb

molecule MOL {
0 1

H	 2.342730	 0.877684	 -1.045694
C	 2.360424	 0.000000	 -0.411793
C	 1.173749	 0.000000	 0.526870
H	 3.286567	 0.000000	 0.151574
H	 2.342730	 -0.877684	 -1.045694
O	 -0.000000	 0.000000	 -0.223739
H	 1.203779	 0.876757	 1.172538
H	 1.203779	 -0.876757	 1.172538
C	 -1.173749	 0.000000	 0.526870
C	 -1.313250	 -1.334712	 1.225703
H	 -2.031076	 0.177703	 -0.121130
H	 -1.149386	 0.807428	 1.257594
H	 -1.352807	 -2.139424	 0.502276
H	 -2.221566	 -1.357434	 1.816947
H	 -0.470185	 -1.509033	 1.882458

	symmetry c1
}
set optking {
	frozen_dihedral = ("
		11 9 6 3
	")
}

ee = optimize('scf')
oeprop('DIPOLE', 'QUADRUPOLE', 'MULLIKEN_CHARGES')
f=open( 'psi4out.xyz', 'w' )
f.write( "15  " )
f.write( str(ee) + "\n" )
f.write( MOL.save_string_xyz() )
f.close()
--------------------------------------------------------------------------

    Molecular point group: c1
  Charge       = 0
  Multiplicity = 1
  Basis Set: CC-PVTZ
  Basis Set:
  @DF-RHF Final Energy:  -232.22681996612002
    Total Energy =                       -232.2268199661199901
    Molecular point group: c1
  Basis Set: CC-PVTZ
  Basis Set:
  Basis Set: CC-PVTZ
  Basis Set:
  @DF-RHF Final Energy:  -232.22866157340479
    Total Energy =                       -232.2286615734049633
  Basis Set: CC-PVTZ
  Basis Set:
  Basis Set: CC-PVTZ
  Basis Set:
  @DF-RHF Final Energy:  -232.23043964065474
    Total Energy =                       -232.2304396406548221
  Basis Set: CC-PVTZ
  Basis Set:
  Basis Set: CC-PVTZ
  Basis Set:
  @DF-RHF Final Energy:  -232.23058903821001
    Total Energy =                       -232.2305890382099847
  Basis Set: CC-PVTZ
  Basis Set:
  Basis Set: CC-PVTZ
  Basis Set:
  @DF-RHF Final Energy:  -232.23059952007091
    Total Energy =                       -232.2305995200707684
  Basis Set: CC-PVTZ
  Basis Set:
  Charge       = 0
  Multiplicity = 1
  Basis Set: CC-PVTZ
  Basis Set:

    Orbital Energies (a.u.)
    -----------------------

    Doubly Occupied:

       1A    -20.543998     2A    -11.266384     3A    -11.265409
       4A    -11.209886     5A    -11.206518     6A     -1.378223
       7A     -1.041333     8A     -0.987799     9A     -0.865653
      10A     -0.809430    11A     -0.675342    12A     -0.653048
      13A     -0.639793    14A     -0.581256    15A     -0.547450
      16A     -0.544179    17A     -0.524599    18A     -0.503737
      19A     -0.487669    20A     -0.456838    21A     -0.411179

  @DF-RHF Final Energy:  -232.23059999416427

   => Energetics <=

    Nuclear Repulsion Energy =            193.0036259784440631
    One-Electron Energy =                -697.2690012176559549
    Two-Electron Energy =                 272.0347752450478538
    DFT Exchange-Correlation Energy =       0.0000000000000000
    Empirical Dispersion Energy =           0.0000000000000000
    PCM Polarization Energy =               0.0000000000000000
    EFP Energy =                            0.0000000000000000
    Total Energy =                       -232.2305999941640380
    Molecular point group: c1
  Basis Set: CC-PVTZ
  Basis Set:

  -Total Gradient:
     Atom            X                  Y                   Z
    ------   -----------------  -----------------  -----------------
       1       -0.000003012209     0.000000922714     0.000000300555
       2        0.000024412388    -0.000009114416     0.000007839132
       3       -0.000008101321    -0.000786017568    -0.000004543812
       4        0.000002600564     0.000002759912    -0.000005098304
       5        0.000002926837     0.000001633081     0.000000065012
       6        0.000004574343     0.000936695390    -0.000015362242
       7        0.000003459429     0.000004796132     0.000004036566
       8       -0.000004651895     0.000000899331     0.000004324416
       9        0.000090415763     0.000782029976     0.000084351616
      10        0.000018455787    -0.000006176963     0.000012745534
      11       -0.000128968868    -0.000920884733    -0.000087673979
      12       -0.000004985964    -0.000007441772     0.000001480516
      13       -0.000001874994     0.000001083514    -0.000004042628
      14        0.000006113096     0.000009914617    -0.000009191046
      15       -0.000001362957    -0.000011099215     0.000010768663

  **** Optimization is complete! (in 6 steps) ****
    Final optimized geometry and variables:
    Molecular point group: c1

    Geometry (in Angstrom), charge = 0, multiplicity = 1:

    H            2.072409116488     1.309451812729    -1.343117891545
    C            2.167307370778     0.381570516252    -0.793125589463
    C            1.014268526837     0.216083484599     0.173414309463
    H            3.110013350678     0.391189345037    -0.257571898581
    H            2.184463525700    -0.434724532595    -1.504542663303
    O           -0.177281607900     0.200516982402    -0.551403138700
    H            1.003100119866     1.037183891229     0.889549161058
    H            1.135963527491    -0.704426612753     0.737908151555
    C           -1.360008507044     0.243434012081     0.188246727540
    C           -1.652251616352    -1.029104353327     0.969440454039
    H           -2.149840643164     0.404518825109    -0.533265857603
    H           -1.347567537816     1.099936824987     0.860734609508
    H           -1.635797356817    -1.889153842961     0.310418366467
    H           -2.636897869041    -0.962125753882     1.419005314688
    H           -0.938272382999    -1.195521624402     1.766463766255

  Mulliken Charges: (a.u.)
   Center  Symbol    Alpha    Beta     Spin     Total
       1     H     0.45151  0.45151  0.00000  0.09698
       2     C     3.13493  3.13493  0.00000 -0.26986
       3     C     2.96685  2.96685  0.00000  0.06630
       4     H     0.45951  0.45951  0.00000  0.08098
       5     H     0.45118  0.45118  0.00000  0.09765
       6     O     4.18127  4.18127  0.00000 -0.36253
       7     H     0.47416  0.47416  0.00000  0.05168
       8     H     0.47131  0.47131  0.00000  0.05738
       9     C     2.98302  2.98302  0.00000  0.03397
      10     C     3.14955  3.14955  0.00000 -0.29910
      11     H     0.45004  0.45004  0.00000  0.09992
      12     H     0.47019  0.47019  0.00000  0.05963
      13     H     0.44990  0.44990  0.00000  0.10021
      14     H     0.45095  0.45095  0.00000  0.09810
      15     H     0.45565  0.45565  0.00000  0.08871

   Total alpha = 21.00000, Total beta = 21.00000, Total charge =  0.00000
