  ==> Input File <==

--------------------------------------------------------------------------
set {
	reference rhf
	basis cc-pvtz
}

set_num_threads( 4 )
memory 2 gb

molecule MOL {
0 1

H	 -1.557139	 2.370789	 -0.232250
C	 -1.297948	 2.088688	 0.779412
C	 0.014113	 1.320437	 0.812597
H	 -2.109376	 1.488126	 1.168160
H	 -1.221381	 2.989117	 1.377131
C	 0.000000	 0.039916	 0.000014
H	 0.283651	 1.060135	 1.832641
H	 0.831125	 1.935125	 0.444435
C	 1.286532	 -0.763243	 0.000268
O	 -0.961616	 -0.313033	 -0.600903
C	 2.547023	 0.087626	 -0.000114
H	 1.264245	 -1.421103	 -0.864380
H	 1.264290	 -1.420353	 0.865489
H	 2.584452	 0.725630	 -0.872909
H	 3.427035	 -0.544422	 0.000125
H	 2.584484	 0.726356	 0.872143

	symmetry c1
}
set optking {
	frozen_dihedral = ("
		3 6 9 12
	")
}

ee = optimize('scf')
oeprop('DIPOLE', 'QUADRUPOLE', 'MULLIKEN_CHARGES')
f=open( 'psi4out.xyz', 'w' )
f.write( "16  " )
f.write( str(ee) + "\n" )
f.write( MOL.save_string_xyz() )
f.close()
--------------------------------------------------------------------------

    Molecular point group: c1
  Charge       = 0
  Multiplicity = 1
  Basis Set: CC-PVTZ
  Basis Set:
  @DF-RHF Final Energy:  -270.12696520880041
    Total Energy =                       -270.1269652088001294
    Molecular point group: c1
  Basis Set: CC-PVTZ
  Basis Set:
  Basis Set: CC-PVTZ
  Basis Set:
  @DF-RHF Final Energy:  -270.12782143686292
    Total Energy =                       -270.1278214368626891
  Basis Set: CC-PVTZ
  Basis Set:
  Basis Set: CC-PVTZ
  Basis Set:
  @DF-RHF Final Energy:  -270.12848593145003
    Total Energy =                       -270.1284859314500864
  Basis Set: CC-PVTZ
  Basis Set:
  Basis Set: CC-PVTZ
  Basis Set:
  @DF-RHF Final Energy:  -270.12853846418039
    Total Energy =                       -270.1285384641804512
  Basis Set: CC-PVTZ
  Basis Set:
  Basis Set: CC-PVTZ
  Basis Set:
  @DF-RHF Final Energy:  -270.12845036457838
    Total Energy =                       -270.1284503645784980
  Basis Set: CC-PVTZ
  Basis Set:
  Basis Set: CC-PVTZ
  Basis Set:
  @DF-RHF Final Energy:  -270.12859356391425
    Total Energy =                       -270.1285935639143645
  Basis Set: CC-PVTZ
  Basis Set:
  Charge       = 0
  Multiplicity = 1
  Basis Set: CC-PVTZ
  Basis Set:

    Orbital Energies (a.u.)
    -----------------------

    Doubly Occupied:

       1A    -20.536710     2A    -11.317715     3A    -11.232236
       4A    -11.231597     5A    -11.226401     6A    -11.211388
       7A     -1.397331     8A     -1.073886     9A     -1.036021
      10A     -0.908768    11A     -0.866345    12A     -0.723913
      13A     -0.660669    14A     -0.643830    15A     -0.633547
      16A     -0.609918    17A     -0.556001    18A     -0.543838
      19A     -0.536358    20A     -0.511373    21A     -0.506951
      22A     -0.499037    23A     -0.479812    24A     -0.398499

  @DF-RHF Final Energy:  -270.12859399206536

   => Energetics <=

    Nuclear Repulsion Energy =            240.9580557307620268
    One-Electron Energy =                -843.4890014139832601
    Two-Electron Energy =                 332.4023516911556726
    DFT Exchange-Correlation Energy =       0.0000000000000000
    Empirical Dispersion Energy =           0.0000000000000000
    PCM Polarization Energy =               0.0000000000000000
    EFP Energy =                            0.0000000000000000
    Total Energy =                       -270.1285939920655892
    Molecular point group: c1
  Basis Set: CC-PVTZ
  Basis Set:

  -Total Gradient:
     Atom            X                  Y                   Z
    ------   -----------------  -----------------  -----------------
       1        0.000002323415     0.000001170445    -0.000007371574
       2       -0.000003525409    -0.000013480466     0.000032598270
       3        0.000376459801     0.000550363752    -0.000900048891
       4        0.000001504828     0.000005087290    -0.000005048795
       5        0.000001746963    -0.000001260385    -0.000004004265
       6       -0.000434685100    -0.000587478053     0.001096497481
       7        0.000001719848    -0.000016839149     0.000007102421
       8        0.000005429483    -0.000000303895     0.000017203762
       9       -0.000538713096    -0.000800164825     0.000468213971
      10       -0.000004879654    -0.000006010257     0.000005027444
      11       -0.000038638189    -0.000033359678     0.000008326782
      12        0.000638643886     0.000918262798    -0.000728599447
      13        0.000000794889    -0.000019038906     0.000002862064
      14       -0.000007219804     0.000000144620     0.000008023040
      15        0.000002819036    -0.000003575584    -0.000000356868
      16       -0.000003780904     0.000006482294    -0.000000425395

  **** Optimization is complete! (in 7 steps) ****
    Final optimized geometry and variables:
    Molecular point group: c1

    Geometry (in Angstrom), charge = 0, multiplicity = 1:

    H           -1.983901228686     1.864803134676    -0.330561618916
    C           -1.634045321654     1.622470329857     0.663446550678
    C           -0.268336045350     0.955098274977     0.612616925673
    H           -2.368962197772     0.970815125908     1.117467739864
    H           -1.583391080533     2.536815229622     1.242592725033
    C           -0.247747944602    -0.332476239864    -0.186718270413
    H            0.095370222818     0.737098764046     1.613349209044
    H            0.467343517975     1.624066913363     0.176033194536
    C            1.014389828042    -1.179181880646    -0.158608805241
    O           -1.194304645666    -0.693788583315    -0.807648410031
    C            2.341785444738    -0.424251827937    -0.119946832445
    H            0.972623401265    -1.821265218865    -1.027559160597
    H            0.933724768502    -1.819921596909     0.716261688625
    H            2.444557615320     0.238351289812    -0.971906391995
    H            3.164670657361    -1.127259225750    -0.151582690918
    H            2.452263091642     0.167304176266     0.779939180823

  Mulliken Charges: (a.u.)
   Center  Symbol    Alpha    Beta     Spin     Total
       1     H     0.44622  0.44622  0.00000  0.10756
       2     C     3.14216  3.14216  0.00000 -0.28432
       3     C     3.10753  3.10753  0.00000 -0.21505
       4     H     0.44896  0.44896  0.00000  0.10209
       5     H     0.45092  0.45092  0.00000  0.09815
       6     C     2.86754  2.86754  0.00000  0.26491
       7     H     0.44382  0.44382  0.00000  0.11236
       8     H     0.44303  0.44303  0.00000  0.11395
       9     C     3.09283  3.09283  0.00000 -0.18567
      10     O     4.17400  4.17400  0.00000 -0.34800
      11     C     3.15878  3.15878  0.00000 -0.31756
      12     H     0.43631  0.43631  0.00000  0.12738
      13     H     0.44658  0.44658  0.00000  0.10684
      14     H     0.44859  0.44859  0.00000  0.10281
      15     H     0.44138  0.44138  0.00000  0.11724
      16     H     0.45135  0.45135  0.00000  0.09730

   Total alpha = 24.00000, Total beta = 24.00000, Total charge = -0.00000
