  ==> Input File <==

--------------------------------------------------------------------------
set {
	reference rhf
	basis 6-31G*
}

set_num_threads( 4 )
memory 2 gb

molecule MOL {
0 1

H	 -3.420663	 1.227371	 -1.044276
O	 -3.452007	 0.283848	 -0.965577
C	 -3.181085	 -0.079926	 0.364119
C	 -1.765924	 0.277073	 0.805136
H	 -3.327791	 -1.152017	 0.410903
H	 -3.905698	 0.375695	 1.036898
C	 -0.677594	 -0.417312	 -0.014550
H	 -1.637766	 1.358238	 0.744969
H	 -1.659588	 0.017670	 1.857098
C	 0.738335	 -0.034840	 0.421385
H	 -0.814977	 -0.178223	 -1.064632
H	 -0.802730	 -1.495410	 0.071702
C	 0.762924	 1.167589	 1.368827
H	 1.205499	 -0.893192	 0.898257
H	 1.339741	 0.190394	 -0.458493
C	 2.165277	 1.644651	 1.763761
H	 0.199282	 0.927641	 2.269064
H	 0.238142	 1.994555	 0.894962
C	 2.962891	 0.646725	 2.605403
H	 2.068541	 2.572258	 2.322757
H	 2.727927	 1.890118	 0.865221
H	 2.418649	 0.372943	 3.505394
H	 3.912887	 1.073699	 2.912056
H	 3.178358	 -0.265345	 2.058715

	symmetry c1
}
set optking {
	frozen_dihedral = ("
		13 10 7 11
	")
}

ee = optimize('scf')
oeprop('DIPOLE', 'QUADRUPOLE', 'MULLIKEN_CHARGES')
f=open( 'psi4out.xyz', 'w' )
f.write( "24  " )
f.write( str(ee) + "\n" )
f.write( MOL.save_string_xyz() )
f.close()
--------------------------------------------------------------------------

    Molecular point group: c1
  Charge       = 0
  Multiplicity = 1
  Basis Set: 6-31G*
  Basis Set:
  @DF-RHF Final Energy:  -349.23319309412466
    Total Energy =                       -349.2331930941244877
    Molecular point group: c1
  Basis Set: 6-31G*
  Basis Set:
  Basis Set: 6-31G*
  Basis Set:
  @DF-RHF Final Energy:  -349.23312651011872
    Total Energy =                       -349.2331265101184385
  Basis Set: 6-31G*
  Basis Set:
  Basis Set: 6-31G*
  Basis Set:
  @DF-RHF Final Energy:  -349.23744495958476
    Total Energy =                       -349.2374449595848773
  Basis Set: 6-31G*
  Basis Set:
  Basis Set: 6-31G*
  Basis Set:
  @DF-RHF Final Energy:  -349.23812047994346
    Total Energy =                       -349.2381204799434045
  Basis Set: 6-31G*
  Basis Set:
  @DF-RHF Final Energy:  -349.23817019408636
    Total Energy =                       -349.2381701940862513
  @DF-RHF Final Energy:  -349.23818459738311
    Total Energy =                       -349.2381845973833947
  @DF-RHF Final Energy:  -349.23823766471077
    Total Energy =                       -349.2382376647104252
  Basis Set: 6-31G*
  Basis Set:
  @DF-RHF Final Energy:  -349.23823747952565
    Total Energy =                       -349.2382374795256510
  Basis Set: 6-31G*
  Basis Set:
  Basis Set: 6-31G*
  Basis Set:
  @DF-RHF Final Energy:  -349.23823258170398
    Total Energy =                       -349.2382325817043238
  Basis Set: 6-31G*
  Basis Set:
  Basis Set: 6-31G*
  Basis Set:
  @DF-RHF Final Energy:  -349.23824202484104
    Total Energy =                       -349.2382420248409289
  Basis Set: 6-31G*
  Basis Set:
  Charge       = 0
  Multiplicity = 1
  Basis Set: 6-31G*
  Basis Set:

    Orbital Energies (a.u.)
    -----------------------

    Doubly Occupied:

       1A    -20.553435     2A    -11.267529     3A    -11.217240
       4A    -11.215196     5A    -11.213478     6A    -11.212584
       7A    -11.211444     8A    -11.207995     9A     -1.360037
      10A     -1.086494    11A     -1.046389    12A     -0.982885
      13A     -0.916984    14A     -0.855543    15A     -0.810987
      16A     -0.761845    17A     -0.675761    18A     -0.652102
      19A     -0.626461    20A     -0.620709    21A     -0.599710
      22A     -0.578459    23A     -0.561477    24A     -0.540630
      25A     -0.522446    26A     -0.511177    27A     -0.496469
      28A     -0.480938    29A     -0.473984    30A     -0.455011
      31A     -0.443906    32A     -0.437319    33A     -0.424544

  @DF-RHF Final Energy:  -349.23824199392118

   => Energetics <=

    Nuclear Repulsion Energy =            388.8885339335593017
    One-Electron Energy =               -1244.2112166655062993
    Two-Electron Energy =                 506.0844407380257053
    DFT Exchange-Correlation Energy =       0.0000000000000000
    Empirical Dispersion Energy =           0.0000000000000000
    PCM Polarization Energy =               0.0000000000000000
    EFP Energy =                            0.0000000000000000
    Total Energy =                       -349.2382419939212923
    Molecular point group: c1
  Basis Set: 6-31G*
  Basis Set:

  -Total Gradient:
     Atom            X                  Y                   Z
    ------   -----------------  -----------------  -----------------
       1       -0.000000430110     0.000001371724    -0.000000796538
       2       -0.000005198685     0.000003760702     0.000003309279
       3        0.000001936064    -0.000011961105     0.000000493708
       4        0.000001004509     0.000012891467    -0.000007428962
       5        0.000000907251    -0.000000994093    -0.000002349795
       6        0.000001807537    -0.000002160798     0.000002548148
       7       -0.001861570852     0.004099713166     0.002408648336
       8       -0.000003309598    -0.000002275613    -0.000005342071
       9        0.000001591781     0.000005690308     0.000005109668
      10        0.000756952035     0.001900708785    -0.003975942989
      11        0.001399512467    -0.004027802622    -0.001010193070
      12       -0.000002734222     0.000000266701    -0.000004651803
      13       -0.000287317903    -0.001970727735     0.002571143577
      14        0.000017595006    -0.000001585860     0.000010163046
      15       -0.000001078937     0.000004420684     0.000004578061
      16       -0.000011061514     0.000005509522     0.000025657058
      17        0.000010700879    -0.000006728749    -0.000003860750
      18       -0.000005931369     0.000006282338    -0.000002192719
      19        0.000001175602    -0.000007920028    -0.000010426454
      20       -0.000007597183     0.000009084008    -0.000004795422
      21       -0.000003806826    -0.000008993149     0.000003877853
      22        0.000000916112     0.000005190262    -0.000001455150
      23        0.000001608635    -0.000000386853    -0.000003381653
      24       -0.000005670676    -0.000013353066    -0.000002711358

  **** Optimization is complete! (in 11 steps) ****
    Final optimized geometry and variables:
    Molecular point group: c1

    Geometry (in Angstrom), charge = 0, multiplicity = 1:

    H           -3.164281547040     0.684676691116    -1.881442255855
    O           -3.122343102882    -0.259607018676    -1.818827894940
    C           -2.889463671161    -0.625806335079    -0.482615281649
    C           -1.535826493873    -0.156737410081     0.041701191430
    H           -2.945895437573    -1.707090601230    -0.460614242391
    H           -3.684361346246    -0.246862748540     0.157597585983
    C           -0.364510924851    -0.757295124077    -0.739689069952
    H           -1.506469449127     0.930423523628     0.006112662445
    H           -1.470261015446    -0.429739102289     1.092703695978
    C            1.070274823547    -0.374439535867    -0.285007272219
    H           -0.485676255883    -0.534168734170    -1.793715697268
    H           -0.456222226896    -1.839752077096    -0.681455429482
    C            1.203058505503     0.834561820769     0.649395059662
    H            1.510322269060    -1.233605048051     0.211653532908
    H            1.681475727192    -0.199356922685    -1.166518260439
    C            2.654291971098     1.195493743390     0.991812646075
    H            0.658529941753     0.653627789601     1.572721549510
    H            0.740760059647     1.703723321416     0.187018237304
    C            3.394156104832     0.150141602019     1.829051931128
    H            2.653012467696     2.137037872453     1.535791478215
    H            3.206379930640     1.378217056043     0.072143223853
    H            2.855165423313    -0.066581393986     2.747634016536
    H            4.381895158930     0.507442078067     2.103836661183
    H            3.524792645258    -0.784089057611     1.293637176518

  Mulliken Charges: (a.u.)
   Center  Symbol    Alpha    Beta     Spin     Total
       1     H     0.28337  0.28337  0.00000  0.43325
       2     O     4.36821  4.36821  0.00000 -0.73641
       3     C     2.99654  2.99654  0.00000  0.00692
       4     C     3.17120  3.17120  0.00000 -0.34240
       5     H     0.41646  0.41646  0.00000  0.16708
       6     H     0.42792  0.42792  0.00000  0.14416
       7     C     3.15740  3.15740  0.00000 -0.31480
       8     H     0.42606  0.42606  0.00000  0.14787
       9     H     0.42176  0.42176  0.00000  0.15648
      10     C     3.15676  3.15676  0.00000 -0.31352
      11     H     0.40952  0.40952  0.00000  0.18096
      12     H     0.42191  0.42191  0.00000  0.15617
      13     C     3.15527  3.15527  0.00000 -0.31055
      14     H     0.42018  0.42018  0.00000  0.15963
      15     H     0.42079  0.42079  0.00000  0.15843
      16     C     3.15202  3.15202  0.00000 -0.30404
      17     H     0.42355  0.42355  0.00000  0.15291
      18     H     0.42343  0.42343  0.00000  0.15314
      19     C     3.24134  3.24134  0.00000 -0.48268
      20     H     0.42150  0.42150  0.00000  0.15699
      21     H     0.42321  0.42321  0.00000  0.15358
      22     H     0.42282  0.42282  0.00000  0.15437
      23     H     0.41931  0.41931  0.00000  0.16138
      24     H     0.41946  0.41946  0.00000  0.16108

   Total alpha = 33.00000, Total beta = 33.00000, Total charge = -0.00000
