                              Psi4 1.0.54 Driver

  ==> Input File <==

--------------------------------------------------------------------------
set {
	reference rhf
	basis cc-pvtz
}

set_num_threads( 4 )
memory 2 gb

molecule MOL {
0 1

H	 -3.436473	 1.252944	 -1.023892
O	 -3.458596	 0.315260	 -0.960865
C	 -3.176635	 -0.080824	 0.355601
C	 -1.763371	 0.265266	 0.799691
H	 -3.321825	 -1.153438	 0.379502
H	 -3.895468	 0.357385	 1.043382
C	 -0.673390	 -0.426948	 -0.013392
H	 -1.631049	 1.344913	 0.747560
H	 -1.664587	 -0.001624	 1.849167
C	 0.737842	 -0.043159	 0.423759
H	 -0.806103	 -0.190518	 -1.063345
H	 -0.797221	 -1.503753	 0.074146
C	 1.824000	 -0.743224	 -0.390623
H	 0.850588	 1.033777	 0.343840
H	 0.868587	 -0.286314	 1.476203
C	 3.255957	 -0.453067	 0.062319
H	 1.718250	 -0.470599	 -1.438164
H	 1.658105	 -1.815850	 -0.339904
C	 3.919085	 0.731169	 -0.636959
H	 3.857126	 -1.340139	 -0.112249
H	 3.265639	 -0.288286	 1.136644
H	 3.918642	 0.597011	 -1.714028
H	 4.950027	 0.837255	 -0.318922
H	 3.414726	 1.665068	 -0.420028

	symmetry c1
}
set optking {
	frozen_dihedral = ("
		20 16 13 17
	")
}

ee,wfn = optimize('scf', return_wfn=True)
oeprop( wfn, 'DIPOLE', 'QUADRUPOLE', 'MULLIKEN_CHARGES')
f=open( 'psi4out.xyz', 'w' )
f.write( "24  " )
f.write( str(ee) + "\n" )
f.write( MOL.save_string_xyz() )
f.close()
--------------------------------------------------------------------------

    Molecular point group: c1
  Charge       = 0
  Multiplicity = 1
  Basis Set: CC-PVTZ
  Basis Set:
  @DF-RHF Final Energy:  -349.37836803856021
    Total Energy =                       -349.3783680385607795
    Molecular point group: c1
  Basis Set: CC-PVTZ
  Basis Set:
  Basis Set: CC-PVTZ
  Basis Set:
  @DF-RHF Final Energy:  -349.25843160281028
    Total Energy =                       -349.2584316028104467
  Basis Set: CC-PVTZ
  Basis Set:
  Basis Set: CC-PVTZ
  Basis Set:
  @DF-RHF Final Energy:  -349.35071738922778
    Total Energy =                       -349.3507173892276114
  Basis Set: CC-PVTZ
  Basis Set:
  Basis Set: CC-PVTZ
  Basis Set:
  @DF-RHF Final Energy:  -349.37811131525064
    Total Energy =                       -349.3781113152507487
  Basis Set: CC-PVTZ
  Basis Set:
  @DF-RHF Final Energy:  -349.37884847378967
    Total Energy =                       -349.3788484737893327
  Basis Set: CC-PVTZ
  Basis Set:
  @DF-RHF Final Energy:  -349.37895127773447
    Total Energy =                       -349.3789512777346999
  Basis Set: CC-PVTZ
  Basis Set:
  Basis Set: CC-PVTZ
  Basis Set:
  @DF-RHF Final Energy:  -349.37895797498334
    Total Energy =                       -349.3789579749829954
  Basis Set: CC-PVTZ
  Basis Set:
  Basis Set: CC-PVTZ
  Basis Set:
  @DF-RHF Final Energy:  -349.37896020291441
    Total Energy =                       -349.3789602029144703
  Basis Set: CC-PVTZ
  Basis Set:
  Charge       = 0
  Multiplicity = 1
  Basis Set: CC-PVTZ
  Basis Set:

    Orbital Energies (a.u.)
    -----------------------

    Doubly Occupied:

       1A    -20.546304     2A    -11.265518     3A    -11.215206
       4A    -11.211654     5A    -11.210471     6A    -11.209229
       7A    -11.208863     8A    -11.205905     9A     -1.364168
      10A     -1.089601    11A     -1.049286    12A     -0.987437
      13A     -0.915267    14A     -0.847751    15A     -0.800423
      16A     -0.782441    17A     -0.681831    18A     -0.654852
      19A     -0.624832    20A     -0.621086    21A     -0.599150
      22A     -0.584236    23A     -0.559660    24A     -0.538288
      25A     -0.519431    26A     -0.511960    27A     -0.495545
      28A     -0.473893    29A     -0.468214    30A     -0.460487
      31A     -0.457190    32A     -0.451439    33A     -0.420701

  @DF-RHF Final Energy:  -349.37896032020501

   => Energetics <=

    Nuclear Repulsion Energy =            384.0991448411082274
    One-Electron Energy =               -1234.8915618207820444
    Two-Electron Energy =                 501.4134566594682383
    DFT Exchange-Correlation Energy =       0.0000000000000000
    Empirical Dispersion Energy =           0.0000000000000000
    PCM Polarization Energy =               0.0000000000000000
    EFP Energy =                            0.0000000000000000
    Total Energy =                       -349.3789603202055787
    Molecular point group: c1
  Basis Set: CC-PVTZ
  Basis Set:

  -Total Gradient:
     Atom            X                  Y                   Z
    ------   -----------------  -----------------  -----------------
       1        0.000003306285    -0.000007221718     0.000010173291
       2        0.000005562714    -0.000022564969     0.000011212717
       3        0.000011316557     0.000030212241     0.000019116953
       4       -0.000008054589    -0.000006379587    -0.000016182349
       5       -0.000004326505     0.000009031533    -0.000015312858
       6        0.000003052422    -0.000011940888    -0.000015420496
       7        0.000010591673     0.000013886014    -0.000001581541
       8       -0.000002925376    -0.000003388405     0.000000077370
       9       -0.000002351019     0.000006786389    -0.000014096206
      10       -0.000007101209    -0.000020342420    -0.000001909794
      11        0.000006804961     0.000000507174     0.000018357062
      12        0.000001982265     0.000001642816    -0.000002830875
      13        0.000320137786    -0.003725813831    -0.000722927390
      14       -0.000002360764    -0.000002615873    -0.000000990545
      15       -0.000007869444     0.000004621893    -0.000010638768
      16       -0.000402690767     0.002043087628    -0.003218515323
      17       -0.000192812728     0.002809149407     0.001152502523
      18        0.000001044697    -0.000000797738     0.000000705361
      19        0.000009398130     0.000006391735    -0.000012429240
      20        0.000276476870    -0.001118929665     0.002826450376
      21       -0.000010692888    -0.000001584295    -0.000016198472
      22        0.000006351495     0.000003073383     0.000014939443
      23       -0.000018194048    -0.000000286598    -0.000001042178
      24        0.000003353481    -0.000006524228    -0.000003459059

  **** Optimization is complete! (in 9 steps) ****
    Final optimized geometry and variables:
    Molecular point group: c1

    Geometry (in Angstrom), charge = 0, multiplicity = 1:

    H           -3.245369252045     1.910305138753     0.339774362177
    O           -3.429612049075     0.988622461714     0.354796531756
    C           -2.826352542948     0.400425098002     1.476967985923
    C           -1.306363674375     0.450586177879     1.439892798404
    H           -3.164422431394    -0.628025253134     1.489182396282
    H           -3.187487351305     0.869548752898     2.388693995258
    C           -0.691270000544    -0.313603090983     0.271124892528
    H           -0.987820941532     1.491419933204     1.406494083044
    H           -0.932519799649     0.049535530207     2.378861657946
    C            0.831564768627    -0.226579903443     0.230515615428
    H           -1.102909804281     0.063249935844    -0.658539842374
    H           -0.990028196133    -1.357422014156     0.335140908953
    C            1.450420538792    -1.016389177001    -0.922935445670
    H            1.127334851103     0.817108035230     0.157312542511
    H            1.239787519053    -0.591898313640     1.169943653534
    C            2.975526420577    -0.871072037205    -1.016484654684
    H            0.999520523848    -0.672635680363    -1.850270615319
    H            1.185327118735    -2.062873422998    -0.812481048441
    C            3.433680425202     0.324822303032    -1.845377785059
    H            3.404247689885    -1.781918925695    -1.421510047887
    H            3.384028555668    -0.786627121831    -0.012759421992
    H            3.106998250531     0.231184897123    -2.875525732194
    H            4.514477377275     0.409228466985    -1.847206263607
    H            3.033109360658     1.254758861018    -1.456558274525

  Mulliken Charges: (a.u.)
   Center  Symbol    Alpha    Beta     Spin     Total
       1     H     0.39531  0.39531  0.00000  0.20938
       2     O     4.20365  4.20365  0.00000 -0.40731
       3     C     2.97773  2.97773  0.00000  0.04454
       4     C     3.10172  3.10172  0.00000 -0.20345
       5     H     0.45890  0.45890  0.00000  0.08220
       6     H     0.46023  0.46023  0.00000  0.07955
       7     C     3.08848  3.08848  0.00000 -0.17695
       8     H     0.45927  0.45927  0.00000  0.08146
       9     H     0.45332  0.45332  0.00000  0.09337
      10     C     3.08955  3.08955  0.00000 -0.17910
      11     H     0.44601  0.44601  0.00000  0.10798
      12     H     0.45531  0.45531  0.00000  0.08938
      13     C     3.09390  3.09390  0.00000 -0.18781
      14     H     0.45478  0.45478  0.00000  0.09045
      15     H     0.45583  0.45583  0.00000  0.08833
      16     C     3.09059  3.09059  0.00000 -0.18118
      17     H     0.45575  0.45575  0.00000  0.08849
      18     H     0.44806  0.44806  0.00000  0.10388
      19     C     3.14792  3.14792  0.00000 -0.29584
      20     H     0.44798  0.44798  0.00000  0.10404
      21     H     0.45677  0.45677  0.00000  0.08645
      22     H     0.45473  0.45473  0.00000  0.09053
      23     H     0.44847  0.44847  0.00000  0.10306
      24     H     0.45574  0.45574  0.00000  0.08852

   Total alpha = 33.00000, Total beta = 33.00000, Total charge = -0.00000

*** Psi4 exiting successfully. Buy a developer a beer!
