  ==> Input File <==

--------------------------------------------------------------------------
set {
	reference rhf
	basis 6-31G*
}

set_num_threads( 4 )
memory 2 gb

molecule MOL {
0 1

O	 -1.541663	 1.616442	 -1.612799
C	 -1.782942	 0.755264	 -0.822488
C	 -0.889235	 -0.467034	 -0.705952
C	 -2.962583	 0.849753	 0.119262
C	 0.379448	 -0.143569	 0.099626
H	 -0.612906	 -0.769335	 -1.710223
H	 -1.425069	 -1.289373	 -0.240477
C	 1.631333	 -0.777471	 -0.511575
H	 0.482768	 0.934507	 0.149241
H	 0.263088	 -0.495696	 1.123449
C	 2.915987	 -0.544314	 0.291766
H	 1.766672	 -0.399098	 -1.523130
H	 1.471257	 -1.849544	 -0.605828
C	 3.373361	 0.914346	 0.347591
H	 3.708709	 -1.142521	 -0.150311
H	 2.780642	 -0.921148	 1.303579
H	 3.506512	 1.320010	 -0.651625
H	 4.322697	 0.999599	 0.867103
H	 2.660624	 1.545032	 0.868198
H	 -3.683975	 0.072763	 -0.119789
H	 -3.434030	 1.818184	 0.026178
H	 -2.648206	 0.689477	 1.146531

	symmetry c1
}
set optking {
	frozen_dihedral = ("
		6 3 5 8
	")
}

ee = optimize('scf')
oeprop('DIPOLE', 'QUADRUPOLE', 'MULLIKEN_CHARGES')
f=open( 'psi4out.xyz', 'w' )
f.write( "22  " )
f.write( str(ee) + "\n" )
f.write( MOL.save_string_xyz() )
f.close()
--------------------------------------------------------------------------

    Molecular point group: c1
  Charge       = 0
  Multiplicity = 1
  Basis Set: 6-31G*
  Basis Set:
  @DF-RHF Final Energy:  -348.09377495729797
    Total Energy =                       -348.0937749572980238
    Molecular point group: c1
  Basis Set: 6-31G*
  Basis Set:
  Basis Set: 6-31G*
  Basis Set:
  @DF-RHF Final Energy:  -348.09415072482449
    Total Energy =                       -348.0941507248243738
  Basis Set: 6-31G*
  Basis Set:
  Basis Set: 6-31G*
  Basis Set:
  @DF-RHF Final Energy:  -348.09418135890115
    Total Energy =                       -348.0941813589012099
  Basis Set: 6-31G*
  Basis Set:
  Basis Set: 6-31G*
  Basis Set:
  @DF-RHF Final Energy:  -348.09413016336606
    Total Energy =                       -348.0941301633662874
  Basis Set: 6-31G*
  Basis Set:
  @DF-RHF Final Energy:  -348.09432925906663
    Total Energy =                       -348.0943292590667966
  @DF-RHF Final Energy:  -348.09449901610867
    Total Energy =                       -348.0944990161086707
  Basis Set: 6-31G*
  Basis Set:
  @DF-RHF Final Energy:  -348.09454208808586
    Total Energy =                       -348.0945420880859729
  Basis Set: 6-31G*
  Basis Set:
  Basis Set: 6-31G*
  Basis Set:
  @DF-RHF Final Energy:  -348.09457125590978
    Total Energy =                       -348.0945712559098411
  Basis Set: 6-31G*
  Basis Set:
  Basis Set: 6-31G*
  Basis Set:
  @DF-RHF Final Energy:  -348.09458274911390
    Total Energy =                       -348.0945827491137834
  Basis Set: 6-31G*
  Basis Set:
  Charge       = 0
  Multiplicity = 1
  Basis Set: 6-31G*
  Basis Set:

    Orbital Energies (a.u.)
    -----------------------

    Doubly Occupied:

       1A    -20.547579     2A    -11.324034     3A    -11.232717
       4A    -11.228901     5A    -11.227417     6A    -11.223226
       7A    -11.221419     8A    -11.212720     9A     -1.392861
      10A     -1.096387    11A     -1.044987    12A     -0.997046
      13A     -0.938565    14A     -0.861387    15A     -0.788081
      16A     -0.734591    17A     -0.660608    18A     -0.638816
      19A     -0.631348    20A     -0.615474    21A     -0.602991
      22A     -0.588221    23A     -0.554399    24A     -0.540188
      25A     -0.536194    26A     -0.523860    27A     -0.498001
      28A     -0.488922    29A     -0.470062    30A     -0.465686
      31A     -0.460430    32A     -0.396602

  @DF-RHF Final Energy:  -348.09458370912751

   => Energetics <=

    Nuclear Repulsion Energy =            373.8592836286898091
    One-Electron Energy =               -1212.4202923361426656
    Two-Electron Energy =                 490.4664249983255786
    DFT Exchange-Correlation Energy =       0.0000000000000000
    Empirical Dispersion Energy =           0.0000000000000000
    PCM Polarization Energy =               0.0000000000000000
    EFP Energy =                            0.0000000000000000
    Total Energy =                       -348.0945837091272779
    Molecular point group: c1
  Basis Set: 6-31G*
  Basis Set:

  -Total Gradient:
     Atom            X                  Y                   Z
    ------   -----------------  -----------------  -----------------
       1       -0.000009337807    -0.000196126709     0.000068450354
       2        0.000163551437     0.000259600487    -0.000003842610
       3       -0.000086226221     0.005369738403    -0.001771739012
       4       -0.000040661796    -0.000095016753     0.000048517063
       5       -0.000402276501    -0.003958503468     0.002094637763
       6        0.000223082018    -0.003571785112     0.001007521131
       7       -0.000071515992     0.000017387752     0.000010286263
       8        0.000242002341     0.002288019664    -0.001447024282
       9        0.000001683682    -0.000046260863    -0.000032104229
      10        0.000000411979    -0.000052265381    -0.000029949014
      11        0.000016214737    -0.000036998956     0.000095098456
      12       -0.000064196355    -0.000003821201    -0.000029593114
      13       -0.000020927904     0.000025514912     0.000009694362
      14        0.000018521120    -0.000004424677     0.000021802895
      15        0.000029644156     0.000005175481     0.000026163832
      16        0.000049875026     0.000018330639     0.000011155783
      17        0.000014089469     0.000006997138    -0.000017441307
      18       -0.000013321321     0.000014439372    -0.000003504344
      19        0.000032082517    -0.000018790938    -0.000000575511
      20       -0.000030423137    -0.000024461849     0.000028146218
      21       -0.000001292523    -0.000005453757    -0.000038375929
      22       -0.000050978931     0.000008705813    -0.000047324766

  **** Optimization is complete! (in 10 steps) ****
    Final optimized geometry and variables:
    Molecular point group: c1

    Geometry (in Angstrom), charge = 0, multiplicity = 1:

    O           -2.067897970475     1.032467440121    -1.569284187282
    C           -1.962074825973     0.395535896667    -0.565965910884
    C           -0.979206104105    -0.752666432276    -0.456649618098
    C           -2.801946898357     0.701979832588     0.656454396288
    C            0.250466967909    -0.407629264342     0.418562545991
    H           -0.667984254802    -1.029054084215    -1.456360171988
    H           -1.488320115729    -1.617303944729    -0.037138846908
    C            1.545036648491    -0.995590892830    -0.149980775937
    H            0.356004290154     0.671611863349     0.483565339631
    H            0.097070684100    -0.762287479223     1.433858990845
    C            2.780959824124    -0.785196253453     0.731744283895
    H            1.722731428963    -0.566069665752    -1.133418033400
    H            1.406982266379    -2.064039168343    -0.303756441860
    C            3.204385708549     0.675783614492     0.895867827077
    H            3.608027986692    -1.341245722237     0.297709409575
    H            2.603443762431    -1.223310084019     1.711879501704
    H            3.372760374458     1.144338679247    -0.069863179481
    H            4.127627932127     0.746698612274     1.462321762241
    H            2.456581879087     1.260543849075     1.421330865076
    H           -3.486821628862    -0.120843026562     0.843661187488
    H           -3.368790917768     1.608050396604     0.493418431029
    H           -2.181880246299     0.811500320711     1.540632224850

  Mulliken Charges: (a.u.)
   Center  Symbol    Alpha    Beta     Spin     Total
       1     O     4.26064  4.26064  0.00000 -0.52128
       2     C     2.73821  2.73821  0.00000  0.52358
       3     C     3.20347  3.20347  0.00000 -0.40693
       4     C     3.29000  3.29000  0.00000 -0.57999
       5     C     3.16477  3.16477  0.00000 -0.32954
       6     H     0.39830  0.39830  0.00000  0.20340
       7     H     0.41377  0.41377  0.00000  0.17247
       8     C     3.15481  3.15481  0.00000 -0.30962
       9     H     0.41221  0.41221  0.00000  0.17558
      10     H     0.41794  0.41794  0.00000  0.16413
      11     C     3.15414  3.15414  0.00000 -0.30828
      12     H     0.41689  0.41689  0.00000  0.16622
      13     H     0.42022  0.42022  0.00000  0.15957
      14     C     3.24209  3.24209  0.00000 -0.48418
      15     H     0.41874  0.41874  0.00000  0.16251
      16     H     0.42310  0.42310  0.00000  0.15381
      17     H     0.41959  0.41959  0.00000  0.16082
      18     H     0.41787  0.41787  0.00000  0.16426
      19     H     0.42063  0.42063  0.00000  0.15873
      20     H     0.40754  0.40754  0.00000  0.18492
      21     H     0.39681  0.39681  0.00000  0.20639
      22     H     0.40827  0.40827  0.00000  0.18346

   Total alpha = 32.00000, Total beta = 32.00000, Total charge =  0.00000
