                              Psi4 1.0.54 Driver

  ==> Input File <==

--------------------------------------------------------------------------
set {
	reference rhf
	basis cc-pvtz
}

set_num_threads( 4 )
memory 2 gb

molecule MOL {
0 1

H	 2.614283	 2.028610	 0.296620
O	 3.358864	 1.662087	 -0.142800
C	 3.565468	 0.338079	 0.273842
C	 2.533667	 -0.637565	 -0.272227
H	 4.548038	 0.064914	 -0.086598
H	 3.593945	 0.282242	 1.360360
C	 1.114816	 -0.402372	 0.240993
H	 2.544552	 -0.580764	 -1.356576
H	 2.850574	 -1.642962	 -0.005497
C	 0.113298	 -1.420414	 -0.302504
H	 0.796373	 0.598427	 -0.031033
H	 1.113377	 -0.446476	 1.328807
C	 -1.349154	 -1.138045	 0.046433
H	 0.218739	 -1.483064	 -1.382867
H	 0.374922	 -2.401712	 0.083600
C	 -1.939302	 0.112007	 -0.603827
H	 -1.943182	 -1.996753	 -0.254033
H	 -1.452096	 -1.064086	 1.126751
C	 -3.425143	 0.295660	 -0.305569
H	 -1.795142	 0.057179	 -1.680712
H	 -1.403553	 0.995392	 -0.269751
C	 -4.016682	 1.544826	 -0.950208
H	 -3.970696	 -0.579045	 -0.648850
H	 -3.571873	 0.342130	 0.770244
H	 -3.914443	 1.513832	 -2.029941
H	 -5.071624	 1.643405	 -0.721106
H	 -3.517098	 2.441403	 -0.598191

	symmetry c1
}
set optking {
	frozen_dihedral = ("
		14 10 7 4
	")
}

ee,wfn = optimize('scf', return_wfn=True)
oeprop( wfn, 'DIPOLE', 'QUADRUPOLE', 'MULLIKEN_CHARGES')
f=open( 'psi4out.xyz', 'w' )
f.write( "27  " )
f.write( str(ee) + "\n" )
f.write( MOL.save_string_xyz() )
f.close()
--------------------------------------------------------------------------

    Molecular point group: c1
  Charge       = 0
  Multiplicity = 1
  Basis Set: CC-PVTZ
  Basis Set:
  @DF-RHF Final Energy:  -388.42740730671835
    Total Energy =                       -388.4274073067185782
    Molecular point group: c1
  Basis Set: CC-PVTZ
  Basis Set:
  Basis Set: CC-PVTZ
  Basis Set:
  @DF-RHF Final Energy:  -388.42715668543048
    Total Energy =                       -388.4271566854301909
  Basis Set: CC-PVTZ
  Basis Set:
  Basis Set: CC-PVTZ
  Basis Set:
  @DF-RHF Final Energy:  -388.42747815581657
    Total Energy =                       -388.4274781558160612
  Basis Set: CC-PVTZ
  Basis Set:
  Basis Set: CC-PVTZ
  Basis Set:
  @DF-RHF Final Energy:  -388.42748795113692
    Total Energy =                       -388.4274879511372092
  Basis Set: CC-PVTZ
  Basis Set:
  Basis Set: CC-PVTZ
  Basis Set:
  @DF-RHF Final Energy:  -388.42749157936447
    Total Energy =                       -388.4274915793641867
  Basis Set: CC-PVTZ
  Basis Set:
  Basis Set: CC-PVTZ
  Basis Set:
  @DF-RHF Final Energy:  -388.42749283658219
    Total Energy =                       -388.4274928365821324
  Basis Set: CC-PVTZ
  Basis Set:
  Charge       = 0
  Multiplicity = 1
  Basis Set: CC-PVTZ
  Basis Set:

    Orbital Energies (a.u.)
    -----------------------

    Doubly Occupied:

       1A    -20.545392     2A    -11.264984     3A    -11.216658
       4A    -11.214667     5A    -11.213726     6A    -11.213300
       7A    -11.213281     8A    -11.211630     9A    -11.207025
      10A     -1.363275    11A     -1.095971    12A     -1.062528
      13A     -1.012416    14A     -0.949515    15A     -0.888408
      16A     -0.820626    17A     -0.800887    18A     -0.779454
      19A     -0.696615    20A     -0.649924    21A     -0.640626
      22A     -0.615981    23A     -0.603544    24A     -0.582023
      25A     -0.581474    26A     -0.554107    27A     -0.540811
      28A     -0.531569    29A     -0.506145    30A     -0.495468
      31A     -0.484753    32A     -0.474101    33A     -0.470143
      34A     -0.461348    35A     -0.451962    36A     -0.442526
      37A     -0.425771

  @DF-RHF Final Energy:  -388.42749289774849

   => Energetics <=

    Nuclear Repulsion Energy =            460.3565693146351805
    One-Electron Energy =               -1439.0028630526849156
    Two-Electron Energy =                 590.2188008403009007
    DFT Exchange-Correlation Energy =       0.0000000000000000
    Empirical Dispersion Energy =           0.0000000000000000
    PCM Polarization Energy =               0.0000000000000000
    EFP Energy =                            0.0000000000000000
    Total Energy =                       -388.4274928977488344
    Molecular point group: c1
  Basis Set: CC-PVTZ
  Basis Set:

  -Total Gradient:
     Atom            X                  Y                   Z
    ------   -----------------  -----------------  -----------------
       1       -0.000006091623     0.000002897333     0.000001896805
       2       -0.000015577780    -0.000009682912     0.000011321036
       3        0.000021403032    -0.000017932979    -0.000029439329
       4       -0.000220356538     0.000745073392    -0.000929695167
       5        0.000006078269    -0.000002222686     0.000000873504
       6       -0.000009984927     0.000005483013    -0.000011316370
       7        0.000573692821    -0.001329090991     0.001366776488
       8        0.000012715004     0.000005462339     0.000010873898
       9        0.000000693738     0.000005948566     0.000000816746
      10       -0.001482225991     0.001819490103    -0.000589521702
      11       -0.000000039559    -0.000003625611     0.000001679675
      12        0.000003509118     0.000007554437    -0.000005029361
      13       -0.000001939892    -0.000005204606    -0.000002348020
      14        0.001130055011    -0.001234253717     0.000167458684
      15        0.000000470732     0.000006632872     0.000000344847
      16        0.000000771473    -0.000007566031    -0.000005652317
      17        0.000001752680     0.000002459634     0.000004190046
      18       -0.000004489288     0.000006012252    -0.000007538314
      19        0.000003114199     0.000008771177     0.000008879743
      20        0.000002112216     0.000000888638     0.000012689438
      21       -0.000016619249    -0.000012589797    -0.000001994035
      22       -0.000005718494     0.000001193729    -0.000003431660
      23        0.000009523856     0.000011007453     0.000002190394
      24       -0.000001050358     0.000000072850    -0.000011426040
      25        0.000001113689     0.000000856561     0.000013962824
      26        0.000002397703     0.000002293227    -0.000005138715
      27       -0.000005309841    -0.000009928251    -0.000001423100

  **** Optimization is complete! (in 7 steps) ****
    Final optimized geometry and variables:
    Molecular point group: c1

    Geometry (in Angstrom), charge = 0, multiplicity = 1:

    H            2.625493428211     1.921850886725     0.625146917621
    O            3.362678023344     1.566990523579     0.164418748677
    C            3.551363151189     0.220962027524     0.513434094371
    C            2.501801321501    -0.710324503322    -0.074211569769
    H            4.527873699584    -0.048642060284     0.134340705848
    H            3.584210152550     0.110904417856     1.595590691235
    C            1.086402122260    -0.467420955728     0.444798159565
    H            2.514779012591    -0.608297124325    -1.154926236494
    H            2.799295574152    -1.732137718816     0.150143730156
    C            0.073870386749    -1.471736945963    -0.105138123082
    H            0.780875530831     0.538772057939     0.177779834938
    H            1.081728481076    -0.516803108681     1.531961746402
    C           -1.383733056295    -1.193344252102     0.265688155217
    H            0.173421003159    -1.527741469437    -1.186316964601
    H            0.340582250274    -2.458332231944     0.264415286867
    C           -2.002557834988     0.025210310510    -0.417049191401
    H           -1.975121970475    -2.067809738822     0.009248480843
    H           -1.464314101211    -1.082094918769     1.344759308584
    C           -3.476405808575     0.220016934778    -0.070492525844
    H           -1.899997274769    -0.079843266223    -1.494747758463
    H           -1.457752594022     0.924426204095    -0.146382681340
    C           -4.097894844718     1.434021574251    -0.752888139785
    H           -4.031193243769    -0.671946634120    -0.348252114661
    H           -3.581459518137     0.319758996127     1.006512900045
    H           -4.038361168129     1.348987000801    -1.832848854652
    H           -5.143269821328     1.542019671038    -0.487285455342
    H           -3.588202474884     2.348045939177    -0.466523159446

  Mulliken Charges: (a.u.)
   Center  Symbol    Alpha    Beta     Spin     Total
       1     H     0.39220  0.39220  0.00000  0.21561
       2     O     4.20557  4.20557  0.00000 -0.41113
       3     C     2.97963  2.97963  0.00000  0.04073
       4     C     3.08959  3.08959  0.00000 -0.17919
       5     H     0.44884  0.44884  0.00000  0.10232
       6     H     0.46949  0.46949  0.00000  0.06102
       7     C     3.10165  3.10165  0.00000 -0.20330
       8     H     0.45052  0.45052  0.00000  0.09896
       9     H     0.45540  0.45540  0.00000  0.08919
      10     C     3.09963  3.09963  0.00000 -0.19926
      11     H     0.45639  0.45639  0.00000  0.08722
      12     H     0.45318  0.45318  0.00000  0.09364
      13     C     3.09816  3.09816  0.00000 -0.19631
      14     H     0.45213  0.45213  0.00000  0.09573
      15     H     0.44782  0.44782  0.00000  0.10435
      16     C     3.08711  3.08711  0.00000 -0.17422
      17     H     0.44768  0.44768  0.00000  0.10463
      18     H     0.45438  0.45438  0.00000  0.09124
      19     C     3.08423  3.08423  0.00000 -0.16846
      20     H     0.45422  0.45422  0.00000  0.09156
      21     H     0.45520  0.45520  0.00000  0.08960
      22     C     3.14954  3.14954  0.00000 -0.29907
      23     H     0.45387  0.45387  0.00000  0.09226
      24     H     0.45471  0.45471  0.00000  0.09058
      25     H     0.45484  0.45484  0.00000  0.09031
      26     H     0.44834  0.44834  0.00000  0.10331
      27     H     0.45567  0.45567  0.00000  0.08866

   Total alpha = 37.00000, Total beta = 37.00000, Total charge = -0.00000

*** Psi4 exiting successfully. Buy a developer a beer!
