  ==> Input File <==

--------------------------------------------------------------------------
set {
	reference rhf
	basis 6-31G*
}

set_num_threads( 4 )
memory 2 gb

molecule MOL {
0 1

O	 -1.940661	 -2.208827	 -0.430533
C	 -0.875941	 -1.719744	 -0.228260
C	 0.435342	 -2.467856	 -0.194652
O	 -0.698257	 -0.426125	 0.001050
C	 0.278147	 -3.961007	 -0.453025
H	 0.891978	 -2.279997	 0.772530
H	 1.091465	 -2.006859	 -0.926942
H	 -0.363665	 -4.419592	 0.289363
H	 1.245626	 -4.450466	 -0.417979
H	 -0.162101	 -4.144038	 -1.425654
C	 -1.853104	 0.406779	 0.000512
C	 -3.066105	 -0.499277	 -0.000959
H	 -1.828410	 1.043074	 -0.873618
H	 -1.829857	 1.042383	 0.875188
H	 -3.071820	 -1.133106	 -0.880383
H	 -3.972708	 0.097145	 -0.001528
H	 -3.073405	 -1.133813	 0.877999

	symmetry c1
}
set optking {
	frozen_dihedral = ("
		2 4 11 13
	")
}

ee = optimize('scf')
oeprop('DIPOLE', 'QUADRUPOLE', 'MULLIKEN_CHARGES')
f=open( 'psi4out.xyz', 'w' )
f.write( "17  " )
f.write( str(ee) + "\n" )
f.write( MOL.save_string_xyz() )
f.close()
--------------------------------------------------------------------------

    Molecular point group: c1
  Charge       = 0
  Multiplicity = 1
  Basis Set: 6-31G*
  Basis Set:
  @DF-RHF Final Energy:  -344.83323540473566
    Total Energy =                       -344.8332354047356034
    Molecular point group: c1
  Basis Set: 6-31G*
  Basis Set:
  Basis Set: 6-31G*
  Basis Set:
  @DF-RHF Final Energy:  -344.88162197389380
    Total Energy =                       -344.8816219738937434
  Basis Set: 6-31G*
  Basis Set:
  Basis Set: 6-31G*
  Basis Set:
  @DF-RHF Final Energy:  -344.89368203449322
    Total Energy =                       -344.8936820344932812
  Basis Set: 6-31G*
  Basis Set:
  Basis Set: 6-31G*
  Basis Set:
  @DF-RHF Final Energy:  -344.89530186667054
    Total Energy =                       -344.8953018666704793
  Basis Set: 6-31G*
  Basis Set:
  @DF-RHF Final Energy:  -344.89951758921336
    Total Energy =                       -344.8995175892133602
  @DF-RHF Final Energy:  -344.90038547037040
    Total Energy =                       -344.9003854703706224
  Basis Set: 6-31G*
  Basis Set:
  @DF-RHF Final Energy:  -344.90048496603595
    Total Energy =                       -344.9004849660360605
  Basis Set: 6-31G*
  Basis Set:
  Basis Set: 6-31G*
  Basis Set:
  @DF-RHF Final Energy:  -344.90050466686188
    Total Energy =                       -344.9005046668614796
  Basis Set: 6-31G*
  Basis Set:
  Basis Set: 6-31G*
  Basis Set:
  @DF-RHF Final Energy:  -344.90051327350727
    Total Energy =                       -344.9005132735073289
  Basis Set: 6-31G*
  Basis Set:
  Charge       = 0
  Multiplicity = 1
  Basis Set: 6-31G*
  Basis Set:

    Orbital Energies (a.u.)
    -----------------------

    Doubly Occupied:

       1A    -20.597981     2A    -20.540436     3A    -11.372699
       4A    -11.291381     5A    -11.234670     6A    -11.216224
       7A    -11.213642     8A     -1.460036     9A     -1.361400
      10A     -1.067551    11A     -1.028135    12A     -0.919491
      13A     -0.858561    14A     -0.741741    15A     -0.691089
      16A     -0.680788    17A     -0.669066    18A     -0.628046
      19A     -0.602072    20A     -0.566810    21A     -0.546019
      22A     -0.529374    23A     -0.521722    24A     -0.516943
      25A     -0.493554    26A     -0.490936    27A     -0.442124
      28A     -0.427539

  @DF-RHF Final Energy:  -344.90051418317023

   => Energetics <=

    Nuclear Repulsion Energy =            318.5010939183083565
    One-Electron Energy =               -1101.3831563131839175
    Two-Electron Energy =                 437.9815482117052170
    DFT Exchange-Correlation Energy =       0.0000000000000000
    Empirical Dispersion Energy =           0.0000000000000000
    PCM Polarization Energy =               0.0000000000000000
    EFP Energy =                            0.0000000000000000
    Total Energy =                       -344.9005141831703440
    Molecular point group: c1
  Basis Set: 6-31G*
  Basis Set:

  -Total Gradient:
     Atom            X                  Y                   Z
    ------   -----------------  -----------------  -----------------
       1       -0.000007213344    -0.000074074921    -0.000050721998
       2       -0.000277687088    -0.000583146391     0.003415544498
       3       -0.000011366492    -0.000005541994     0.000060027802
       4        0.000910979704     0.001389627858    -0.004860440078
       5       -0.000030691772     0.000012923399    -0.000028223565
       6       -0.000008914644     0.000016392055    -0.000023825011
       7        0.000011436420     0.000012664038    -0.000031766380
       8       -0.000004830284    -0.000013517542     0.000004489814
       9        0.000000632282     0.000014905135     0.000006631994
      10       -0.000000601700     0.000002201028     0.000010409404
      11       -0.002583582619    -0.003125136876    -0.000338697619
      12       -0.000004819058     0.000043387109    -0.000007474673
      13        0.002016298105     0.002313367669     0.001811420349
      14       -0.000015098009     0.000021649374     0.000002138294
      15        0.000011407551    -0.000002955386     0.000000947851
      16       -0.000008663818    -0.000013013800     0.000004363457
      17        0.000002714765    -0.000009730752     0.000025175861

  **** Optimization is complete! (in 10 steps) ****
    Final optimized geometry and variables:
    Molecular point group: c1

    Geometry (in Angstrom), charge = 0, multiplicity = 1:

    O           -0.725918311346    -0.857257742865    -0.424089626392
    C            0.251899863856    -0.263175456875    -0.103334113633
    C            1.612702006747    -0.895733205754     0.086959617610
    O            0.321562038432     1.039685597648     0.121801522071
    C            1.623361388398    -2.390678494073    -0.205644461889
    H            1.926075744783    -0.691016537630     1.106393111276
    H            2.311921807787    -0.363238860264    -0.550448035890
    H            0.936791336903    -2.920323103952     0.443483300897
    H            2.618794076731    -2.794271626933    -0.052952885233
    H            1.327572581126    -2.590000662733    -1.228505352563
    C           -0.782488124297     1.948093533126     0.175670142263
    C           -2.186489153949     1.390612274413     0.345760831075
    H           -0.708051458431     2.570878204785    -0.706757283079
    H           -0.546722107423     2.579399571155     1.022126909591
    H           -2.527555281838     0.844133955642    -0.518802151349
    H           -2.845333674141     2.239410420497     0.509017433839
    H           -2.255542702329     0.740694296468     1.208928959638

  Mulliken Charges: (a.u.)
   Center  Symbol    Alpha    Beta     Spin     Total
       1     O     4.28540  4.28540  0.00000 -0.57080
       2     C     2.60550  2.60550  0.00000  0.78899
       3     C     3.20360  3.20360  0.00000 -0.40721
       4     O     4.32254  4.32254  0.00000 -0.64508
       5     C     3.23846  3.23846  0.00000 -0.47691
       6     H     0.40230  0.40230  0.00000  0.19539
       7     H     0.40112  0.40112  0.00000  0.19776
       8     H     0.41045  0.41045  0.00000  0.17909
       9     H     0.41897  0.41897  0.00000  0.16206
      10     H     0.41064  0.41064  0.00000  0.17873
      11     C     2.99180  2.99180  0.00000  0.01640
      12     C     3.25367  3.25367  0.00000 -0.50734
      13     H     0.41392  0.41392  0.00000  0.17217
      14     H     0.41254  0.41254  0.00000  0.17492
      15     H     0.39650  0.39650  0.00000  0.20700
      16     H     0.42145  0.42145  0.00000  0.15709
      17     H     0.41112  0.41112  0.00000  0.17775

   Total alpha = 28.00000, Total beta = 28.00000, Total charge =  0.00000
