                              Psi4 1.0.54 Driver

  ==> Input File <==

--------------------------------------------------------------------------
set {
	reference rhf
	basis cc-pvtz
}

set_num_threads( 4 )
memory 2 gb

molecule MOL {
0 1

O	 1.315041	 0.200435	 0.918707
C	 0.576499	 0.134701	 -0.003900
C	 -0.765656	 -0.550508	 -0.002152
O	 0.846008	 0.660327	 -1.187562
C	 -1.945526	 0.411052	 0.000603
H	 -0.794329	 -1.203792	 -0.868145
H	 -0.791555	 -1.205429	 0.862701
C	 -3.282915	 -0.321280	 0.002596
H	 -1.880300	 1.059126	 -0.864925
H	 -1.877207	 1.057892	 0.866807
H	 -3.388495	 -0.952755	 -0.873419
H	 -4.107811	 0.380864	 0.004116
H	 -3.385717	 -0.953283	 0.878571
C	 2.080906	 1.332518	 -1.333157
H	 2.143617	 2.166488	 -0.650065
H	 2.110085	 1.682705	 -2.352082
H	 2.905091	 0.660442	 -1.145874

	symmetry c1
}
set optking {
	frozen_dihedral = ("
		1 2 3 6
	")
}

ee,wfn = optimize('scf', return_wfn=True)
oeprop( wfn, 'DIPOLE', 'QUADRUPOLE', 'MULLIKEN_CHARGES')
f=open( 'psi4out.xyz', 'w' )
f.write( "17  " )
f.write( str(ee) + "\n" )
f.write( MOL.save_string_xyz() )
f.close()
--------------------------------------------------------------------------

    Molecular point group: c1
  Charge       = 0
  Multiplicity = 1
  Basis Set: CC-PVTZ
  Basis Set:
  @DF-RHF Final Energy:  -345.03376438899875
    Total Energy =                       -345.0337643889987476
    Molecular point group: c1
  Basis Set: CC-PVTZ
  Basis Set:
  Basis Set: CC-PVTZ
  Basis Set:
  @DF-RHF Final Energy:  -345.03388718029083
    Total Energy =                       -345.0338871802907761
  Basis Set: CC-PVTZ
  Basis Set:
  Basis Set: CC-PVTZ
  Basis Set:
  @DF-RHF Final Energy:  -345.03316222761015
    Total Energy =                       -345.0331622276104326
  Basis Set: CC-PVTZ
  Basis Set:
  Basis Set: CC-PVTZ
  Basis Set:
  @DF-RHF Final Energy:  -345.03422555119107
    Total Energy =                       -345.0342255511908434
  Basis Set: CC-PVTZ
  Basis Set:
  Basis Set: CC-PVTZ
  Basis Set:
  @DF-RHF Final Energy:  -345.03423166259427
    Total Energy =                       -345.0342316625941521
  Basis Set: CC-PVTZ
  Basis Set:
  Basis Set: CC-PVTZ
  Basis Set:
  @DF-RHF Final Energy:  -345.03423286376602
    Total Energy =                       -345.0342328637661353
  Basis Set: CC-PVTZ
  Basis Set:
  Charge       = 0
  Multiplicity = 1
  Basis Set: CC-PVTZ
  Basis Set:

    Orbital Energies (a.u.)
    -----------------------

    Doubly Occupied:

       1A    -20.597288     2A    -20.533003     3A    -11.363676
       4A    -11.278779     5A    -11.232904     6A    -11.230092
       7A    -11.216847     8A     -1.472102     9A     -1.364869
      10A     -1.085686    11A     -1.000312    12A     -0.942460
      13A     -0.831544    14A     -0.776276    15A     -0.699466
      16A     -0.683406    17A     -0.676417    18A     -0.638394
      19A     -0.597131    20A     -0.581121    21A     -0.550013
      22A     -0.547866    23A     -0.527440    24A     -0.510048
      25A     -0.489773    26A     -0.484985    27A     -0.458619
      28A     -0.435095

  @DF-RHF Final Energy:  -345.03423290554406

   => Energetics <=

    Nuclear Repulsion Energy =            314.6709569815973282
    One-Electron Energy =               -1093.7991551768627687
    Two-Electron Energy =                 434.0939652897218366
    DFT Exchange-Correlation Energy =       0.0000000000000000
    Empirical Dispersion Energy =           0.0000000000000000
    PCM Polarization Energy =               0.0000000000000000
    EFP Energy =                            0.0000000000000000
    Total Energy =                       -345.0342329055436039
    Molecular point group: c1
  Basis Set: CC-PVTZ
  Basis Set:

  -Total Gradient:
     Atom            X                  Y                   Z
    ------   -----------------  -----------------  -----------------
       1        0.000079199464    -0.000155251249    -0.000095269301
       2       -0.000100108360     0.000182005770     0.000170038700
       3       -0.000068768624     0.000111852502    -0.000153768402
       4       -0.000013381551     0.000013401114    -0.000018700317
       5        0.000005803155    -0.000000517549     0.000018120194
       6        0.000092662511    -0.000142686283     0.000086689645
       7       -0.000000547120     0.000005589088    -0.000002388273
       8       -0.000003744677    -0.000003877909    -0.000011323084
       9        0.000000112474    -0.000004443596     0.000000438936
      10        0.000003221356     0.000002131976     0.000001348534
      11       -0.000001165476    -0.000004081321    -0.000000307443
      12        0.000001265430     0.000000701162    -0.000000860239
      13        0.000002575547     0.000005432295     0.000000142209
      14        0.000008770438    -0.000012637028     0.000005687528
      15       -0.000001733848    -0.000000633925    -0.000002301952
      16       -0.000005117672    -0.000004168257     0.000005130891
      17        0.000000956953     0.000007183210    -0.000002677629

  **** Optimization is complete! (in 7 steps) ****
    Final optimized geometry and variables:
    Molecular point group: c1

    Geometry (in Angstrom), charge = 0, multiplicity = 1:

    O            1.532720052169    -0.042583001875     1.058086941137
    C            0.747624527914    -0.107160849545     0.174005856049
    C           -0.508677093287    -0.937394413450     0.198693678462
    O            0.876779746051     0.563930065237    -0.958987426010
    C           -1.771479300983    -0.077784424743     0.316560376998
    H           -0.549386198067    -1.524948553225    -0.711310552198
    H           -0.430181073896    -1.611109794106     1.039946989587
    C           -3.037648686419    -0.924528269026     0.374189056277
    H           -1.822662805640     0.601366770221    -0.525898444582
    H           -1.702501293183     0.533372620330     1.210749567974
    H           -3.146494813871    -1.526778438123    -0.521391943680
    H           -3.917600714281    -0.298567673156     0.461555818586
    H           -3.022163151793    -1.595909751492     1.225701220429
    C            2.007874419228     1.400835029650    -1.091963237523
    H            2.011155588246     2.161753125746    -0.325688824258
    H            1.929965816805     1.854248233939    -2.066786136140
    H            2.918298484346     0.824620619237    -1.020144390725

  Mulliken Charges: (a.u.)
   Center  Symbol    Alpha    Beta     Spin     Total
       1     O     4.20050  4.20050  0.00000 -0.40101
       2     C     2.80698  2.80698  0.00000  0.38603
       3     C     3.07794  3.07794  0.00000 -0.15588
       4     O     4.15033  4.15033  0.00000 -0.30066
       5     C     3.09324  3.09324  0.00000 -0.18648
       6     H     0.44676  0.44676  0.00000  0.10647
       7     H     0.43810  0.43810  0.00000  0.12380
       8     C     3.15114  3.15114  0.00000 -0.30229
       9     H     0.44470  0.44470  0.00000  0.11059
      10     H     0.44717  0.44717  0.00000  0.10566
      11     H     0.45420  0.45420  0.00000  0.09159
      12     H     0.44615  0.44615  0.00000  0.10769
      13     H     0.45285  0.45285  0.00000  0.09430
      14     C     3.03722  3.03722  0.00000 -0.07444
      15     H     0.45445  0.45445  0.00000  0.09110
      16     H     0.44553  0.44553  0.00000  0.10895
      17     H     0.45271  0.45271  0.00000  0.09459

   Total alpha = 28.00000, Total beta = 28.00000, Total charge =  0.00000

*** Psi4 exiting successfully. Buy a developer a beer!
