  ==> Input File <==

--------------------------------------------------------------------------
set {
	reference rhf
	basis cc-pvtz
}

set_num_threads( 4 )
memory 2 gb

molecule MOL {
0 1

H	 -2.306235	 -0.187698	 1.634978
O	 -1.915379	 0.653459	 1.785266
C	 -0.977029	 0.936790	 0.785585
C	 0.286396	 0.117797	 0.961084
H	 -1.386000	 0.766728	 -0.205350
H	 -0.738504	 1.987692	 0.865536
O	 1.172093	 0.457955	 -0.054438
H	 0.048610	 -0.946498	 0.920721
H	 0.716986	 0.318995	 1.939698
C	 2.395478	 -0.199028	 -0.000366
H	 2.505946	 -0.901710	 -0.823354
H	 3.174616	 0.545641	 -0.071768
H	 2.513730	 -0.742241	 0.934223

	symmetry c1
}
set optking {
	frozen_dihedral = ("
		4 7 10 13
	")
}

ee = optimize('scf')
oeprop('DIPOLE', 'QUADRUPOLE', 'MULLIKEN_CHARGES')
f=open( 'psi4out.xyz', 'w' )
f.write( "13  " )
f.write( str(ee) + "\n" )
f.write( MOL.save_string_xyz() )
f.close()
--------------------------------------------------------------------------

    Molecular point group: c1
  Charge       = 0
  Multiplicity = 1
  Basis Set: CC-PVTZ
  Basis Set:
  @DF-RHF Final Energy:  -268.05858656667010
    Total Energy =                       -268.0585865666702148
    Molecular point group: c1
  Basis Set: CC-PVTZ
  Basis Set:
  Basis Set: CC-PVTZ
  Basis Set:
  @DF-RHF Final Energy:  -268.05885936635860
    Total Energy =                       -268.0588593663588313
  Basis Set: CC-PVTZ
  Basis Set:
  Basis Set: CC-PVTZ
  Basis Set:
  @DF-RHF Final Energy:  -268.05894275119789
    Total Energy =                       -268.0589427511978329
  Basis Set: CC-PVTZ
  Basis Set:
  Charge       = 0
  Multiplicity = 1
  Basis Set: CC-PVTZ
  Basis Set:

    Orbital Energies (a.u.)
    -----------------------

    Doubly Occupied:

       1A    -20.552675     2A    -20.552537     3A    -11.269731
       4A    -11.267365     5A    -11.266927     6A     -1.387832
       7A     -1.368400     8A     -1.019416     9A     -0.914233
      10A     -0.842460    11A     -0.711244    12A     -0.673408
      13A     -0.660893    14A     -0.638525    15A     -0.597550
      16A     -0.571359    17A     -0.549206    18A     -0.491841
      19A     -0.482857    20A     -0.441105    21A     -0.419331

  @DF-RHF Final Energy:  -268.05894336410540

   => Energetics <=

    Nuclear Repulsion Energy =            190.1831432778753310
    One-Electron Energy =                -743.1263913308273459
    Two-Electron Energy =                 284.8843046888465551
    DFT Exchange-Correlation Energy =       0.0000000000000000
    Empirical Dispersion Energy =           0.0000000000000000
    PCM Polarization Energy =               0.0000000000000000
    EFP Energy =                            0.0000000000000000
    Total Energy =                       -268.0589433641054029
    Molecular point group: c1
  Basis Set: CC-PVTZ
  Basis Set:

  -Total Gradient:
     Atom            X                  Y                   Z
    ------   -----------------  -----------------  -----------------
       1        0.000002064489     0.000007530750     0.000000245971
       2       -0.000064155827     0.000020641765     0.000044841409
       3       -0.000000363643    -0.000050731073     0.000024701506
       4        0.000359187420     0.000829979301     0.000635934343
       5        0.000020758645     0.000009030035    -0.000000857580
       6       -0.000008068251    -0.000003952972    -0.000001253212
       7       -0.000617952364    -0.001615909274    -0.001112611805
       8        0.000000414384     0.000014826613     0.000007543225
       9        0.000003964221     0.000009352321    -0.000028745141
      10        0.000909066719     0.001939706068     0.001019513935
      11       -0.000015875857    -0.000009916609    -0.000001727311
      12        0.000029510077    -0.000002792817     0.000001381457
      13       -0.000618550015    -0.001147764106    -0.000588966793

  **** Optimization is complete! (in 4 steps) ****
    Final optimized geometry and variables:
    Molecular point group: c1

    Geometry (in Angstrom), charge = 0, multiplicity = 1:

    H           -2.492804942936    -0.557820789849     0.916449864733
    O           -2.098418756174     0.281669132192     1.066818496560
    C           -1.150855987799     0.555976066372     0.073017079519
    C            0.106529941289    -0.269154430131     0.261562796200
    H           -1.553221397476     0.384640905958    -0.920364791140
    H           -0.906720794200     1.605772531323     0.150696599907
    O            1.001157132543     0.069392606321    -0.747945202724
    H           -0.139663788413    -1.331299519973     0.221464760243
    H            0.527894937758    -0.067165566495     1.243201728003
    C            2.240574313546    -0.570679629031    -0.715210787928
    H            2.321608119775    -1.271804168701    -1.539415320756
    H            3.027256867401     0.166940771635    -0.808943670918
    H            2.386466049493    -1.121020222673     0.208267319496

  Mulliken Charges: (a.u.)
   Center  Symbol    Alpha    Beta     Spin     Total
       1     H     0.39420  0.39420  0.00000  0.21160
       2     O     4.20211  4.20211  0.00000 -0.40422
       3     C     2.97515  2.97515  0.00000  0.04971
       4     C     2.96494  2.96494  0.00000  0.07013
       5     H     0.46688  0.46688  0.00000  0.06623
       6     H     0.45295  0.45295  0.00000  0.09409
       7     O     4.18024  4.18024  0.00000 -0.36047
       8     H     0.48205  0.48205  0.00000  0.03590
       9     H     0.46913  0.46913  0.00000  0.06173
      10     C     3.02749  3.02749  0.00000 -0.05498
      11     H     0.45979  0.45979  0.00000  0.08042
      12     H     0.45367  0.45367  0.00000  0.09266
      13     H     0.47141  0.47141  0.00000  0.05718

   Total alpha = 21.00000, Total beta = 21.00000, Total charge =  0.00000
