                              Psi4 1.0.54 Driver

  ==> Input File <==

--------------------------------------------------------------------------
set {
	reference rhf
	basis cc-pvtz
}

set_num_threads( 4 )
memory 2 gb

molecule MOL {
0 1

O	 1.481484	 0.360811	 0.996230
C	 0.860843	 0.273204	 -0.013120
C	 -0.623368	 -0.117453	 -0.005652
C	 1.541948	 0.544291	 -1.340008
C	 -0.892588	 -1.253841	 -1.002900
C	 -1.473463	 1.100646	 -0.372896
C	 -0.981836	 -0.579025	 1.418506
H	 -0.609333	 -0.970024	 -2.010649
H	 -1.950451	 -1.487353	 -1.013175
H	 -0.360848	 -2.161259	 -0.746463
H	 -1.232203	 1.461623	 -1.364827
H	 -2.524364	 0.834451	 -0.354500
H	 -1.312381	 1.914833	 0.318657
H	 -2.035706	 -0.826342	 1.468082
H	 -0.425078	 -1.458934	 1.716857
H	 -0.788494	 0.205047	 2.140903
H	 1.274780	 1.538386	 -1.680830
H	 2.610637	 0.502865	 -1.196287
H	 1.245037	 -0.154909	 -2.109550

	symmetry c1
}
set optking {
	frozen_dihedral = ("
		1 2 3 5
	")
}

ee,wfn = optimize('scf', return_wfn=True)
oeprop( wfn, 'DIPOLE', 'QUADRUPOLE', 'MULLIKEN_CHARGES')
f=open( 'psi4out.xyz', 'w' )
f.write( "19  " )
f.write( str(ee) + "\n" )
f.write( MOL.save_string_xyz() )
f.close()
--------------------------------------------------------------------------

    Molecular point group: c1
  Charge       = 0
  Multiplicity = 1
  Basis Set: CC-PVTZ
  Basis Set:
  @DF-RHF Final Energy:  -309.17202712944334
    Total Energy =                       -309.1720271294429381
    Molecular point group: c1
  Basis Set: CC-PVTZ
  Basis Set:
  Basis Set: CC-PVTZ
  Basis Set:
  @DF-RHF Final Energy:  -309.17198633448476
    Total Energy =                       -309.1719863344846431
  Basis Set: CC-PVTZ
  Basis Set:
  Basis Set: CC-PVTZ
  Basis Set:
  @DF-RHF Final Energy:  -309.17212496210965
    Total Energy =                       -309.1721249621098195
  Basis Set: CC-PVTZ
  Basis Set:
  Basis Set: CC-PVTZ
  Basis Set:
  @DF-RHF Final Energy:  -309.17343002783673
    Total Energy =                       -309.1734300278366163
  Basis Set: CC-PVTZ
  Basis Set:
  @DF-RHF Final Energy:  -309.17349709856859
    Total Energy =                       -309.1734970985688733
  @DF-RHF Final Energy:  -309.17357267247530
    Total Energy =                       -309.1735726724753022
  @DF-RHF Final Energy:  -309.17359045043946
    Total Energy =                       -309.1735904504396331
  @DF-RHF Final Energy:  -309.17360710838147
    Total Energy =                       -309.1736071083813044
  @DF-RHF Final Energy:  -309.17362355335871
    Total Energy =                       -309.1736235533587660
  @DF-RHF Final Energy:  -309.17367271254000
    Total Energy =                       -309.1736727125395987
  @DF-RHF Final Energy:  -309.15052157625610
    Total Energy =                       -309.1505215762560397
  @DF-RHF Final Energy:  -309.17017964295513
    Total Energy =                       -309.1701796429549631
  @DF-RHF Final Energy:  -309.16117236278563
    Total Energy =                       -309.1611723627855781
  @DF-RHF Final Energy:  -309.17326943707633
    Total Energy =                       -309.1732694370764420
  @DF-RHF Final Energy:  -309.17379858182392
    Total Energy =                       -309.1737985818236893
  @DF-RHF Final Energy:  -309.17387326294920
    Total Energy =                       -309.1738732629492006
  @DF-RHF Final Energy:  -309.17392367425009
    Total Energy =                       -309.1739236742502612
  @DF-RHF Final Energy:  -309.17404113744061
    Total Energy =                       -309.1740411374404971
  @DF-RHF Final Energy:  -309.17412292779795
    Total Energy =                       -309.1741229277974981
  @DF-RHF Final Energy:  -309.17411466132791
    Total Energy =                       -309.1741146613277351
  @DF-RHF Final Energy:  -309.17412244067935
    Total Energy =                       -309.1741224406795254
  @DF-RHF Final Energy:  -309.17421773833394
    Total Energy =                       -309.1742177383337093
  Basis Set: CC-PVTZ
  Basis Set:
  @DF-RHF Final Energy:  -309.17423614651483
    Total Energy =                       -309.1742361465150566
  Basis Set: CC-PVTZ
  Basis Set:
  Basis Set: CC-PVTZ
  Basis Set:
  @DF-RHF Final Energy:  -309.17424076614367
    Total Energy =                       -309.1742407661436118
  Basis Set: CC-PVTZ
  Basis Set:
  Basis Set: CC-PVTZ
  Basis Set:
  @DF-RHF Final Energy:  -309.17424419544426
    Total Energy =                       -309.1742441954445439
  Basis Set: CC-PVTZ
  Basis Set:
  Charge       = 0
  Multiplicity = 1
  Basis Set: CC-PVTZ
  Basis Set:

    Orbital Energies (a.u.)
    -----------------------

    Doubly Occupied:

       1A    -20.537401     2A    -11.317740     3A    -11.245705
       4A    -11.225070     5A    -11.222557     6A    -11.222316
       7A    -11.206057     8A     -1.398478     9A     -1.110973
      10A     -1.002838    11A     -0.948164    12A     -0.935551
      13A     -0.835975    14A     -0.705406    15A     -0.666713
      16A     -0.633895    17A     -0.621300    18A     -0.600248
      19A     -0.593517    20A     -0.565570    21A     -0.546744
      22A     -0.544714    23A     -0.523834    24A     -0.514944
      25A     -0.501421    26A     -0.472361    27A     -0.469212
      28A     -0.394938

  @DF-RHF Final Energy:  -309.17424452173208

   => Energetics <=

    Nuclear Repulsion Energy =            326.8899266940889561
    One-Electron Energy =               -1067.0010599043694128
    Two-Electron Energy =                 430.9368886885485495
    DFT Exchange-Correlation Energy =       0.0000000000000000
    Empirical Dispersion Energy =           0.0000000000000000
    PCM Polarization Energy =               0.0000000000000000
    EFP Energy =                            0.0000000000000000
    Total Energy =                       -309.1742445217319641
    Molecular point group: c1
  Basis Set: CC-PVTZ
  Basis Set:

  -Total Gradient:
     Atom            X                  Y                   Z
    ------   -----------------  -----------------  -----------------
       1        0.000251215589    -0.000471345760    -0.000089763893
       2       -0.000303773057     0.000560010081     0.000217941100
       3       -0.000055472872     0.000224495978    -0.000318315551
       4       -0.000002458277    -0.000017991672     0.000059259204
       5        0.000128097744    -0.000264819914     0.000249423479
       6        0.000008034851    -0.000023318006     0.000000881362
       7       -0.000015364850    -0.000005937984    -0.000033131558
       8        0.000004348179     0.000026555246    -0.000022533501
       9       -0.000031011316    -0.000010214951    -0.000002489129
      10        0.000024111908    -0.000021547835     0.000004156473
      11       -0.000017421524    -0.000007869626    -0.000006567644
      12       -0.000017100657    -0.000006543383     0.000006258108
      13        0.000013634264     0.000007426563    -0.000005843090
      14       -0.000011444581     0.000003694635    -0.000001448197
      15        0.000009013583    -0.000004383974     0.000001505527
      16        0.000013338811     0.000004804609     0.000000726887
      17       -0.000045689784     0.000014979872    -0.000052297063
      18        0.000031091999     0.000023858646     0.000018179006
      19        0.000016849990    -0.000031852525    -0.000025941523

  **** Optimization is complete! (in 26 steps) ****
    Final optimized geometry and variables:
    Molecular point group: c1

    Geometry (in Angstrom), charge = 0, multiplicity = 1:

    O            1.371139220191     0.449250952078     1.164211113048
    C            0.803511213604     0.393004641691     0.121993378302
    C           -0.561754662398    -0.295058763927    -0.009605350499
    C            1.443538746442     0.997305600827    -1.112859807536
    C           -0.542796243425    -1.287137094947    -1.182559217668
    C           -1.631249082569     0.783920168068    -0.254559174908
    C           -0.883490618079    -1.040849309063     1.286986281801
    H           -0.375190835467    -0.796310822055    -2.133031779995
    H           -1.495294796086    -1.799939775663    -1.243049119331
    H            0.227911004953    -2.038550563678    -1.049827699759
    H           -1.480074099582     1.309582766806    -1.188986936636
    H           -2.611305105949     0.323339582627    -0.293899394279
    H           -1.639015582334     1.513491816655     0.546916847906
    H           -1.849926512549    -1.525003989419     1.202009989819
    H           -0.140235319722    -1.798816829516     1.497917880285
    H           -0.909902267616    -0.366941928839     2.131484740356
    H            0.727785392831     1.471816691238    -1.769168964397
    H            2.190389954675     1.711744709401    -0.801939197922
    H            1.932918020995     0.209610146071    -1.675258170235

  Mulliken Charges: (a.u.)
   Center  Symbol    Alpha    Beta     Spin     Total
       1     O     4.17485  4.17485  0.00000 -0.34969
       2     C     2.85390  2.85390  0.00000  0.29220
       3     C     3.00914  3.00914  0.00000 -0.01828
       4     C     3.16268  3.16268  0.00000 -0.32536
       5     C     3.16350  3.16350  0.00000 -0.32701
       6     C     3.15991  3.15991  0.00000 -0.31981
       7     C     3.14973  3.14973  0.00000 -0.29946
       8     H     0.44592  0.44592  0.00000  0.10816
       9     H     0.44300  0.44300  0.00000  0.11399
      10     H     0.44273  0.44273  0.00000  0.11453
      11     H     0.44582  0.44582  0.00000  0.10836
      12     H     0.44487  0.44487  0.00000  0.11026
      13     H     0.44197  0.44197  0.00000  0.11607
      14     H     0.45209  0.45209  0.00000  0.09583
      15     H     0.44541  0.44541  0.00000  0.10918
      16     H     0.44071  0.44071  0.00000  0.11857
      17     H     0.44683  0.44683  0.00000  0.10633
      18     H     0.43181  0.43181  0.00000  0.13638
      19     H     0.44513  0.44513  0.00000  0.10974

   Total alpha = 28.00000, Total beta = 28.00000, Total charge =  0.00000

*** Psi4 exiting successfully. Buy a developer a beer!
