  ==> Input File <==

--------------------------------------------------------------------------
set {
	reference rhf
	basis 6-31G*
}

set_num_threads( 4 )
memory 2 gb

molecule MOL {
0 1

H	 2.332609	 0.878551	 -1.051851
C	 2.357710	 0.000000	 -0.417167
C	 1.175432	 0.000000	 0.532082
H	 3.291263	 0.000000	 0.136880
H	 2.332609	 -0.878551	 -1.051851
O	 0.000000	 0.000000	 -0.221444
H	 1.206604	 0.877321	 1.177902
H	 1.206604	 -0.877321	 1.177902
C	 -1.175432	 0.000000	 0.532082
C	 -1.205873	 1.256842	 1.379593
H	 -1.214799	 -0.886264	 1.165117
H	 -2.042922	 -0.035239	 -0.126679
H	 -0.348761	 1.286152	 2.042771
H	 -2.109456	 1.289545	 1.980391
H	 -1.178045	 2.138369	 0.749163

	symmetry c1
}
set optking {
	frozen_dihedral = ("
		11 9 6 3
	")
}

ee = optimize('scf')
oeprop('DIPOLE', 'QUADRUPOLE', 'MULLIKEN_CHARGES')
f=open( 'psi4out.xyz', 'w' )
f.write( "15  " )
f.write( str(ee) + "\n" )
f.write( MOL.save_string_xyz() )
f.close()
--------------------------------------------------------------------------

    Molecular point group: c1
  Charge       = 0
  Multiplicity = 1
  Basis Set: 6-31G*
  Basis Set:
  @DF-RHF Final Energy:  -232.13548588660686
    Total Energy =                       -232.1354858866068298
    Molecular point group: c1
  Basis Set: 6-31G*
  Basis Set:
  Basis Set: 6-31G*
  Basis Set:
  @DF-RHF Final Energy:  -232.13671871458087
    Total Energy =                       -232.1367187145808657
  Basis Set: 6-31G*
  Basis Set:
  Basis Set: 6-31G*
  Basis Set:
  @DF-RHF Final Energy:  -232.14076086358580
    Total Energy =                       -232.1407608635857969
  Basis Set: 6-31G*
  Basis Set:
  Basis Set: 6-31G*
  Basis Set:
  @DF-RHF Final Energy:  -232.14157945717693
    Total Energy =                       -232.1415794571769311
  Basis Set: 6-31G*
  Basis Set:
  Basis Set: 6-31G*
  Basis Set:
  @DF-RHF Final Energy:  -232.14170891392965
    Total Energy =                       -232.1417089139295058
  Basis Set: 6-31G*
  Basis Set:
  Basis Set: 6-31G*
  Basis Set:
  @DF-RHF Final Energy:  -232.14172145394471
    Total Energy =                       -232.1417214539448537
  Basis Set: 6-31G*
  Basis Set:
  Charge       = 0
  Multiplicity = 1
  Basis Set: 6-31G*
  Basis Set:

    Orbital Energies (a.u.)
    -----------------------

    Doubly Occupied:

       1A    -20.550003     2A    -11.268357     3A    -11.267238
       4A    -11.212520     5A    -11.208035     6A     -1.374550
       7A     -1.040202     8A     -0.987589     9A     -0.866102
      10A     -0.807848    11A     -0.673614    12A     -0.652835
      13A     -0.635234    14A     -0.583086    15A     -0.547144
      16A     -0.541663    17A     -0.524626    18A     -0.503887
      19A     -0.487687    20A     -0.454032    21A     -0.408591

  @DF-RHF Final Energy:  -232.14172210218339

   => Energetics <=

    Nuclear Repulsion Energy =            192.9142240638640260
    One-Electron Energy =                -696.9222104761963692
    Two-Electron Energy =                 271.8662643101490630
    DFT Exchange-Correlation Energy =       0.0000000000000000
    Empirical Dispersion Energy =           0.0000000000000000
    PCM Polarization Energy =               0.0000000000000000
    EFP Energy =                            0.0000000000000000
    Total Energy =                       -232.1417221021832802
    Molecular point group: c1
  Basis Set: 6-31G*
  Basis Set:

  -Total Gradient:
     Atom            X                  Y                   Z
    ------   -----------------  -----------------  -----------------
       1       -0.000002428015    -0.000000926689     0.000002384545
       2       -0.000024722546    -0.000007038286    -0.000013583289
       3       -0.000044779925     0.001392138678     0.000128975048
       4       -0.000008150069     0.000000744015     0.000008890343
       5        0.000003436636    -0.000002245050    -0.000005339566
       6       -0.000294345595    -0.002254285164    -0.000497532400
       7       -0.000005949624     0.000008310068     0.000006559696
       8        0.000007873830    -0.000001383382    -0.000001525600
       9        0.001019378891     0.001625736653     0.001688987987
      10        0.000003481482     0.000019810376     0.000033843030
      11       -0.000744095886    -0.000775298443    -0.001325417941
      12        0.000077841612    -0.000026963409    -0.000051048723
      13        0.000012276140     0.000013394932     0.000024633745
      14        0.000000757019     0.000006858632     0.000000206128
      15       -0.000000573951     0.000001147069    -0.000000033000

  **** Optimization is complete! (in 7 steps) ****
    Final optimized geometry and variables:
    Molecular point group: c1

    Geometry (in Angstrom), charge = 0, multiplicity = 1:

    H            2.159093156922     0.444616232512    -1.551121183352
    C            2.143679094882    -0.380792672858    -0.848270932653
    C            1.006910911591    -0.208429899127     0.140805034679
    H            3.097963285819    -0.411693310732    -0.331244201320
    H            2.022365683210    -1.301169824337    -1.408108547176
    O           -0.192381546815    -0.162227248546    -0.576268190826
    H            1.149139142032     0.703114446514     0.715803495127
    H            0.989676084550    -1.039191082191     0.846525173345
    C           -1.371119409066    -0.225332054138     0.173881301377
    C           -1.595154589362     0.966069790568     1.096938768558
    H           -1.402209517970    -1.157716890246     0.737470418242
    H           -2.169862623511    -0.269438239978    -0.555950194645
    H           -0.881137366110     0.997378420531     1.912687922005
    H           -2.588424956970     0.910884811908     1.532331999807
    H           -1.517987263641     1.893814489832     0.539637880109

  Mulliken Charges: (a.u.)
   Center  Symbol    Alpha    Beta     Spin     Total
       1     H     0.41324  0.41324  0.00000  0.17351
       2     C     3.24312  3.24312  0.00000 -0.48624
       3     C     2.98994  2.98994  0.00000  0.02012
       4     H     0.42314  0.42314  0.00000  0.15371
       5     H     0.41405  0.41405  0.00000  0.17190
       6     O     4.30992  4.30992  0.00000 -0.61984
       7     H     0.42955  0.42955  0.00000  0.14090
       8     H     0.43367  0.43367  0.00000  0.13266
       9     C     2.98929  2.98929  0.00000  0.02143
      10     C     3.25681  3.25681  0.00000 -0.51361
      11     H     0.43145  0.43145  0.00000  0.13710
      12     H     0.41500  0.41500  0.00000  0.17001
      13     H     0.41869  0.41869  0.00000  0.16261
      14     H     0.41925  0.41925  0.00000  0.16151
      15     H     0.41289  0.41289  0.00000  0.17423

   Total alpha = 21.00000, Total beta = 21.00000, Total charge = -0.00000
