                              Psi4 1.0.54 Driver

  ==> Input File <==

--------------------------------------------------------------------------
set {
	reference rhf
	basis cc-pvtz
}

set_num_threads( 4 )
memory 2 gb

molecule MOL {
0 1

H	 3.721907	 -0.933076	 -0.066039
O	 2.824271	 -1.154299	 0.131461
C	 2.076458	 -0.067370	 -0.038225
C	 0.626018	 -0.337582	 0.258241
O	 2.538288	 0.965419	 -0.381593
C	 -0.267326	 0.883135	 0.076490
H	 0.325620	 -1.161483	 -0.378003
H	 0.574537	 -0.713685	 1.275261
C	 -1.726822	 0.642622	 0.463839
H	 -0.210803	 1.217591	 -0.953497
H	 0.129920	 1.693110	 0.675679
C	 -2.311443	 -0.687977	 -0.007079
H	 -2.322741	 1.448530	 0.045932
H	 -1.832639	 0.719372	 1.543820
C	 -3.795708	 -0.826294	 0.315882
H	 -2.166317	 -0.781135	 -1.080063
H	 -1.774741	 -1.514838	 0.447023
H	 -4.185823	 -1.776470	 -0.030036
H	 -4.373685	 -0.039197	 -0.156472
H	 -3.970403	 -0.766744	 1.385036

	symmetry c1
}
set optking {
	frozen_dihedral = ("
		12 9 6 10
	")
}

ee,wfn = optimize('scf', return_wfn=True)
oeprop( wfn, 'DIPOLE', 'QUADRUPOLE', 'MULLIKEN_CHARGES')
f=open( 'psi4out.xyz', 'w' )
f.write( "20  " )
f.write( str(ee) + "\n" )
f.write( MOL.save_string_xyz() )
f.close()
--------------------------------------------------------------------------

    Molecular point group: c1
  Charge       = 0
  Multiplicity = 1
  Basis Set: CC-PVTZ
  Basis Set:
  @DF-RHF Final Energy:  -384.09262983075257
    Total Energy =                       -384.0926298307522302
    Molecular point group: c1
  Basis Set: CC-PVTZ
  Basis Set:
  Basis Set: CC-PVTZ
  Basis Set:
  @DF-RHF Final Energy:  -384.09187576801997
    Total Energy =                       -384.0918757680198041
  Basis Set: CC-PVTZ
  Basis Set:
  Basis Set: CC-PVTZ
  Basis Set:
  @DF-RHF Final Energy:  -384.09300592963882
    Total Energy =                       -384.0930059296392756
  Basis Set: CC-PVTZ
  Basis Set:
  Basis Set: CC-PVTZ
  Basis Set:
  @DF-RHF Final Energy:  -384.09242995546686
    Total Energy =                       -384.0924299554669687
  Basis Set: CC-PVTZ
  Basis Set:
  Basis Set: CC-PVTZ
  Basis Set:
  @DF-RHF Final Energy:  -384.09309535363775
    Total Energy =                       -384.0930953536379207
  Basis Set: CC-PVTZ
  Basis Set:
  Basis Set: CC-PVTZ
  Basis Set:
  @DF-RHF Final Energy:  -384.09310270928586
    Total Energy =                       -384.0931027092859154
  Basis Set: CC-PVTZ
  Basis Set:
  Basis Set: CC-PVTZ
  Basis Set:
  @DF-RHF Final Energy:  -384.09311170038376
    Total Energy =                       -384.0931117003841564
  Basis Set: CC-PVTZ
  Basis Set:
  Charge       = 0
  Multiplicity = 1
  Basis Set: CC-PVTZ
  Basis Set:

    Orbital Energies (a.u.)
    -----------------------

    Doubly Occupied:

       1A    -20.603874     2A    -20.540558     3A    -11.373498
       4A    -11.239061     5A    -11.220775     6A    -11.219024
       7A    -11.218313     8A    -11.210680     9A     -1.477516
      10A     -1.369029    11A     -1.097116    12A     -1.041928
      13A     -0.962738    14A     -0.870971    15A     -0.821496
      16A     -0.772805    17A     -0.703775    18A     -0.692710
      19A     -0.668480    20A     -0.638605    21A     -0.600272
      22A     -0.596925    23A     -0.580111    24A     -0.555903
      25A     -0.539888    26A     -0.517692    27A     -0.496588
      28A     -0.484490    29A     -0.471578    30A     -0.465283
      31A     -0.456724    32A     -0.446858

  @DF-RHF Final Energy:  -384.09311176497516

   => Energetics <=

    Nuclear Repulsion Energy =            377.3471147208732077
    One-Electron Energy =               -1270.9699238882681129
    Two-Electron Energy =                 509.5296974024201404
    DFT Exchange-Correlation Energy =       0.0000000000000000
    Empirical Dispersion Energy =           0.0000000000000000
    PCM Polarization Energy =               0.0000000000000000
    EFP Energy =                            0.0000000000000000
    Total Energy =                       -384.0931117649748217
    Molecular point group: c1
  Basis Set: CC-PVTZ
  Basis Set:

  -Total Gradient:
     Atom            X                  Y                   Z
    ------   -----------------  -----------------  -----------------
       1       -0.000001476698     0.000000548464     0.000000515324
       2       -0.000000345835     0.000014910562    -0.000001933131
       3       -0.000002174714     0.000008518769    -0.000009316106
       4        0.000002666906    -0.000012860216     0.000008144888
       5        0.000005474372    -0.000020776332     0.000004595803
       6        0.000427019312    -0.006231043798    -0.001208791344
       7       -0.000001948351    -0.000004458463     0.000001637542
       8        0.000002410476    -0.000002550994     0.000000008468
       9       -0.001420110467     0.003854246600    -0.003553085540
      10       -0.000006994089     0.004339495896     0.001974403892
      11       -0.000007651442     0.000000404355    -0.000006692827
      12        0.000993861215    -0.001952536244     0.002803087121
      13       -0.000001197707     0.000005285620     0.000005426471
      14        0.000012556678    -0.000004308770    -0.000009775820
      15       -0.000005738250     0.000005120759    -0.000007086479
      16       -0.000004051925    -0.000001584262     0.000011534770
      17       -0.000007342508     0.000000299603    -0.000007878318
      18        0.000005131968     0.000004432208     0.000000775454
      19        0.000003081197    -0.000002712248     0.000003618151
      20        0.000006829876    -0.000000431510    -0.000009188320

  **** Optimization is complete! (in 8 steps) ****
    Final optimized geometry and variables:
    Molecular point group: c1

    Geometry (in Angstrom), charge = 0, multiplicity = 1:

    H            3.665410744682    -1.001386439800    -0.250191223762
    O            2.757969705627    -1.206004794575    -0.081711500156
    C            2.054136708266    -0.078952063668    -0.145087313006
    C            0.591302763405    -0.323022276297     0.112342093537
    O            2.558557940235     0.964342960564    -0.379282717256
    C           -0.249749356287     0.943324658313     0.046425580981
    H            0.268180390788    -1.067252237941    -0.605355824049
    H            0.515923249458    -0.797187716773     1.086064279181
    C           -1.720747365354     0.765789415083     0.440462345181
    H           -0.179673969209     1.390656033140    -0.938804512031
    H            0.191023064862     1.678874939900     0.709170574884
    C           -2.433416525315    -0.448130619727    -0.154032875198
    H           -2.255785664494     1.668517472470     0.163855432966
    H           -1.788214111972     0.697955653672     1.524112375262
    C           -3.919420393227    -0.478404215356     0.188910879728
    H           -2.315710592910    -0.449750880973    -1.235171137676
    H           -1.970878989516    -1.360897298036     0.205706379193
    H           -4.401119043000    -1.354707519135    -0.229119941928
    H           -4.428826769556     0.396840628420    -0.199647316732
    H           -4.071767009378    -0.498111280334     1.263007848957

  Mulliken Charges: (a.u.)
   Center  Symbol    Alpha    Beta     Spin     Total
       1     H     0.38230  0.38230  0.00000  0.23539
       2     O     4.15988  4.15988  0.00000 -0.31975
       3     C     2.80658  2.80658  0.00000  0.38683
       4     C     3.11416  3.11416  0.00000 -0.22832
       5     O     4.19064  4.19064  0.00000 -0.38127
       6     C     3.09200  3.09200  0.00000 -0.18401
       7     H     0.43455  0.43455  0.00000  0.13091
       8     H     0.43662  0.43662  0.00000  0.12675
       9     C     3.09646  3.09646  0.00000 -0.19292
      10     H     0.44451  0.44451  0.00000  0.11098
      11     H     0.44120  0.44120  0.00000  0.11760
      12     C     3.09093  3.09093  0.00000 -0.18186
      13     H     0.44669  0.44669  0.00000  0.10661
      14     H     0.45296  0.45296  0.00000  0.09407
      15     C     3.15042  3.15042  0.00000 -0.30084
      16     H     0.45241  0.45241  0.00000  0.09517
      17     H     0.45177  0.45177  0.00000  0.09647
      18     H     0.44770  0.44770  0.00000  0.10460
      19     H     0.45340  0.45340  0.00000  0.09321
      20     H     0.45481  0.45481  0.00000  0.09038

   Total alpha = 32.00000, Total beta = 32.00000, Total charge =  0.00000

*** Psi4 exiting successfully. Buy a developer a beer!
