                              Psi4 1.0.54 Driver

  ==> Input File <==

--------------------------------------------------------------------------
set {
	reference rhf
	basis cc-pvtz
}

set_num_threads( 4 )
memory 2 gb

molecule MOL {
0 1

H	 2.342730	 0.877684	 -1.045694
C	 2.360424	 0.000000	 -0.411793
C	 1.173749	 0.000000	 0.526870
H	 3.286567	 0.000000	 0.151574
H	 2.342730	 -0.877684	 -1.045694
O	 0.000000	 0.000000	 -0.223739
H	 1.203779	 0.876757	 1.172538
H	 1.203779	 -0.876757	 1.172538
C	 -1.173749	 0.000000	 0.526870
C	 -1.987305	 1.225252	 0.171664
H	 -0.936785	 0.000000	 1.590044
H	 -1.746167	 -0.904340	 0.324390
H	 -1.427647	 2.127271	 0.385247
H	 -2.907096	 1.246110	 0.744964
H	 -2.237885	 1.221975	 -0.881745

	symmetry c1
}
set optking {
	frozen_dihedral = ("
		11 9 6 3
	")
}

ee,wfn = optimize('scf', return_wfn=True)
oeprop( wfn, 'DIPOLE', 'QUADRUPOLE', 'MULLIKEN_CHARGES')
f=open( 'psi4out.xyz', 'w' )
f.write( "15  " )
f.write( str(ee) + "\n" )
f.write( MOL.save_string_xyz() )
f.close()
--------------------------------------------------------------------------

    Molecular point group: c1
  Charge       = 0
  Multiplicity = 1
  Basis Set: CC-PVTZ
  Basis Set:
  @DF-RHF Final Energy:  -232.22937703185409
    Total Energy =                       -232.2293770318543125
    Molecular point group: c1
  Basis Set: CC-PVTZ
  Basis Set:
  Basis Set: CC-PVTZ
  Basis Set:
  @DF-RHF Final Energy:  -232.22974184500330
    Total Energy =                       -232.2297418450033888
  Basis Set: CC-PVTZ
  Basis Set:
  Basis Set: CC-PVTZ
  Basis Set:
  @DF-RHF Final Energy:  -232.22984576962369
    Total Energy =                       -232.2298457696236369
  Basis Set: CC-PVTZ
  Basis Set:
  Charge       = 0
  Multiplicity = 1
  Basis Set: CC-PVTZ
  Basis Set:

    Orbital Energies (a.u.)
    -----------------------

    Doubly Occupied:

       1A    -20.542042     2A    -11.267022     3A    -11.265795
       4A    -11.207326     5A    -11.206803     6A     -1.376512
       7A     -1.043524     8A     -0.984278     9A     -0.852792
      10A     -0.822462    11A     -0.672686    12A     -0.661891
      13A     -0.630062    14A     -0.578124    15A     -0.551989
      16A     -0.538415    17A     -0.522862    18A     -0.500274
      19A     -0.486404    20A     -0.463941    21A     -0.407261

  @DF-RHF Final Energy:  -232.22984666658579

   => Energetics <=

    Nuclear Repulsion Energy =            191.5974989908713155
    One-Electron Energy =                -694.4897617116885158
    Two-Electron Energy =                 270.6624160542311870
    DFT Exchange-Correlation Energy =       0.0000000000000000
    Empirical Dispersion Energy =           0.0000000000000000
    PCM Polarization Energy =               0.0000000000000000
    EFP Energy =                            0.0000000000000000
    Total Energy =                       -232.2298466665860133
    Molecular point group: c1
  Basis Set: CC-PVTZ
  Basis Set:

  -Total Gradient:
     Atom            X                  Y                   Z
    ------   -----------------  -----------------  -----------------
       1       -0.000001214362    -0.000004781436     0.000002469468
       2        0.000006514064     0.000012708937     0.000012068746
       3        0.000078329721     0.000435560628    -0.000010538195
       4        0.000029611700     0.000001394810    -0.000001999803
       5       -0.000007859242     0.000010356635     0.000015025560
       6       -0.000098328342    -0.000842763613     0.000022560009
       7       -0.000023906112    -0.000007734159    -0.000032132875
       8        0.000000890136     0.000010335653     0.000007107123
       9        0.000117947073     0.001021590847    -0.000063717935
      10       -0.000046877325    -0.000027890026     0.000014487163
      11       -0.000040540871    -0.000594817582     0.000015723236
      12       -0.000036315005     0.000021441012     0.000008697949
      13        0.000022187243    -0.000031564466     0.000006541324
      14       -0.000010260649     0.000003031600     0.000000583966
      15        0.000009821970    -0.000006868839     0.000003124262

  **** Optimization is complete! (in 4 steps) ****
    Final optimized geometry and variables:
    Molecular point group: c1

    Geometry (in Angstrom), charge = 0, multiplicity = 1:

    H            2.267079897362     0.638593196337    -1.156383400683
    C            2.288000413118    -0.257775016442    -0.549164116719
    C            1.117317425559    -0.276767618254     0.408891794370
    H            3.223446554269    -0.282465949216    -0.001500562899
    H            2.251825075079    -1.115777942649    -1.208771348730
    O           -0.067449253527    -0.245591643408    -0.326263438984
    H            1.167123123737     0.580551504743     1.078337974864
    H            1.154181788916    -1.172510143002     1.026854591473
    C           -1.257628612056    -0.228147074006     0.410177407858
    C           -2.085030104292     0.992111857960     0.056103852910
    H           -1.046566332381    -0.242498512022     1.475583793868
    H           -1.814324071425    -1.132781749997     0.185407215527
    H           -1.555100480240     1.902997542501     0.309060465019
    H           -3.027254706578     0.982042625237     0.593660650724
    H           -2.296013683582     1.007876802953    -1.005944418035

  Mulliken Charges: (a.u.)
   Center  Symbol    Alpha    Beta     Spin     Total
       1     H     0.45181  0.45181  0.00000  0.09638
       2     C     3.13754  3.13754  0.00000 -0.27508
       3     C     2.96460  2.96460  0.00000  0.07081
       4     H     0.45931  0.45931  0.00000  0.08139
       5     H     0.45142  0.45142  0.00000  0.09717
       6     O     4.18535  4.18535  0.00000 -0.37070
       7     H     0.47458  0.47458  0.00000  0.05084
       8     H     0.47152  0.47152  0.00000  0.05696
       9     C     2.97549  2.97549  0.00000  0.04901
      10     C     3.13409  3.13409  0.00000 -0.26817
      11     H     0.47144  0.47144  0.00000  0.05711
      12     H     0.45804  0.45804  0.00000  0.08391
      13     H     0.45587  0.45587  0.00000  0.08827
      14     H     0.45812  0.45812  0.00000  0.08376
      15     H     0.45082  0.45082  0.00000  0.09835

   Total alpha = 21.00000, Total beta = 21.00000, Total charge = -0.00000

*** Psi4 exiting successfully. Buy a developer a beer!
