  ==> Input File <==

--------------------------------------------------------------------------
set {
	reference rhf
	basis 6-31G*
}

set_num_threads( 4 )
memory 2 gb

molecule MOL {
0 1

H	 -3.407059	 -1.043082	 0.000000
O	 -3.119761	 -0.140267	 0.000000
C	 -1.777559	 -0.059267	 0.000000
C	 -1.107319	 1.143210	 0.204525
C	 -1.067087	 -1.233740	 -0.214262
H	 -1.665549	 2.048942	 0.369869
C	 0.271511	 1.166328	 0.193948
H	 -1.606765	 -2.148566	 -0.369545
C	 0.311620	 -1.194481	 -0.221996
H	 0.801607	 2.086998	 0.350362
C	 0.997427	 -0.001089	 -0.019236
H	 0.862669	 -2.104345	 -0.387991
C	 2.473295	 0.025398	 -0.030250
O	 3.136305	 1.002124	 0.134618
H	 2.951281	 -0.944047	 -0.205956

	symmetry c1
}
set optking {
	frozen_dihedral = ("
		5 3 2 1
	")
}

ee = optimize('scf')
oeprop('DIPOLE', 'QUADRUPOLE', 'MULLIKEN_CHARGES')
f=open( 'psi4out.xyz', 'w' )
f.write( "15  " )
f.write( str(ee) + "\n" )
f.write( MOL.save_string_xyz() )
f.close()
--------------------------------------------------------------------------

    Molecular point group: c1
  Charge       = 0
  Multiplicity = 1
  Basis Set: 6-31G*
  Basis Set:
  @DF-RHF Final Energy:  -418.28747460416923
    Total Energy =                       -418.2874746041688923
    Molecular point group: c1
  Basis Set: 6-31G*
  Basis Set:
  Basis Set: 6-31G*
  Basis Set:
  @DF-RHF Final Energy:  -418.28947918363400
    Total Energy =                       -418.2894791836345121
  Basis Set: 6-31G*
  Basis Set:
  Basis Set: 6-31G*
  Basis Set:
  @DF-RHF Final Energy:  -418.28965996283216
    Total Energy =                       -418.2896599628327294
  Basis Set: 6-31G*
  Basis Set:
  Basis Set: 6-31G*
  Basis Set:
  @DF-RHF Final Energy:  -418.28949175916074
    Total Energy =                       -418.2894917591604553
  Basis Set: 6-31G*
  Basis Set:
  Basis Set: 6-31G*
  Basis Set:
  @DF-RHF Final Energy:  -418.28968115697825
    Total Energy =                       -418.2896811569777356
  Basis Set: 6-31G*
  Basis Set:
  Basis Set: 6-31G*
  Basis Set:
  @DF-RHF Final Energy:  -418.28968539406918
    Total Energy =                       -418.2896853940696928
  Basis Set: 6-31G*
  Basis Set:
  Charge       = 0
  Multiplicity = 1
  Basis Set: 6-31G*
  Basis Set:

    Orbital Energies (a.u.)
    -----------------------

    Doubly Occupied:

       1A    -20.610884     2A    -20.555763     3A    -11.327917
       4A    -11.323842     5A    -11.263440     6A    -11.253677
       7A    -11.245245     8A    -11.238957     9A    -11.237786
      10A     -1.431858    11A     -1.397004    12A     -1.170626
      13A     -1.042988    14A     -1.037012    15A     -0.893652
      16A     -0.858418    17A     -0.802722    18A     -0.756687
      19A     -0.695615    20A     -0.685526    21A     -0.639448
      22A     -0.624355    23A     -0.610796    24A     -0.607943
      25A     -0.580221    26A     -0.557132    27A     -0.549205
      28A     -0.506522    29A     -0.483758    30A     -0.418388
      31A     -0.357325    32A     -0.327280

  @DF-RHF Final Energy:  -418.28968562712930

   => Energetics <=

    Nuclear Repulsion Energy =            401.3342414026208189
    One-Electron Energy =               -1365.0638671924327809
    Two-Electron Energy =                 545.4399401626828876
    DFT Exchange-Correlation Energy =       0.0000000000000000
    Empirical Dispersion Energy =           0.0000000000000000
    PCM Polarization Energy =               0.0000000000000000
    EFP Energy =                            0.0000000000000000
    Total Energy =                       -418.2896856271290744
    Molecular point group: c1
  Basis Set: 6-31G*
  Basis Set:

  -Total Gradient:
     Atom            X                  Y                   Z
    ------   -----------------  -----------------  -----------------
       1       -0.000023817104     0.000002776767     0.001227164945
       2       -0.000077769528     0.000061724906    -0.002093592396
       3        0.000002596489    -0.000191632162     0.001878460742
       4        0.000025062348    -0.000015975363    -0.000040959371
       5        0.000076564317     0.000120701908    -0.000948205627
       6        0.000015341662     0.000000817847     0.000001470640
       7        0.000028968608    -0.000015237854    -0.000035943395
       8       -0.000012515613    -0.000003750075    -0.000006538527
       9       -0.000045327261    -0.000043943457    -0.000028879091
      10        0.000003966013     0.000002648743     0.000010561259
      11       -0.000006377617     0.000042929177     0.000020819379
      12        0.000001234497     0.000008254514     0.000005022805
      13       -0.000013678897     0.000014351282     0.000017644483
      14        0.000033282006     0.000006488017    -0.000004749275
      15       -0.000007529925     0.000009845748    -0.000002276569

  **** Optimization is complete! (in 7 steps) ****
    Final optimized geometry and variables:
    Molecular point group: c1

    Geometry (in Angstrom), charge = 0, multiplicity = 1:

    H           -3.471461441476    -1.027391207421    -0.004401600354
    O           -3.114981754723    -0.149684446162     0.002772824435
    C           -1.769980405655    -0.173126950063    -0.003828855929
    C           -1.111367826797     1.039316846026     0.196950809567
    C           -1.049015442081    -1.337415386896    -0.222426633236
    H           -1.695833036395     1.925043968877     0.360101843404
    C            0.262357292222     1.074240093791     0.183564904159
    H           -1.561897439403    -2.269511091304    -0.386313553013
    C            0.334435580856    -1.286905330253    -0.229378505488
    H            0.785081022786     1.999404224716     0.338338268707
    C            1.003876951187    -0.090319631653    -0.028412205519
    H            0.892631165491    -2.192026425079    -0.396957520786
    C            2.479321510252    -0.050889595443    -0.040011478124
    O            3.134149463707     0.931318557554     0.124121800374
    H            2.965683363968    -1.016296230413    -0.215547637775

  Mulliken Charges: (a.u.)
   Center  Symbol    Alpha    Beta     Spin     Total
       1     H     0.26889  0.26889  0.00000  0.46222
       2     O     4.37280  4.37280  0.00000 -0.74559
       3     C     2.78566  2.78566  0.00000  0.42868
       4     C     3.12644  3.12644  0.00000 -0.25288
       5     C     3.14860  3.14860  0.00000 -0.29719
       6     H     0.38548  0.38548  0.00000  0.22905
       7     C     3.07904  3.07904  0.00000 -0.15808
       8     H     0.39870  0.39870  0.00000  0.20260
       9     C     3.09194  3.09194  0.00000 -0.18387
      10     H     0.37469  0.37469  0.00000  0.25063
      11     C     3.06769  3.06769  0.00000 -0.13538
      12     H     0.38986  0.38986  0.00000  0.22027
      13     C     2.83063  2.83063  0.00000  0.33873
      14     O     4.25411  4.25411  0.00000 -0.50822
      15     H     0.42548  0.42548  0.00000  0.14903

   Total alpha = 32.00000, Total beta = 32.00000, Total charge =  0.00000
