  ==> Input File <==

--------------------------------------------------------------------------
set {
	reference rhf
	basis 6-31G*
}

set_num_threads( 1 )
memory 2 gb

molecule MOL {
0 1

O	 3.225979	 0.970355	 -0.599647
C	 2.701189	 0.057885	 -0.047330
C	 1.245376	 -0.013843	 0.345420
O	 3.347903	 -1.046386	 0.304773
C	 0.455112	 1.231400	 -0.050772
H	 0.838542	 -0.913825	 -0.103701
H	 1.208210	 -0.175333	 1.419774
C	 -0.998893	 1.219485	 0.433193
H	 0.482531	 1.345121	 -1.130325
H	 0.957290	 2.103070	 0.354729
C	 -1.883438	 0.145884	 -0.207175
H	 -1.431207	 2.195402	 0.224832
H	 -1.019646	 1.105716	 1.516076
C	 -2.631746	 -0.701283	 0.824010
H	 -2.603087	 0.623975	 -0.870013
H	 -1.282458	 -0.511184	 -0.831720
C	 -3.514803	 -1.780851	 0.195620
H	 -3.246469	 -0.051997	 1.445121
H	 -1.913163	 -1.171092	 1.493798
C	 -4.261530	 -2.619884	 1.232019
H	 -4.232803	 -1.313193	 -0.474762
H	 -2.901413	 -2.433467	 -0.422138
H	 -4.878445	 -3.375905	 0.756146
H	 -4.911045	 -2.000173	 1.843807
H	 -3.569333	 -3.128537	 1.897157
C	 4.728119	 -1.109107	 -0.004993
H	 4.882018	 -1.033965	 -1.071845
H	 5.068212	 -2.067527	 0.355250
H	 5.265056	 -0.311663	 0.488280

	symmetry c1
}
set optking {
	frozen_dihedral = ("
		21 17 14 11,
		17 14 11 15,
		6 3 5 9,
		11 8 5 9,
		2 4 26 27,
		1 2 4 26,
		6 3 2 1
	")
}

ee = energy('scf')
oeprop('DIPOLE', 'QUADRUPOLE', 'MULLIKEN_CHARGES')
f=open( 'psi4out.xyz', 'w' )
f.write( "29  " )
f.write( str(ee) + "\n" )
f.write( MOL.save_string_xyz() )
f.close()
--------------------------------------------------------------------------

    Molecular point group: c1

    Geometry (in Angstrom), charge = 0, multiplicity = 1:

       Center              X                  Y                   Z               Mass
    ------------   -----------------  -----------------  -----------------  -----------------
           O          2.961450127341     1.319821822878    -0.820146928947    15.994914619560
           C          2.436660127341     0.407351822878    -0.267829928947    12.000000000000
           C          0.980847127341     0.335623822878     0.124920071053    12.000000000000
           O          3.083374127341    -0.696919177122     0.084273071053    15.994914619560
           C          0.190583127341     1.580866822878    -0.271271928947    12.000000000000
           H          0.574013127341    -0.564358177122    -0.324200928947     1.007825032070
           H          0.943681127341     0.174133822878     1.199274071053     1.007825032070
           C         -1.263421872659     1.568951822878     0.212693071053    12.000000000000
           H          0.218002127341     1.694587822878    -1.350824928947     1.007825032070
           H          0.692761127341     2.452536822878     0.134229071053     1.007825032070
           C         -2.147966872659     0.495350822878    -0.427674928947    12.000000000000
           H         -1.695735872659     2.544868822878     0.004332071053     1.007825032070
           H         -1.284174872659     1.455182822878     1.295576071053     1.007825032070
           C         -2.896274872659    -0.351816177122     0.603510071053    12.000000000000
           H         -2.867615872659     0.973441822878    -1.090512928947     1.007825032070
           H         -1.546986872659    -0.161717177122    -1.052219928947     1.007825032070
           C         -3.779331872659    -1.431384177122    -0.024879928947    12.000000000000
           H         -3.510997872659     0.297469822878     1.224621071053     1.007825032070
           H         -2.177691872659    -0.821625177122     1.273298071053     1.007825032070
           C         -4.526058872659    -2.270417177122     1.011519071053    12.000000000000
           H         -4.497331872659    -0.963726177122    -0.695261928947     1.007825032070
           H         -3.165941872659    -2.084000177122    -0.642637928947     1.007825032070
           H         -5.142973872659    -3.026438177122     0.535646071053     1.007825032070
           H         -5.175573872659    -1.650706177122     1.623307071053     1.007825032070
           H         -3.833861872659    -2.779070177122     1.676657071053     1.007825032070
           C          4.463590127341    -0.759640177122    -0.225492928947    12.000000000000
           H          4.617489127341    -0.684498177122    -1.292344928947     1.007825032070
           H          4.803683127341    -1.718060177122     0.134750071053     1.007825032070
           H          5.000527127341     0.037803822878     0.267780071053     1.007825032070

  Charge       = 0
  Multiplicity = 1
  Basis Set: 6-31G*
  Basis Set:

    Orbital Energies (a.u.)
    -----------------------

    Doubly Occupied:

       1A    -20.603628     2A    -20.545419     3A    -11.372417
       4A    -11.280857     5A    -11.235206     6A    -11.219188
       7A    -11.216084     8A    -11.215876     9A    -11.215252
      10A    -11.214414    11A    -11.209345    12A     -1.469343
      13A     -1.362769    14A     -1.098735    15A     -1.066507
      16A     -1.019574    17A     -0.977072    18A     -0.929350
      19A     -0.861727    20A     -0.800359    21A     -0.789871
      22A     -0.764122    23A     -0.702033    24A     -0.682573
      25A     -0.672013    26A     -0.647531    27A     -0.630095
      28A     -0.605775    29A     -0.597178    30A     -0.576681
      31A     -0.565498    32A     -0.557517    33A     -0.534223
      34A     -0.527800    35A     -0.513365    36A     -0.508464
      37A     -0.502743    38A     -0.475535    39A     -0.472875
      40A     -0.462325    41A     -0.456947    42A     -0.455191
      43A     -0.437835    44A     -0.436378

  @DF-RHF Final Energy:  -501.03872660565116

   => Energetics <=

    Nuclear Repulsion Energy =            618.4264741865615633
    One-Electron Energy =               -1907.9550798793593458
    Two-Electron Energy =                 788.4898790871446863
    DFT Exchange-Correlation Energy =       0.0000000000000000
    Empirical Dispersion Energy =           0.0000000000000000
    PCM Polarization Energy =               0.0000000000000000
    EFP Energy =                            0.0000000000000000
    Total Energy =                       -501.0387266056530962

  Mulliken Charges: (a.u.)
   Center  Symbol    Alpha    Beta     Spin     Total
       1     O     4.28570  4.28570  0.00000 -0.57140
       2     C     2.60518  2.60518  0.00000  0.78964
       3     C     3.20873  3.20873  0.00000 -0.41746
       4     O     4.30743  4.30743  0.00000 -0.61486
       5     C     3.15503  3.15503  0.00000 -0.31006
       6     H     0.39963  0.39963  0.00000  0.20074
       7     H     0.40108  0.40108  0.00000  0.19784
       8     C     3.15984  3.15984  0.00000 -0.31969
       9     H     0.41297  0.41297  0.00000  0.17407
      10     H     0.40954  0.40954  0.00000  0.18092
      11     C     3.15603  3.15603  0.00000 -0.31206
      12     H     0.41614  0.41614  0.00000  0.16773
      13     H     0.42100  0.42100  0.00000  0.15800
      14     C     3.15340  3.15340  0.00000 -0.30681
      15     H     0.41899  0.41899  0.00000  0.16201
      16     H     0.42274  0.42274  0.00000  0.15452
      17     C     3.15182  3.15182  0.00000 -0.30364
      18     H     0.42267  0.42267  0.00000  0.15465
      19     H     0.42468  0.42468  0.00000  0.15064
      20     C     3.23927  3.23927  0.00000 -0.47855
      21     H     0.42265  0.42265  0.00000  0.15470
      22     H     0.42355  0.42355  0.00000  0.15290
      23     H     0.41918  0.41918  0.00000  0.16163
      24     H     0.42169  0.42169  0.00000  0.15662
      25     H     0.42202  0.42202  0.00000  0.15597
      26     C     3.09242  3.09242  0.00000 -0.18484
      27     H     0.40905  0.40905  0.00000  0.18189
      28     H     0.40849  0.40849  0.00000  0.18303
      29     H     0.40906  0.40906  0.00000  0.18188

   Total alpha = 44.00000, Total beta = 44.00000, Total charge =  0.00000
