                              Psi4 1.0.54 Driver

  ==> Input File <==

--------------------------------------------------------------------------
set {
	reference rhf
	basis cc-pvtz
}

set_num_threads( 4 )
memory 2 gb

molecule MOL {
0 1

O	 2.868453	 1.353349	 -0.000734
C	 2.841259	 0.166180	 -0.000295
C	 1.542794	 -0.614730	 -0.000853
C	 4.113372	 -0.651103	 0.000743
C	 0.288398	 0.247429	 0.000314
H	 1.557171	 -1.273139	 -0.866508
H	 1.557484	 -1.274998	 0.863344
C	 0.466070	 1.542697	 -0.786975
H	 0.013301	 0.473375	 1.024220
H	 -0.535915	 -0.323777	 -0.411228
C	 -0.784717	 2.416665	 -0.793416
H	 1.295933	 2.109181	 -0.370204
H	 0.743800	 1.308398	 -1.812271
C	 -0.614899	 3.714194	 -1.578474
H	 -1.062984	 2.651601	 0.231028
H	 -1.614626	 1.851546	 -1.210573
C	 -1.868863	 4.582158	 -1.580266
H	 0.213694	 4.280284	 -1.161441
H	 -0.337992	 3.480293	 -2.602940
H	 -2.152286	 4.862133	 -0.571144
H	 -1.714820	 5.494328	 -2.145278
H	 -2.707963	 4.056344	 -2.023520
H	 4.145311	 -1.294584	 -0.871587
H	 4.970080	 0.004978	 -0.000091
H	 4.145223	 -1.291980	 0.874988

	symmetry c1
}
set optking {
	frozen_dihedral = ("
		9 5 3 6
	")
}

ee,wfn = optimize('scf', return_wfn=True)
oeprop( wfn, 'DIPOLE', 'QUADRUPOLE', 'MULLIKEN_CHARGES')
f=open( 'psi4out.xyz', 'w' )
f.write( "25  " )
f.write( str(ee) + "\n" )
f.write( MOL.save_string_xyz() )
f.close()
--------------------------------------------------------------------------

    Molecular point group: c1
  Charge       = 0
  Multiplicity = 1
  Basis Set: CC-PVTZ
  Basis Set:
  @DF-RHF Final Energy:  -387.25033792089573
    Total Energy =                       -387.2503379208958449
    Molecular point group: c1
  Basis Set: CC-PVTZ
  Basis Set:
  Basis Set: CC-PVTZ
  Basis Set:
  @DF-RHF Final Energy:  -387.26402169347176
    Total Energy =                       -387.2640216934717046
  Basis Set: CC-PVTZ
  Basis Set:
  Basis Set: CC-PVTZ
  Basis Set:
  @DF-RHF Final Energy:  -387.26711257898205
    Total Energy =                       -387.2671125789815960
  Basis Set: CC-PVTZ
  Basis Set:
  Basis Set: CC-PVTZ
  Basis Set:
  @DF-RHF Final Energy:  -387.26636088734108
    Total Energy =                       -387.2663608873407384
  Basis Set: CC-PVTZ
  Basis Set:
  @DF-RHF Final Energy:  -387.26821600469555
    Total Energy =                       -387.2682160046954323
  @DF-RHF Final Energy:  -387.26919690153045
    Total Energy =                       -387.2691969015301083
  @DF-RHF Final Energy:  -387.26938876761608
    Total Energy =                       -387.2693887676166469
  Basis Set: CC-PVTZ
  Basis Set:
  @DF-RHF Final Energy:  -387.26960893036591
    Total Energy =                       -387.2696089303657345
  Basis Set: CC-PVTZ
  Basis Set:
  Basis Set: CC-PVTZ
  Basis Set:
  @DF-RHF Final Energy:  -387.26966109864435
    Total Energy =                       -387.2696610986445194
  Basis Set: CC-PVTZ
  Basis Set:
  Basis Set: CC-PVTZ
  Basis Set:
  @DF-RHF Final Energy:  -387.26966355656481
    Total Energy =                       -387.2696635565650922
  Basis Set: CC-PVTZ
  Basis Set:
  Charge       = 0
  Multiplicity = 1
  Basis Set: CC-PVTZ
  Basis Set:

    Orbital Energies (a.u.)
    -----------------------

    Doubly Occupied:

       1A    -20.537613     2A    -11.321741     3A    -11.230952
       4A    -11.227197     5A    -11.219642     6A    -11.209896
       7A    -11.208560     8A    -11.207560     9A    -11.203946
      10A     -1.398707    11A     -1.091542    12A     -1.055637
      13A     -1.014554    14A     -0.969100    15A     -0.890876
      16A     -0.817888    17A     -0.788928    18A     -0.726960
      19A     -0.666629    20A     -0.641187    21A     -0.632087
      22A     -0.624089    23A     -0.596946    24A     -0.585734
      25A     -0.567899    26A     -0.561368    27A     -0.536654
      28A     -0.529975    29A     -0.514013    30A     -0.497015
      31A     -0.484793    32A     -0.472107    33A     -0.461515
      34A     -0.458972    35A     -0.442123    36A     -0.400532

  @DF-RHF Final Energy:  -387.26966428431660

   => Energetics <=

    Nuclear Repulsion Energy =            449.3864294804186557
    One-Electron Energy =               -1415.7223181003701029
    Two-Electron Energy =                 579.0662243356345016
    DFT Exchange-Correlation Energy =       0.0000000000000000
    Empirical Dispersion Energy =           0.0000000000000000
    PCM Polarization Energy =               0.0000000000000000
    EFP Energy =                            0.0000000000000000
    Total Energy =                       -387.2696642843169457
    Molecular point group: c1
  Basis Set: CC-PVTZ
  Basis Set:

  -Total Gradient:
     Atom            X                  Y                   Z
    ------   -----------------  -----------------  -----------------
       1        0.000024912669    -0.000002698403     0.000007481076
       2        0.000015496147    -0.000042019481     0.000007877094
       3        0.003510998943     0.003924122109    -0.004730737569
       4       -0.000036194520     0.000056102395    -0.000034322020
       5        0.004154186214     0.005494666131     0.000198807332
       6       -0.003577620374    -0.004213045544     0.003886021794
       7        0.000003430650     0.000021826353    -0.000004517260
       8       -0.000056402409    -0.000041993923    -0.000012880510
       9       -0.004066849493    -0.005281913663     0.000616344775
      10        0.000009658291    -0.000005357184     0.000005650698
      11        0.000041867904     0.000036844771     0.000015824389
      12       -0.000003525631     0.000008723147     0.000009295589
      13        0.000014253447    -0.000008916635     0.000007307619
      14       -0.000021260671     0.000013038275     0.000015562798
      15       -0.000007211099     0.000004865408    -0.000004948356
      16        0.000027331029     0.000002852099     0.000007327768
      17       -0.000006089110     0.000012840039    -0.000028252448
      18       -0.000006646333    -0.000009351874     0.000000664823
      19       -0.000002271622     0.000002864141     0.000006307975
      20        0.000009642133    -0.000005951905    -0.000007797749
      21       -0.000014705865     0.000005316581    -0.000003477074
      22       -0.000000031671     0.000005556612     0.000002262539
      23        0.000007813644    -0.000005633217     0.000030360967
      24       -0.000006050439    -0.000016487921    -0.000005635613
      25       -0.000014731829     0.000043751681     0.000015471366

  **** Optimization is complete! (in 11 steps) ****
    Final optimized geometry and variables:
    Molecular point group: c1

    Geometry (in Angstrom), charge = 0, multiplicity = 1:

    O            2.068392629186    -0.174145480172     1.404569826391
    C            1.934076297115    -1.238501012114     0.894562138560
    C            0.576478451881    -1.891557771201     0.744905136610
    C            3.120688594972    -2.037998994508     0.411674728055
    C           -0.641217012165    -0.967057696751     0.629449448253
    H            0.578951888935    -2.629929169437    -0.049668017717
    H            0.468385604407    -2.488903692220     1.650295798838
    C           -0.511884861694     0.195894298186    -0.349988559542
    H           -0.935186126976    -0.623835338759     1.614556143701
    H           -1.467243890869    -1.595353724894     0.304680845200
    C           -1.820401248314     0.961719565134    -0.525260292673
    H            0.259905325164     0.874621539857    -0.013336793725
    H           -0.191752241429    -0.187716011397    -1.317587140680
    C           -1.708594749922     2.134269704461    -1.495525701316
    H           -2.150390704328     1.330431870708     0.443115595477
    H           -2.596141531177     0.282928488562    -0.872670370592
    C           -3.017433919669     2.898127664591    -1.666786965171
    H           -0.937193735086     2.814823220268    -1.146734296093
    H           -1.376514887832     1.768557140034    -2.463569696777
    H           -3.357992948197     3.307118587535    -0.721344985962
    H           -2.903589216180     3.722696190199    -2.361232907188
    H           -3.801602897156     2.251679078444    -2.047106295069
    H            3.089441918676    -2.108686955672    -0.670666304647
    H            4.038477235338    -1.558857950968     0.716011136985
    H            3.082310402349    -3.049392511215     0.800924991558

  Mulliken Charges: (a.u.)
   Center  Symbol    Alpha    Beta     Spin     Total
       1     O     4.17659  4.17659  0.00000 -0.35318
       2     C     2.85166  2.85166  0.00000  0.29667
       3     C     3.12740  3.12740  0.00000 -0.25480
       4     C     3.15276  3.15276  0.00000 -0.30552
       5     C     3.08584  3.08584  0.00000 -0.17167
       6     H     0.44079  0.44079  0.00000  0.11841
       7     H     0.43754  0.43754  0.00000  0.12493
       8     C     3.09717  3.09717  0.00000 -0.19434
       9     H     0.44692  0.44692  0.00000  0.10615
      10     H     0.45103  0.45103  0.00000  0.09793
      11     C     3.08801  3.08801  0.00000 -0.17601
      12     H     0.43570  0.43570  0.00000  0.12859
      13     H     0.45935  0.45935  0.00000  0.08129
      14     C     3.08322  3.08322  0.00000 -0.16644
      15     H     0.45407  0.45407  0.00000  0.09186
      16     H     0.45677  0.45677  0.00000  0.08646
      17     C     3.15093  3.15093  0.00000 -0.30186
      18     H     0.45255  0.45255  0.00000  0.09489
      19     H     0.45608  0.45608  0.00000  0.08783
      20     H     0.45483  0.45483  0.00000  0.09033
      21     H     0.44866  0.44866  0.00000  0.10268
      22     H     0.45613  0.45613  0.00000  0.08774
      23     H     0.44925  0.44925  0.00000  0.10150
      24     H     0.43630  0.43630  0.00000  0.12740
      25     H     0.45043  0.45043  0.00000  0.09914

   Total alpha = 36.00000, Total beta = 36.00000, Total charge = -0.00000

*** Psi4 exiting successfully. Buy a developer a beer!
