  ==> Input File <==

--------------------------------------------------------------------------
set {
	reference rhf
	basis cc-pvtz
}

set_num_threads( 4 )
memory 2 gb

molecule MOL {
0 1

H	 -2.425637	 -0.277999	 -0.759554
N	 -1.851927	 0.161443	 -0.071573
C	 -0.561396	 -0.500007	 0.035200
H	 -2.346620	 0.119795	 0.794961
C	 0.575129	 0.507849	 -0.048832
H	 -0.478089	 -1.200753	 -0.788956
H	 -0.456191	 -1.081816	 0.952176
C	 1.951750	 -0.141983	 0.035101
H	 0.478254	 1.061643	 -0.975981
H	 0.467676	 1.231891	 0.755499
H	 2.101550	 -0.848142	 -0.774949
H	 2.738260	 0.600794	 -0.026526
H	 2.078939	 -0.679792	 0.968824

	symmetry c1
}
set optking {
	frozen_dihedral = ("
		1 2 3 6
	")
}

ee = optimize('scf')
oeprop('DIPOLE', 'QUADRUPOLE', 'MULLIKEN_CHARGES')
f=open( 'psi4out.xyz', 'w' )
f.write( "13  " )
f.write( str(ee) + "\n" )
f.write( MOL.save_string_xyz() )
f.close()
--------------------------------------------------------------------------

    Molecular point group: c1
  Charge       = 0
  Multiplicity = 1
  Basis Set: CC-PVTZ
  Basis Set:
  @DF-RHF Final Energy:  -173.34949742572303
    Total Energy =                       -173.3494974257230297
    Molecular point group: c1
  Basis Set: CC-PVTZ
  Basis Set:
  Basis Set: CC-PVTZ
  Basis Set:
  @DF-RHF Final Energy:  -173.34990175381884
    Total Energy =                       -173.3499017538187843
  Basis Set: CC-PVTZ
  Basis Set:
  Basis Set: CC-PVTZ
  Basis Set:
  @DF-RHF Final Energy:  -173.35001899021518
    Total Energy =                       -173.3500189902152329
  Basis Set: CC-PVTZ
  Basis Set:
  Basis Set: CC-PVTZ
  Basis Set:
  @DF-RHF Final Energy:  -173.35002337110762
    Total Energy =                       -173.3500233711075680
  Basis Set: CC-PVTZ
  Basis Set:
  Charge       = 0
  Multiplicity = 1
  Basis Set: CC-PVTZ
  Basis Set:

    Orbital Energies (a.u.)
    -----------------------

    Doubly Occupied:

       1A    -15.524733     2A    -11.239046     3A    -11.204722
       4A    -11.204085     5A     -1.174964     6A     -1.034061
       7A     -0.899110     8A     -0.795320     9A     -0.676470
      10A     -0.614499    11A     -0.603430    12A     -0.573842
      13A     -0.517883    14A     -0.492053    15A     -0.485600
      16A     -0.463428    17A     -0.379295

  @DF-RHF Final Energy:  -173.35002418121150

   => Energetics <=

    Nuclear Repulsion Energy =            131.6200808681198282
    One-Electron Energy =                -494.1751300832839320
    Two-Electron Energy =                 189.2050250339526940
    DFT Exchange-Correlation Energy =       0.0000000000000000
    Empirical Dispersion Energy =           0.0000000000000000
    PCM Polarization Energy =               0.0000000000000000
    EFP Energy =                            0.0000000000000000
    Total Energy =                       -173.3500241812114098
    Molecular point group: c1
  Basis Set: CC-PVTZ
  Basis Set:

  -Total Gradient:
     Atom            X                  Y                   Z
    ------   -----------------  -----------------  -----------------
       1        0.000601737634     0.000991057425    -0.001154793836
       2       -0.000948163548    -0.001457824763     0.001635388464
       3        0.000917910155     0.001539716483    -0.001356800737
       4        0.000011587264     0.000008860488     0.000010527578
       5       -0.000059659652    -0.000055318622     0.000051258480
       6       -0.000566783696    -0.001044776105     0.000829345347
       7        0.000027355406     0.000013431115     0.000004662998
       8        0.000012027728     0.000020482472    -0.000019378186
       9       -0.000007317757    -0.000015241857     0.000006625631
      10       -0.000005759660    -0.000001450995    -0.000003395179
      11       -0.000005569248     0.000001289820     0.000006700431
      12        0.000028717379    -0.000010809052    -0.000002424798
      13       -0.000006082002     0.000010583591    -0.000007716192

  **** Optimization is complete! (in 5 steps) ****
    Final optimized geometry and variables:
    Molecular point group: c1

    Geometry (in Angstrom), charge = 0, multiplicity = 1:

    H           -2.456262973472    -0.284536953370    -0.721180033503
    N           -1.860919160589     0.154268738762    -0.055832118554
    C           -0.554937574907    -0.489741610336     0.027796084666
    H           -2.332129014298     0.174869421745     0.820564456598
    C            0.583032843200     0.519972360848    -0.038453644766
    H           -0.454040030496    -1.203285784093    -0.783893676559
    H           -0.461759777642    -1.070745565567     0.943040761414
    C            1.959330622807    -0.129793389043     0.051710060171
    H            0.493567124169     1.081116186144    -0.962491539008
    H            0.459392453341     1.237679327412     0.767010105957
    H            2.116740084792    -0.832950959237    -0.760092320353
    H            2.747085074722     0.612531854986     0.000143327737
    H            2.079730090293    -0.672666139542     0.983844843750

  Mulliken Charges: (a.u.)
   Center  Symbol    Alpha    Beta     Spin     Total
       1     H     0.42467  0.42467  0.00000  0.15065
       2     N     3.69870  3.69870  0.00000 -0.39739
       3     C     3.03818  3.03818  0.00000 -0.07635
       4     H     0.42667  0.42667  0.00000  0.14666
       5     C     3.06143  3.06143  0.00000 -0.12286
       6     H     0.45755  0.45755  0.00000  0.08491
       7     H     0.46130  0.46130  0.00000  0.07740
       8     C     3.15574  3.15574  0.00000 -0.31148
       9     H     0.45532  0.45532  0.00000  0.08936
      10     H     0.45853  0.45853  0.00000  0.08295
      11     H     0.45699  0.45699  0.00000  0.08601
      12     H     0.44764  0.44764  0.00000  0.10471
      13     H     0.45729  0.45729  0.00000  0.08542

   Total alpha = 17.00000, Total beta = 17.00000, Total charge = -0.00000
