  ==> Input File <==

--------------------------------------------------------------------------
set {
	reference rhf
	basis 6-31G*
}

set_num_threads( 4 )
memory 2 gb

molecule MOL {
0 1

H	 2.902476	 -0.417239	 0.014401
O	 2.211127	 0.151859	 -0.291956
C	 1.135793	 0.118896	 0.612333
C	 0.031547	 1.023609	 0.088541
H	 1.452017	 0.470212	 1.592877
H	 0.771868	 -0.898695	 0.735493
C	 -1.134819	 0.293262	 -0.585751
H	 0.474374	 1.714721	 -0.623187
H	 -0.338529	 1.620940	 0.920081
C	 -1.917817	 -0.639439	 0.339494
H	 -0.758119	 -0.268455	 -1.433105
H	 -1.813832	 1.041889	 -0.986690
H	 -2.777680	 -1.057197	 -0.174994
H	 -1.310268	 -1.471279	 0.680599
H	 -2.283753	 -0.111424	 1.216626

	symmetry c1
}
set optking {
	frozen_dihedral = ("
		2 3 4 8
	")
}

ee = optimize('scf')
oeprop('DIPOLE', 'QUADRUPOLE', 'MULLIKEN_CHARGES')
f=open( 'psi4out.xyz', 'w' )
f.write( "15  " )
f.write( str(ee) + "\n" )
f.write( MOL.save_string_xyz() )
f.close()
--------------------------------------------------------------------------

    Molecular point group: c1
  Charge       = 0
  Multiplicity = 1
  Basis Set: 6-31G*
  Basis Set:
  @DF-RHF Final Energy:  -232.13822754979694
    Total Energy =                       -232.1382275497971364
    Molecular point group: c1
  Basis Set: 6-31G*
  Basis Set:
  Basis Set: 6-31G*
  Basis Set:
  @DF-RHF Final Energy:  -232.13883415811961
    Total Energy =                       -232.1388341581197210
  Basis Set: 6-31G*
  Basis Set:
  Basis Set: 6-31G*
  Basis Set:
  @DF-RHF Final Energy:  -232.13918690073535
    Total Energy =                       -232.1391869007352398
  Basis Set: 6-31G*
  Basis Set:
  Basis Set: 6-31G*
  Basis Set:
  @DF-RHF Final Energy:  -232.13913829617309
    Total Energy =                       -232.1391382961731438
  Basis Set: 6-31G*
  Basis Set:
  Basis Set: 6-31G*
  Basis Set:
  @DF-RHF Final Energy:  -232.13922480937345
    Total Energy =                       -232.1392248093733315
  Basis Set: 6-31G*
  Basis Set:
  Basis Set: 6-31G*
  Basis Set:
  @DF-RHF Final Energy:  -232.13922679928220
    Total Energy =                       -232.1392267992821417
  Basis Set: 6-31G*
  Basis Set:
  Charge       = 0
  Multiplicity = 1
  Basis Set: 6-31G*
  Basis Set:

    Orbital Energies (a.u.)
    -----------------------

    Doubly Occupied:

       1A    -20.551754     2A    -11.267488     3A    -11.214234
       4A    -11.211288     5A    -11.209293     6A     -1.357802
       7A     -1.066128     8A     -0.969312     9A     -0.868483
      10A     -0.781458    11A     -0.702909    12A     -0.646103
      13A     -0.603862    14A     -0.584771    15A     -0.558005
      16A     -0.536245    17A     -0.508756    18A     -0.475426
      19A     -0.470980    20A     -0.454376    21A     -0.428622

  @DF-RHF Final Energy:  -232.13922696443248

   => Energetics <=

    Nuclear Repulsion Energy =            188.8722770422073438
    One-Electron Energy =                -689.0884180189583503
    Two-Electron Energy =                 268.0769140123184116
    DFT Exchange-Correlation Energy =       0.0000000000000000
    Empirical Dispersion Energy =           0.0000000000000000
    PCM Polarization Energy =               0.0000000000000000
    EFP Energy =                            0.0000000000000000
    Total Energy =                       -232.1392269644326234
    Molecular point group: c1
  Basis Set: 6-31G*
  Basis Set:

  -Total Gradient:
     Atom            X                  Y                   Z
    ------   -----------------  -----------------  -----------------
       1       -0.000015946685     0.000004521786     0.000007492367
       2        0.001151410008     0.002272722634     0.001560493571
       3       -0.001592581875    -0.003397182631    -0.002633433829
       4        0.001157293577     0.003434700491     0.004020012042
       5       -0.000009422431     0.000008614618     0.000001676018
       6       -0.000014140095     0.000002695927     0.000005927691
       7       -0.000015921509     0.000023447384    -0.000005495998
       8       -0.000698376529    -0.002356165949    -0.002961428825
       9       -0.000003053589     0.000007472066     0.000000184995
      10        0.000033118784    -0.000012054935     0.000006779551
      11       -0.000002169966    -0.000006902037     0.000015829531
      12        0.000004821934     0.000015252291    -0.000009506200
      13        0.000003875524     0.000007477938    -0.000006922861
      14       -0.000005657231    -0.000011065612     0.000007453266
      15        0.000006750080     0.000006466029    -0.000009061319

  **** Optimization is complete! (in 7 steps) ****
    Final optimized geometry and variables:
    Molecular point group: c1

    Geometry (in Angstrom), charge = 0, multiplicity = 1:

    H            2.799810149772    -0.539999879238    -0.157718553433
    O            2.095152927845     0.052159108531    -0.379415032174
    C            1.056573292058    -0.078847654722     0.561884483902
    C           -0.102213694440     0.819798109562     0.120648486110
    H            1.413210884797     0.219676815258     1.545451881361
    H            0.740913395584    -1.116696084724     0.635175437587
    C           -1.229643908211     0.078026322763    -0.609549694491
    H            0.317375936151     1.552785787861    -0.559196693181
    H           -0.511251069459     1.354048947369     0.973757536144
    C           -2.105582291604    -0.782132447494     0.302907783888
    H           -0.796121798089    -0.537897558723    -1.393904277230
    H           -1.861017561128     0.808034987656    -1.109414495271
    H           -2.886394215929    -1.279967561611    -0.263762916407
    H           -1.532891779669    -1.552295074266     0.811155436575
    H           -2.586660570865    -0.174192409474     1.064378091040

  Mulliken Charges: (a.u.)
   Center  Symbol    Alpha    Beta     Spin     Total
       1     H     0.28186  0.28186  0.00000  0.43627
       2     O     4.37170  4.37170  0.00000 -0.74339
       3     C     2.99646  2.99646  0.00000  0.00707
       4     C     3.16486  3.16486  0.00000 -0.32972
       5     H     0.42967  0.42967  0.00000  0.14066
       6     H     0.43008  0.43008  0.00000  0.13983
       7     C     3.15839  3.15839  0.00000 -0.31677
       8     H     0.40307  0.40307  0.00000  0.19385
       9     H     0.42195  0.42195  0.00000  0.15610
      10     C     3.24122  3.24122  0.00000 -0.48243
      11     H     0.41665  0.41665  0.00000  0.16670
      12     H     0.42025  0.42025  0.00000  0.15951
      13     H     0.41834  0.41834  0.00000  0.16331
      14     H     0.42332  0.42332  0.00000  0.15337
      15     H     0.42218  0.42218  0.00000  0.15563

   Total alpha = 21.00000, Total beta = 21.00000, Total charge = -0.00000
