  ==> Input File <==

--------------------------------------------------------------------------
set {
	reference rhf
	basis cc-pvtz
}

set_num_threads( 4 )
memory 2 gb

molecule MOL {
0 1

H	 -2.744291	 -0.727775	 -0.622493
O	 -2.313989	 -0.142475	 -0.025864
C	 -0.943808	 -0.065018	 -0.330000
H	 -0.812293	 -0.225641	 -1.398673
C	 -0.231030	 -1.182113	 0.407592
C	 -0.353797	 1.300461	 0.050970
H	 -0.312800	 -0.992012	 1.473041
H	 -0.738841	 -2.119564	 0.220514
C	 1.246176	 -1.268044	 -0.015480
H	 -0.539537	 2.008579	 -0.751815
H	 -0.889989	 1.662858	 0.920677
C	 1.153605	 1.231851	 0.356834
H	 1.823096	 -1.684665	 0.802361
H	 1.352335	 -1.958223	 -0.845114
C	 1.826409	 0.100723	 -0.416008
H	 1.622968	 2.181508	 0.128734
H	 1.301983	 1.066493	 1.419367
H	 2.897299	 0.112407	 -0.249665
H	 1.683458	 0.265621	 -1.480024

	symmetry c1
}
set optking {
	frozen_dihedral = ("
		1 2 3 4
	")
}

ee = optimize('scf')
oeprop('DIPOLE', 'QUADRUPOLE', 'MULLIKEN_CHARGES')
f=open( 'psi4out.xyz', 'w' )
f.write( "19  " )
f.write( str(ee) + "\n" )
f.write( MOL.save_string_xyz() )
f.close()
--------------------------------------------------------------------------

    Molecular point group: c1
  Charge       = 0
  Multiplicity = 1
  Basis Set: CC-PVTZ
  Basis Set:
  @DF-RHF Final Energy:  -309.16169494752643
    Total Energy =                       -309.1616949475263709
    Molecular point group: c1
  Basis Set: CC-PVTZ
  Basis Set:
  Basis Set: CC-PVTZ
  Basis Set:
  @DF-RHF Final Energy:  -309.16288936676989
    Total Energy =                       -309.1628893667696047
  Basis Set: CC-PVTZ
  Basis Set:
  Basis Set: CC-PVTZ
  Basis Set:
  @DF-RHF Final Energy:  -309.16310118661772
    Total Energy =                       -309.1631011866178369
  Basis Set: CC-PVTZ
  Basis Set:
  Basis Set: CC-PVTZ
  Basis Set:
  @DF-RHF Final Energy:  -309.16310578541112
    Total Energy =                       -309.1631057854108917
  Basis Set: CC-PVTZ
  Basis Set:
  Charge       = 0
  Multiplicity = 1
  Basis Set: CC-PVTZ
  Basis Set:

    Orbital Energies (a.u.)
    -----------------------

    Doubly Occupied:

       1A    -20.543279     2A    -11.268177     3A    -11.214216
       4A    -11.212905     5A    -11.211706     6A    -11.207950
       7A    -11.206821     8A     -1.362779     9A     -1.109304
      10A     -1.001554    11A     -0.989407    12A     -0.845235
      13A     -0.831576    14A     -0.731661    15A     -0.714484
      16A     -0.655171    17A     -0.621685    18A     -0.602393
      19A     -0.564925    20A     -0.545898    21A     -0.536185
      22A     -0.518362    23A     -0.498347    24A     -0.486958
      25A     -0.466877    26A     -0.449686    27A     -0.430226
      28A     -0.409108

  @DF-RHF Final Energy:  -309.16310645124486

   => Energetics <=

    Nuclear Repulsion Energy =            331.8053372462486550
    One-Electron Energy =               -1077.4631400719752037
    Two-Electron Energy =                 436.4946963744812365
    DFT Exchange-Correlation Energy =       0.0000000000000000
    Empirical Dispersion Energy =           0.0000000000000000
    PCM Polarization Energy =               0.0000000000000000
    EFP Energy =                            0.0000000000000000
    Total Energy =                       -309.1631064512453122
    Molecular point group: c1
  Basis Set: CC-PVTZ
  Basis Set:

  -Total Gradient:
     Atom            X                  Y                   Z
    ------   -----------------  -----------------  -----------------
       1       -0.000231505897     0.001315014339    -0.001060231596
       2        0.000293463005    -0.002005633563     0.001347251586
       3       -0.000084863893     0.002155672178    -0.000473307488
       4        0.000029324061    -0.001434099040     0.000253666613
       5       -0.000016092016     0.000009395032    -0.000029712005
       6        0.000018885968     0.000005605793    -0.000015965073
       7       -0.000001122692     0.000001372292    -0.000007453220
       8       -0.000003503250    -0.000007258873    -0.000003985751
       9        0.000022465940     0.000011018973     0.000000512076
      10        0.000006813447     0.000013137788    -0.000003756275
      11       -0.000013557043    -0.000033831230    -0.000009622033
      12        0.000001206174     0.000011066973    -0.000014902344
      13        0.000017128647    -0.000007614791     0.000012845544
      14        0.000002739314     0.000007650576     0.000011467956
      15       -0.000022656128    -0.000027763579     0.000000467670
      16       -0.000009237004     0.000001624401     0.000000602017
      17       -0.000009200713    -0.000000787990     0.000001852300
      18        0.000002731729    -0.000022234554    -0.000005595969
      19       -0.000003019645     0.000007665275    -0.000004134011

  **** Optimization is complete! (in 5 steps) ****
    Final optimized geometry and variables:
    Molecular point group: c1

    Geometry (in Angstrom), charge = 0, multiplicity = 1:

    H           -2.792860328034    -0.616815578024    -0.606036244441
    O           -2.318967643359    -0.061033678622    -0.016427704555
    C           -0.945451473133    -0.076154228944    -0.327717953104
    H           -0.827141815190    -0.248840210092    -1.395326450214
    C           -0.214715837181    -1.188974408487     0.409774943497
    C           -0.364431503705     1.291451889367     0.038095893454
    H           -0.295562271182    -0.998740904595     1.475103922800
    H           -0.708959189145    -2.137352189455     0.229268498284
    C            1.262230589946    -1.263703310525    -0.017509580747
    H           -0.550827000280     1.983917806762    -0.775289012911
    H           -0.916767493516     1.661788908422     0.893143659823
    C            1.138234667994     1.232713661070     0.362002382111
    H            1.844479050482    -1.680823503311     0.796362437904
    H            1.371828139639    -1.948809220161    -0.851265049080
    C            1.829460820881     0.112820861611    -0.410858815850
    H            1.600731914656     2.188096922759     0.143936699823
    H            1.278360394955     1.063044615761     1.425198617231
    H            2.899457223587     0.135103077487    -0.239851447262
    H            1.689092432161     0.280302369916    -1.474957078275

  Mulliken Charges: (a.u.)
   Center  Symbol    Alpha    Beta     Spin     Total
       1     H     0.39350  0.39350  0.00000  0.21299
       2     O     4.20490  4.20490  0.00000 -0.40980
       3     C     2.92766  2.92766  0.00000  0.14469
       4     H     0.46623  0.46623  0.00000  0.06754
       5     C     3.09629  3.09629  0.00000 -0.19259
       6     C     3.10895  3.10895  0.00000 -0.21790
       7     H     0.45320  0.45320  0.00000  0.09361
       8     H     0.44947  0.44947  0.00000  0.10106
       9     C     3.11492  3.11492  0.00000 -0.22984
      10     H     0.44938  0.44938  0.00000  0.10125
      11     H     0.44419  0.44419  0.00000  0.11162
      12     C     3.10059  3.10059  0.00000 -0.20118
      13     H     0.44729  0.44729  0.00000  0.10542
      14     H     0.44824  0.44824  0.00000  0.10353
      15     C     3.10191  3.10191  0.00000 -0.20382
      16     H     0.44213  0.44213  0.00000  0.11575
      17     H     0.45349  0.45349  0.00000  0.09301
      18     H     0.44307  0.44307  0.00000  0.11386
      19     H     0.45461  0.45461  0.00000  0.09078

   Total alpha = 28.00000, Total beta = 28.00000, Total charge = -0.00000
