                              Psi4 1.0.54 Driver

  ==> Input File <==

--------------------------------------------------------------------------
set {
	reference rhf
	basis cc-pvtz
}

set_num_threads( 4 )
memory 2 gb

molecule MOL {
0 1

H	 -3.885111	 -1.695707	 0.882384
C	 -2.817650	 -1.588739	 0.917895
C	 -2.128737	 -1.921879	 2.070308
C	 -2.135422	 -1.118463	 -0.188174
H	 -2.658941	 -2.286840	 2.928439
C	 -0.757054	 -1.784157	 2.115178
H	 -2.670603	 -0.860384	 -1.081398
C	 -0.761943	 -0.980005	 -0.144798
H	 -0.207986	 -2.037393	 2.999177
C	 -0.068606	 -1.312803	 1.008042
H	 -0.230569	 -0.616088	 -0.999630
C	 1.413287	 -1.182010	 1.107069
O	 1.968286	 -0.725612	 -0.000027
O	 2.036231	 -1.457606	 2.077206
C	 3.373556	 -0.568203	 0.000011
H	 3.695416	 -0.031588	 -0.879663
H	 3.782700	 -1.565294	 -0.000152
H	 3.695405	 -0.031851	 0.879862

	symmetry c1
}
set optking {
	frozen_dihedral = ("
		12 13 15 16
	")
}

ee,wfn = optimize('scf', return_wfn=True)
oeprop( wfn, 'DIPOLE', 'QUADRUPOLE', 'MULLIKEN_CHARGES')
f=open( 'psi4out.xyz', 'w' )
f.write( "18  " )
f.write( str(ee) + "\n" )
f.write( MOL.save_string_xyz() )
f.close()
--------------------------------------------------------------------------

    Molecular point group: c1
  Charge       = 0
  Multiplicity = 1
  Basis Set: CC-PVTZ
  Basis Set:
  @DF-RHF Final Energy:  -457.50856394269186
    Total Energy =                       -457.5085639426920352
    Molecular point group: c1
  Basis Set: CC-PVTZ
  Basis Set:
  Basis Set: CC-PVTZ
  Basis Set:
  @DF-RHF Final Energy:  -457.50972908398927
    Total Energy =                       -457.5097290839894413
  Basis Set: CC-PVTZ
  Basis Set:
  Basis Set: CC-PVTZ
  Basis Set:
  @DF-RHF Final Energy:  -457.50972975422877
    Total Energy =                       -457.5097297542289425
  Basis Set: CC-PVTZ
  Basis Set:
  Basis Set: CC-PVTZ
  Basis Set:
  @DF-RHF Final Energy:  -457.50993097844054
    Total Energy =                       -457.5099309784402521
  Basis Set: CC-PVTZ
  Basis Set:
  Basis Set: CC-PVTZ
  Basis Set:
  @DF-RHF Final Energy:  -457.51007646776003
    Total Energy =                       -457.5100764677605412
  Basis Set: CC-PVTZ
  Basis Set:
  Charge       = 0
  Multiplicity = 1
  Basis Set: CC-PVTZ
  Basis Set:

    Orbital Energies (a.u.)
    -----------------------

    Doubly Occupied:

       1A    -20.600958     2A    -20.534455     3A    -11.371846
       4A    -11.281184     5A    -11.244941     6A    -11.243494
       7A    -11.242680     8A    -11.240035     9A    -11.236057
      10A    -11.235297    11A     -1.476942    12A     -1.368604
      13A     -1.170805    14A     -1.051882    15A     -1.029073
      16A     -0.980614    17A     -0.863229    18A     -0.838471
      19A     -0.781257    20A     -0.745084    21A     -0.687928
      22A     -0.681761    23A     -0.676404    24A     -0.634113
      25A     -0.630083    26A     -0.601326    27A     -0.587583
      28A     -0.565491    29A     -0.531390    30A     -0.520336
      31A     -0.509541    32A     -0.502227    33A     -0.464089
      34A     -0.449476    35A     -0.350215    36A     -0.346266

  @DF-RHF Final Energy:  -457.51007689833136

   => Energetics <=

    Nuclear Repulsion Energy =            494.0363698252386939
    One-Electron Energy =               -1602.5426154676479200
    Two-Electron Energy =                 650.9961687440772948
    DFT Exchange-Correlation Energy =       0.0000000000000000
    Empirical Dispersion Energy =           0.0000000000000000
    PCM Polarization Energy =               0.0000000000000000
    EFP Energy =                            0.0000000000000000
    Total Energy =                       -457.5100768983320449
    Molecular point group: c1
  Basis Set: CC-PVTZ
  Basis Set:

  -Total Gradient:
     Atom            X                  Y                   Z
    ------   -----------------  -----------------  -----------------
       1        0.000011901433     0.000001391582    -0.000004605200
       2        0.000012962660     0.000001707606    -0.000009511123
       3        0.000024343666     0.000014193098     0.000001873606
       4        0.000019966520     0.000005808409     0.000002167179
       5        0.000015032961     0.000005085370    -0.000002040277
       6        0.000026806233    -0.000017345319    -0.000006150537
       7        0.000005760660     0.000002886990    -0.000001036951
       8        0.000002623887    -0.000018282108    -0.000003924189
       9        0.000002932032    -0.000001473732     0.000009351211
      10        0.000044774209     0.000018686822    -0.000005012689
      11        0.000004540898     0.000007597607    -0.000004732114
      12        0.000016904845     0.000768454145     0.000293826602
      13        0.000092565846    -0.000893559089    -0.000349950930
      14       -0.000090008734    -0.000013278799     0.000047839128
      15       -0.000001155900    -0.000679926545    -0.000380597972
      16       -0.000104274519     0.000874869867     0.000409652448
      17       -0.000018601840    -0.000101905079     0.000000668520
      18       -0.000067074857     0.000025089179     0.000002183290

  **** Optimization is complete! (in 6 steps) ****
    Final optimized geometry and variables:
    Molecular point group: c1

    Geometry (in Angstrom), charge = 0, multiplicity = 1:

    H           -4.026750856158    -0.427904373214    -0.008033118774
    C           -2.958689844661    -0.327230291642     0.028454176987
    C           -2.272660838630    -0.665873449718     1.181118991363
    C           -2.272753786223     0.140317426617    -1.076408868825
    H           -2.805699738702    -1.028796534618     2.038408588075
    C           -0.900281615226    -0.536424592444     1.227285308809
    H           -2.805470650515     0.402683340289    -1.969891604420
    C           -0.898422208359     0.270667234093    -1.031677099315
    H           -0.353511920765    -0.794148730637     2.111480711659
    C           -0.208221497640    -0.067524599750     0.121316799225
    H           -0.364316693178     0.632519498289    -1.885742659563
    C            1.274474154329     0.054650448512     0.222287475142
    O            1.832535896435     0.506187605948    -0.885131757816
    O            1.893941317843    -0.224398072527     1.193579228622
    C            3.236087057651     0.675479596799    -0.882347095729
    H            3.472780824865     1.209832087345    -1.788145267702
    H            3.731949474057    -0.284295496482    -0.871007894362
    H            3.548844637408     1.246684189592    -0.022273413698

  Mulliken Charges: (a.u.)
   Center  Symbol    Alpha    Beta     Spin     Total
       1     H     0.42029  0.42029  0.00000  0.15942
       2     C     3.06976  3.06976  0.00000 -0.13951
       3     C     3.07550  3.07550  0.00000 -0.15101
       4     C     3.07492  3.07492  0.00000 -0.14985
       5     H     0.42038  0.42038  0.00000  0.15923
       6     C     3.07589  3.07589  0.00000 -0.15178
       7     H     0.42189  0.42189  0.00000  0.15622
       8     C     3.08212  3.08212  0.00000 -0.16423
       9     H     0.40665  0.40665  0.00000  0.18670
      10     C     3.01295  3.01295  0.00000 -0.02591
      11     H     0.41104  0.41104  0.00000  0.17793
      12     C     2.78166  2.78166  0.00000  0.43667
      13     O     4.14847  4.14847  0.00000 -0.29693
      14     O     4.21133  4.21133  0.00000 -0.42266
      15     C     3.03669  3.03669  0.00000 -0.07339
      16     H     0.44562  0.44562  0.00000  0.10876
      17     H     0.45419  0.45419  0.00000  0.09162
      18     H     0.45064  0.45064  0.00000  0.09871

   Total alpha = 36.00000, Total beta = 36.00000, Total charge = -0.00000

*** Psi4 exiting successfully. Buy a developer a beer!
