  ==> Input File <==

--------------------------------------------------------------------------
set {
	reference rhf
	basis cc-pvtz
}

set_num_threads( 4 )
memory 2 gb

molecule MOL {
0 1

H	 -1.860786	 1.017773	 0.440476
N	 -1.851927	 0.161443	 -0.071573
C	 -0.561396	 -0.500007	 0.035200
H	 -2.060612	 0.384453	 -1.022390
C	 0.575129	 0.507849	 -0.048832
H	 -0.478089	 -1.200753	 -0.788956
H	 -0.456191	 -1.081816	 0.952176
C	 1.951750	 -0.141983	 0.035101
H	 0.478254	 1.061643	 -0.975981
H	 0.467676	 1.231891	 0.755499
H	 2.101550	 -0.848142	 -0.774949
H	 2.738260	 0.600794	 -0.026526
H	 2.078939	 -0.679792	 0.968824

	symmetry c1
}
set optking {
	frozen_dihedral = ("
		1 2 3 6
	")
}

ee = optimize('scf')
oeprop('DIPOLE', 'QUADRUPOLE', 'MULLIKEN_CHARGES')
f=open( 'psi4out.xyz', 'w' )
f.write( "13  " )
f.write( str(ee) + "\n" )
f.write( MOL.save_string_xyz() )
f.close()
--------------------------------------------------------------------------

    Molecular point group: c1
  Charge       = 0
  Multiplicity = 1
  Basis Set: CC-PVTZ
  Basis Set:
  @DF-RHF Final Energy:  -173.35001822387616
    Total Energy =                       -173.3500182238761624
    Molecular point group: c1
  Basis Set: CC-PVTZ
  Basis Set:
  Basis Set: CC-PVTZ
  Basis Set:
  @DF-RHF Final Energy:  -173.35134578434139
    Total Energy =                       -173.3513457843415040
  Basis Set: CC-PVTZ
  Basis Set:
  Basis Set: CC-PVTZ
  Basis Set:
  @DF-RHF Final Energy:  -173.35153130044608
    Total Energy =                       -173.3515313004463110
  Basis Set: CC-PVTZ
  Basis Set:
  Basis Set: CC-PVTZ
  Basis Set:
  @DF-RHF Final Energy:  -173.35153360806851
    Total Energy =                       -173.3515336080684506
  Basis Set: CC-PVTZ
  Basis Set:
  Charge       = 0
  Multiplicity = 1
  Basis Set: CC-PVTZ
  Basis Set:

    Orbital Energies (a.u.)
    -----------------------

    Doubly Occupied:

       1A    -15.526919     2A    -11.238733     3A    -11.214582
       4A    -11.210027     5A     -1.178899     6A     -1.038273
       7A     -0.900258     8A     -0.807478     9A     -0.676051
      10A     -0.610035    11A     -0.606752    12A     -0.560909
      13A     -0.530035    14A     -0.511395    15A     -0.486376
      16A     -0.471503    17A     -0.381416

  @DF-RHF Final Energy:  -173.35153374027118

   => Energetics <=

    Nuclear Repulsion Energy =            131.8426327921080201
    One-Electron Energy =                -494.4890497151028512
    Two-Electron Energy =                 189.2948831827235949
    DFT Exchange-Correlation Energy =       0.0000000000000000
    Empirical Dispersion Energy =           0.0000000000000000
    PCM Polarization Energy =               0.0000000000000000
    EFP Energy =                            0.0000000000000000
    Total Energy =                       -173.3515337402712362
    Molecular point group: c1
  Basis Set: CC-PVTZ
  Basis Set:

  -Total Gradient:
     Atom            X                  Y                   Z
    ------   -----------------  -----------------  -----------------
       1        0.000721494718     0.001360715385    -0.002275433781
       2       -0.000683098918    -0.001272442059     0.002501093587
       3       -0.000953343988    -0.001871119192     0.001226334179
       4       -0.000002911533     0.000001219414     0.000001282823
       5       -0.000026174063    -0.000030451483     0.000011779643
       6        0.000905725745     0.001798501712    -0.001462765463
       7        0.000013324519     0.000002141009     0.000004079786
       8        0.000009316190     0.000011503640    -0.000009277441
       9        0.000000630495     0.000000713851     0.000005754446
      10       -0.000003742553     0.000003300552    -0.000001653181
      11        0.000000671101    -0.000001028549     0.000005050626
      12        0.000019703212    -0.000006408161    -0.000001151979
      13       -0.000001594921     0.000003353882    -0.000005093247

  **** Optimization is complete! (in 5 steps) ****
    Final optimized geometry and variables:
    Molecular point group: c1

    Geometry (in Angstrom), charge = 0, multiplicity = 1:

    H           -1.932486068087     0.970465838676     0.466150576600
    N           -1.897604069503     0.106995815679    -0.035132318423
    C           -0.570554973965    -0.485964470506     0.041642817533
    H           -2.128860522468     0.324890091666    -0.981526111784
    C            0.588901347529     0.504738300266    -0.033827939642
    H           -0.475961943139    -1.194212770200    -0.774560234271
    H           -0.495860744981    -1.055099829668     0.962672066949
    C            1.953696043887    -0.169531737687     0.056572888786
    H            0.517221182457     1.065500609249    -0.962176717119
    H            0.488749448636     1.228875155115     0.771345764075
    H            2.096783342106    -0.874848183793    -0.755408947597
    H            2.755540106397     0.557608622461     0.006563136577
    H            2.060079589808    -0.714768291402     0.988427097334

  Mulliken Charges: (a.u.)
   Center  Symbol    Alpha    Beta     Spin     Total
       1     H     0.43200  0.43200  0.00000  0.13600
       2     N     3.68835  3.68835  0.00000 -0.37670
       3     C     3.02444  3.02444  0.00000 -0.04889
       4     H     0.43187  0.43187  0.00000  0.13626
       5     C     3.08268  3.08268  0.00000 -0.16536
       6     H     0.45693  0.45693  0.00000  0.08615
       7     H     0.45533  0.45533  0.00000  0.08935
       8     C     3.15253  3.15253  0.00000 -0.30505
       9     H     0.45899  0.45899  0.00000  0.08202
      10     H     0.45931  0.45931  0.00000  0.08138
      11     H     0.45508  0.45508  0.00000  0.08984
      12     H     0.44794  0.44794  0.00000  0.10412
      13     H     0.45455  0.45455  0.00000  0.09090

   Total alpha = 17.00000, Total beta = 17.00000, Total charge = -0.00000
