  ==> Input File <==

--------------------------------------------------------------------------
set {
	reference rhf
	basis cc-pvtz
}

set_num_threads( 4 )
memory 2 gb

molecule MOL {
0 1

O	 -1.067916	 -1.025809	 -2.089864
C	 -0.410960	 -1.085412	 -1.106653
C	 0.840844	 -1.910768	 -0.946543
O	 -0.695554	 -0.422406	 0.000602
C	 1.212509	 -2.693948	 -2.195329
H	 0.684832	 -2.569311	 -0.099235
H	 1.636033	 -1.234235	 -0.653432
H	 0.423451	 -3.379271	 -2.474504
H	 2.116100	 -3.265261	 -2.020763
H	 1.383298	 -2.032066	 -3.033762
C	 -1.852370	 0.402254	 0.000718
C	 -3.063338	 -0.501097	 -0.000437
H	 -1.831732	 1.039442	 -0.872158
H	 -1.832493	 1.038301	 0.874430
H	 -3.071944	 -1.133732	 -0.879113
H	 -3.966302	 0.097976	 -0.000483
H	 -3.072764	 -1.134834	 0.877435

	symmetry c1
}
set optking {
	frozen_dihedral = ("
		2 4 11 13
	")
}

ee = optimize('scf')
oeprop('DIPOLE', 'QUADRUPOLE', 'MULLIKEN_CHARGES')
f=open( 'psi4out.xyz', 'w' )
f.write( "17  " )
f.write( str(ee) + "\n" )
f.write( MOL.save_string_xyz() )
f.close()
--------------------------------------------------------------------------

    Molecular point group: c1
  Charge       = 0
  Multiplicity = 1
  Basis Set: CC-PVTZ
  Basis Set:
  @DF-RHF Final Energy:  -345.03594974459128
    Total Energy =                       -345.0359497445916759
    Molecular point group: c1
  Basis Set: CC-PVTZ
  Basis Set:
  Basis Set: CC-PVTZ
  Basis Set:
  @DF-RHF Final Energy:  -345.03876368635696
    Total Energy =                       -345.0387636863572425
  Basis Set: CC-PVTZ
  Basis Set:
  Basis Set: CC-PVTZ
  Basis Set:
  @DF-RHF Final Energy:  -345.03872349585959
    Total Energy =                       -345.0387234958596423
  Basis Set: CC-PVTZ
  Basis Set:
  Basis Set: CC-PVTZ
  Basis Set:
  @DF-RHF Final Energy:  -345.03852303036524
    Total Energy =                       -345.0385230303651838
  Basis Set: CC-PVTZ
  Basis Set:
  Basis Set: CC-PVTZ
  Basis Set:
  @DF-RHF Final Energy:  -345.03918780772472
    Total Energy =                       -345.0391878077246020
  Basis Set: CC-PVTZ
  Basis Set:
  Basis Set: CC-PVTZ
  Basis Set:
  @DF-RHF Final Energy:  -345.03919362247069
    Total Energy =                       -345.0391936224708616
  Basis Set: CC-PVTZ
  Basis Set:
  Charge       = 0
  Multiplicity = 1
  Basis Set: CC-PVTZ
  Basis Set:

    Orbital Energies (a.u.)
    -----------------------

    Doubly Occupied:

       1A    -20.592866     2A    -20.532780     3A    -11.364259
       4A    -11.283352     5A    -11.235622     6A    -11.215445
       7A    -11.213773     8A     -1.469408     9A     -1.364864
      10A     -1.069576    11A     -1.028679    12A     -0.917393
      13A     -0.855160    14A     -0.758314    15A     -0.704340
      16A     -0.683289    17A     -0.663136    18A     -0.621428
      19A     -0.612380    20A     -0.569817    21A     -0.547599
      22A     -0.533738    23A     -0.521754    24A     -0.516829
      25A     -0.497292    26A     -0.491055    27A     -0.454350
      28A     -0.438013

  @DF-RHF Final Energy:  -345.03919414562057

   => Energetics <=

    Nuclear Repulsion Energy =            319.4764179443411081
    One-Electron Energy =               -1103.5181997578001756
    Two-Electron Energy =                 439.0025876678380428
    DFT Exchange-Correlation Energy =       0.0000000000000000
    Empirical Dispersion Energy =           0.0000000000000000
    PCM Polarization Energy =               0.0000000000000000
    EFP Energy =                            0.0000000000000000
    Total Energy =                       -345.0391941456209679
    Molecular point group: c1
  Basis Set: CC-PVTZ
  Basis Set:

  -Total Gradient:
     Atom            X                  Y                   Z
    ------   -----------------  -----------------  -----------------
       1       -0.000015926719     0.000012724790     0.000041048816
       2       -0.000962520294    -0.001458386533     0.000607219723
       3       -0.000044950320    -0.000079067042     0.000008958992
       4        0.001705254363     0.002554442992    -0.000660057863
       5        0.000029483517     0.000006015816     0.000000689482
       6        0.000027694159     0.000014474884    -0.000005824587
       7        0.000007166863     0.000020608895    -0.000014464806
       8       -0.000002935490    -0.000006051007    -0.000000805883
       9        0.000001334243    -0.000009874417    -0.000005374807
      10       -0.000006641170    -0.000002552256     0.000011348926
      11       -0.001794577758    -0.002605517200    -0.001105391368
      12       -0.000011500708     0.000009609060    -0.000004077546
      13        0.001073558636     0.001542330788     0.001130806770
      14       -0.000009971423     0.000009569033    -0.000004144978
      15        0.000001573382    -0.000004720120    -0.000001553730
      16       -0.000001783329    -0.000003227201     0.000001918643
      17        0.000004742048    -0.000000380485    -0.000000295786

  **** Optimization is complete! (in 7 steps) ****
    Final optimized geometry and variables:
    Molecular point group: c1

    Geometry (in Angstrom), charge = 0, multiplicity = 1:

    O           -0.280642501560     0.002968181311    -1.228411844687
    C            0.340227317891    -0.060400060651    -0.221925328307
    C            1.585396868962    -0.887857210497    -0.023097408223
    O            0.027106230542     0.603778365870     0.876941542096
    C            2.006549718432    -1.656172564616    -1.265395459820
    H            1.395959584997    -1.556628455176     0.809289564400
    H            2.367964937691    -0.215180647446     0.309806692456
    H            1.229661546070    -2.338305291808    -1.583792661775
    H            2.902863465975    -2.229407692924    -1.061962688208
    H            2.210125929388    -0.984374164413    -2.088473581885
    C           -1.151590726747     1.400199218122     0.887671896044
    C           -2.417262017795     0.574125029053     0.988519783544
    H           -1.156159672555     2.038853746931     0.016666972569
    H           -1.039063854793     2.023671843349     1.762218463489
    H           -2.559234018902    -0.038117870163     0.110263467905
    H           -3.269812773261     1.236904953656     1.085402339024
    H           -2.384503354937    -0.064365134936     1.863467987910

  Mulliken Charges: (a.u.)
   Center  Symbol    Alpha    Beta     Spin     Total
       1     O     4.19922  4.19922  0.00000 -0.39844
       2     C     2.80187  2.80187  0.00000  0.39625
       3     C     3.09376  3.09376  0.00000 -0.18751
       4     O     4.15630  4.15630  0.00000 -0.31259
       5     C     3.13982  3.13982  0.00000 -0.27964
       6     H     0.44236  0.44236  0.00000  0.11529
       7     H     0.44114  0.44114  0.00000  0.11772
       8     H     0.44869  0.44869  0.00000  0.10263
       9     H     0.45053  0.45053  0.00000  0.09894
      10     H     0.44851  0.44851  0.00000  0.10297
      11     C     2.98708  2.98708  0.00000  0.02585
      12     C     3.15236  3.15236  0.00000 -0.30471
      13     H     0.45122  0.45122  0.00000  0.09757
      14     H     0.44483  0.44483  0.00000  0.11034
      15     H     0.43896  0.43896  0.00000  0.12207
      16     H     0.45069  0.45069  0.00000  0.09862
      17     H     0.45268  0.45268  0.00000  0.09465

   Total alpha = 28.00000, Total beta = 28.00000, Total charge = -0.00000
