  ==> Input File <==

--------------------------------------------------------------------------
set {
	reference rhf
	basis cc-pvtz
}

set_num_threads( 4 )
memory 2 gb

molecule MOL {
0 1

H	 -0.636438	 1.826045	 -2.207564
C	 0.070157	 1.962941	 -1.377612
C	 0.062554	 0.862911	 -0.350953
O	 0.767189	 2.917013	 -1.345260
C	 -1.339253	 0.577611	 0.196911
H	 0.752623	 1.125361	 0.440513
H	 0.441725	 -0.028661	 -0.845323
C	 -1.813142	 -0.849710	 -0.061612
H	 -2.032833	 1.276441	 -0.256032
H	 -1.357249	 0.782269	 1.263793
H	 -1.839268	 -1.063526	 -1.124230
H	 -2.810118	 -1.001930	 0.334000
H	 -1.159274	 -1.579980	 0.402282

	symmetry c1
}
set optking {
	frozen_dihedral = ("
		6 3 5 9
	")
}

ee = optimize('scf')
oeprop('DIPOLE', 'QUADRUPOLE', 'MULLIKEN_CHARGES')
f=open( 'psi4out.xyz', 'w' )
f.write( "13  " )
f.write( str(ee) + "\n" )
f.write( MOL.save_string_xyz() )
f.close()
--------------------------------------------------------------------------

    Molecular point group: c1
  Charge       = 0
  Multiplicity = 1
  Basis Set: CC-PVTZ
  Basis Set:
  @DF-RHF Final Energy:  -231.06596054589579
    Total Energy =                       -231.0659605458957913
    Molecular point group: c1
  Basis Set: CC-PVTZ
  Basis Set:
  Basis Set: CC-PVTZ
  Basis Set:
  @DF-RHF Final Energy:  -231.06585186376449
    Total Energy =                       -231.0658518637643795
  Basis Set: CC-PVTZ
  Basis Set:
  Basis Set: CC-PVTZ
  Basis Set:
  @DF-RHF Final Energy:  -231.06278628111949
    Total Energy =                       -231.0627862811195428
  Basis Set: CC-PVTZ
  Basis Set:
  Basis Set: CC-PVTZ
  Basis Set:
  @DF-RHF Final Energy:  -231.06627513761566
    Total Energy =                       -231.0662751376155484
  Basis Set: CC-PVTZ
  Basis Set:
  Basis Set: CC-PVTZ
  Basis Set:
  @DF-RHF Final Energy:  -231.06630495046707
    Total Energy =                       -231.0663049504669573
  Basis Set: CC-PVTZ
  Basis Set:
  Basis Set: CC-PVTZ
  Basis Set:
  @DF-RHF Final Energy:  -231.06630692220736
    Total Energy =                       -231.0663069222072181
  Basis Set: CC-PVTZ
  Basis Set:
  Basis Set: CC-PVTZ
  Basis Set:
  @DF-RHF Final Energy:  -231.06630804884364
    Total Energy =                       -231.0663080488438368
  Basis Set: CC-PVTZ
  Basis Set:
  Charge       = 0
  Multiplicity = 1
  Basis Set: CC-PVTZ
  Basis Set:

    Orbital Energies (a.u.)
    -----------------------

    Doubly Occupied:

       1A    -20.552111     2A    -11.322136     3A    -11.237457
       4A    -11.234690     5A    -11.223314     6A     -1.407440
       7A     -1.086102     8A     -0.977597     9A     -0.844619
      10A     -0.794285    11A     -0.676778    12A     -0.650384
      13A     -0.616394    14A     -0.590713    15A     -0.581461
      16A     -0.528799    17A     -0.509760    18A     -0.490770
      19A     -0.486490    20A     -0.413225

  @DF-RHF Final Energy:  -231.06630813913105

   => Energetics <=

    Nuclear Repulsion Energy =            170.8945524839636789
    One-Electron Energy =                -651.4726734214771113
    Two-Electron Energy =                 249.5118127983820955
    DFT Exchange-Correlation Energy =       0.0000000000000000
    Empirical Dispersion Energy =           0.0000000000000000
    PCM Polarization Energy =               0.0000000000000000
    EFP Energy =                            0.0000000000000000
    Total Energy =                       -231.0663081391313085
    Molecular point group: c1
  Basis Set: CC-PVTZ
  Basis Set:

  -Total Gradient:
     Atom            X                  Y                   Z
    ------   -----------------  -----------------  -----------------
       1        0.000001963957    -0.000003164622    -0.000002392509
       2       -0.000009257359    -0.000008305171     0.000014494051
       3        0.000298950543    -0.000766427225     0.000205709198
       4       -0.000004960310     0.000005282209     0.000002825497
       5       -0.000210160967    -0.000362696559    -0.000658710311
       6       -0.000170163154     0.000687404892    -0.000080572206
       7       -0.000008412259     0.000001560767     0.000003102665
       8        0.000000896913     0.000000793202    -0.000002731922
       9        0.000102855399     0.000443219407     0.000525265990
      10        0.000001217016     0.000003049807    -0.000005274676
      11       -0.000001635208    -0.000002101924    -0.000002537983
      12       -0.000000745994    -0.000001495145     0.000001747300
      13       -0.000000548578     0.000002880365    -0.000000925094

  **** Optimization is complete! (in 8 steps) ****
    Final optimized geometry and variables:
    Molecular point group: c1

    Geometry (in Angstrom), charge = 0, multiplicity = 1:

    H           -0.204185733271     0.777929940813    -1.591987624882
    C            0.527778467944     0.883085476788    -0.779799753812
    C            0.513703983175    -0.226816430328     0.236163690356
    O            1.251189350539     1.817127595651    -0.752086634065
    C           -0.904903042303    -0.514565118535     0.775809100604
    H            1.203033921840     0.038282028446     1.025198543976
    H            0.907725066127    -1.109032832675    -0.261882587013
    C           -1.374682259605    -1.945804349191     0.537857716808
    H           -1.616640481305     0.172889208070     0.328265520935
    H           -0.924056682673    -0.301406361026     1.837297253033
    H           -1.407746923962    -2.176363733573    -0.521741273458
    H           -2.367426315013    -2.102744316381     0.942641313576
    H           -0.706107273408    -2.657572889452     1.009745243722

  Mulliken Charges: (a.u.)
   Center  Symbol    Alpha    Beta     Spin     Total
       1     H     0.46679  0.46679  0.00000  0.06642
       2     C     2.90334  2.90334  0.00000  0.19332
       3     C     3.08552  3.08552  0.00000 -0.17105
       4     O     4.16385  4.16385  0.00000 -0.32771
       5     C     3.09773  3.09773  0.00000 -0.19546
       6     H     0.43876  0.43876  0.00000  0.12248
       7     H     0.44951  0.44951  0.00000  0.10098
       8     C     3.14608  3.14608  0.00000 -0.29215
       9     H     0.45175  0.45175  0.00000  0.09650
      10     H     0.44306  0.44306  0.00000  0.11388
      11     H     0.45490  0.45490  0.00000  0.09019
      12     H     0.44682  0.44682  0.00000  0.10635
      13     H     0.45188  0.45188  0.00000  0.09624

   Total alpha = 20.00000, Total beta = 20.00000, Total charge = -0.00000
