  ==> Input File <==

--------------------------------------------------------------------------
set {
	reference rhf
	basis cc-pvtz
}

set_num_threads( 4 )
memory 2 gb

molecule MOL {
0 1

H	 -0.171879	 0.813433	 -2.540478
C	 -0.927841	 0.922060	 -1.769528
O	 -0.775228	 0.000056	 -0.739966
H	 -1.893476	 0.732748	 -2.216585
H	 -0.915453	 1.947470	 -1.414544
C	 0.406133	 -0.000384	 0.036994
C	 1.526415	 -0.003194	 -0.997339
C	 0.498772	 1.259027	 0.900673
C	 0.495883	 -1.257378	 0.904465
H	 1.452279	 0.872071	 -1.630204
H	 1.451276	 -0.881020	 -1.626529
H	 2.497919	 -0.002741	 -0.517601
H	 0.368981	 2.144239	 0.289753
H	 1.470064	 1.313479	 1.377660
H	 -0.248448	 1.271586	 1.684297
H	 0.363971	 -2.144195	 0.296316
H	 1.467114	 -1.312636	 1.381470
H	 -0.251246	 -1.265768	 1.688235

	symmetry c1
}
set optking {
	frozen_dihedral = ("
		2 3 6 7
	")
}

ee = optimize('scf')
oeprop('DIPOLE', 'QUADRUPOLE', 'MULLIKEN_CHARGES')
f=open( 'psi4out.xyz', 'w' )
f.write( "18  " )
f.write( str(ee) + "\n" )
f.write( MOL.save_string_xyz() )
f.close()
--------------------------------------------------------------------------

    Molecular point group: c1
  Charge       = 0
  Multiplicity = 1
  Basis Set: CC-PVTZ
  Basis Set:
  @DF-RHF Final Energy:  -271.26700247490118
    Total Energy =                       -271.2670024749009485
    Molecular point group: c1
  Basis Set: CC-PVTZ
  Basis Set:
  Basis Set: CC-PVTZ
  Basis Set:
  @DF-RHF Final Energy:  -271.27210570538563
    Total Energy =                       -271.2721057053855702
  Basis Set: CC-PVTZ
  Basis Set:
  Basis Set: CC-PVTZ
  Basis Set:
  @DF-RHF Final Energy:  -271.27559997278797
    Total Energy =                       -271.2755999727879725
  Basis Set: CC-PVTZ
  Basis Set:
  Basis Set: CC-PVTZ
  Basis Set:
  @DF-RHF Final Energy:  -271.27630315962307
    Total Energy =                       -271.2763031596227847
  Basis Set: CC-PVTZ
  Basis Set:
  Basis Set: CC-PVTZ
  Basis Set:
  @DF-RHF Final Energy:  -271.27649611879389
    Total Energy =                       -271.2764961187936024
  Basis Set: CC-PVTZ
  Basis Set:
  Basis Set: CC-PVTZ
  Basis Set:
  @DF-RHF Final Energy:  -271.27658496076663
    Total Energy =                       -271.2765849607668542
  Basis Set: CC-PVTZ
  Basis Set:
  Basis Set: CC-PVTZ
  Basis Set:
  @DF-RHF Final Energy:  -271.27661852191102
    Total Energy =                       -271.2766185219107911
  Basis Set: CC-PVTZ
  Basis Set:
  Charge       = 0
  Multiplicity = 1
  Basis Set: CC-PVTZ
  Basis Set:

    Orbital Energies (a.u.)
    -----------------------

    Doubly Occupied:

       1A    -20.540380     2A    -11.280177     3A    -11.258343
       4A    -11.208525     5A    -11.205675     6A    -11.201943
       7A     -1.373421     8A     -1.074638     9A     -0.947814
      10A     -0.939824    11A     -0.913215    12A     -0.753429
      13A     -0.656851    14A     -0.646921    15A     -0.639679
      16A     -0.592598    17A     -0.575433    18A     -0.553165
      19A     -0.534598    20A     -0.525427    21A     -0.515244
      22A     -0.489778    23A     -0.487469    24A     -0.441353
      25A     -0.406537

  @DF-RHF Final Energy:  -271.27661853378828

   => Energetics <=

    Nuclear Repulsion Energy =            272.6952571806679657
    One-Electron Energy =                -908.4188763606491648
    Two-Electron Energy =                 364.4470006461929756
    DFT Exchange-Correlation Energy =       0.0000000000000000
    Empirical Dispersion Energy =           0.0000000000000000
    PCM Polarization Energy =               0.0000000000000000
    EFP Energy =                            0.0000000000000000
    Total Energy =                       -271.2766185337881666
    Molecular point group: c1
  Basis Set: CC-PVTZ
  Basis Set:

  -Total Gradient:
     Atom            X                  Y                   Z
    ------   -----------------  -----------------  -----------------
       1       -0.000008272315    -0.000004510949     0.000006108601
       2        0.000273188295    -0.000513960156    -0.000524689039
       3       -0.000385005054     0.001028642242     0.000677312808
       4       -0.000000276119     0.000003288610    -0.000009439291
       5       -0.000008942566    -0.000007572646    -0.000017368802
       6        0.000177233881    -0.001165210691    -0.000096530374
       7       -0.000061300104     0.000646125846    -0.000071113884
       8       -0.000002725290     0.000033441692     0.000030917487
       9        0.000026169491    -0.000018290808    -0.000019499883
      10        0.000005774086     0.000002563727     0.000012997157
      11        0.000010752110     0.000005264661    -0.000031167182
      12       -0.000023915607    -0.000015068911     0.000010202034
      13        0.000011145896    -0.000009126313     0.000018099641
      14       -0.000015863828     0.000003824422     0.000003702268
      15       -0.000003698063     0.000031971292     0.000012436168
      16       -0.000009325728    -0.000029633618     0.000018334585
      17        0.000003629159    -0.000012199036    -0.000020746763
      18        0.000011431755     0.000020450637     0.000000444474

  **** Optimization is complete! (in 8 steps) ****
    Final optimized geometry and variables:
    Molecular point group: c1

    Geometry (in Angstrom), charge = 0, multiplicity = 1:

    H           -0.628344589109     0.484557236498    -2.307683336258
    C           -1.236972189048     0.697536623944    -1.435083820354
    O           -0.983126397450    -0.181347710361    -0.387851892423
    H           -2.274929703784     0.568115492240    -1.707332526024
    H           -1.088713035345     1.736163829506    -1.155912515615
    C            0.259181289446    -0.133128605154     0.286952178717
    C            1.436648442893    -0.151053478807    -0.688936030308
    C            0.324672256101     1.104818990992     1.184183904258
    C            0.270092208883    -1.395671032234     1.141161466183
    H            1.499580088647     0.761675576817    -1.268194201767
    H            1.351773502033    -0.986530903819    -1.373819730284
    H            2.366098166134    -0.254924798605    -0.142480495440
    H            0.325992297568     2.021579799260     0.607643536047
    H            1.229743665240     1.093591531448     1.780230467101
    H           -0.526141342384     1.125550767021     1.853928829649
    H            0.218391053333    -2.275111149767     0.511671342826
    H            1.170902896481    -1.450913947933     1.740843731235
    H           -0.586720383928    -1.404249934282     1.802756982399

  Mulliken Charges: (a.u.)
   Center  Symbol    Alpha    Beta     Spin     Total
       1     H     0.46765  0.46765  0.00000  0.06470
       2     C     3.04447  3.04447  0.00000 -0.08894
       3     O     4.19088  4.19088  0.00000 -0.38176
       4     H     0.44118  0.44118  0.00000  0.11764
       5     H     0.47030  0.47030  0.00000  0.05940
       6     C     2.87404  2.87404  0.00000  0.25192
       7     C     3.16933  3.16933  0.00000 -0.33865
       8     C     3.15783  3.15783  0.00000 -0.31566
       9     C     3.14141  3.14141  0.00000 -0.28282
      10     H     0.44787  0.44787  0.00000  0.10427
      11     H     0.44481  0.44481  0.00000  0.11038
      12     H     0.44634  0.44634  0.00000  0.10732
      13     H     0.44955  0.44955  0.00000  0.10090
      14     H     0.45059  0.45059  0.00000  0.09882
      15     H     0.44666  0.44666  0.00000  0.10669
      16     H     0.44978  0.44978  0.00000  0.10044
      17     H     0.45929  0.45929  0.00000  0.08142
      18     H     0.44803  0.44803  0.00000  0.10395

   Total alpha = 25.00000, Total beta = 25.00000, Total charge =  0.00000
