                              Psi4 1.0.54 Driver

  ==> Input File <==

--------------------------------------------------------------------------
set {
	reference rhf
	basis cc-pvtz
}

set_num_threads( 4 )
memory 2 gb

molecule MOL {
0 1

H	 -4.133918	 0.664950	 -0.382454
O	 -3.515113	 -0.019339	 -0.206321
C	 -2.302264	 0.528872	 0.237390
C	 -1.175688	 -0.398187	 -0.171891
H	 -2.148018	 1.514076	 -0.197759
H	 -2.310727	 0.646384	 1.319032
C	 0.196029	 0.106276	 0.266738
H	 -1.201873	 -0.515469	 -1.250677
H	 -1.365975	 -1.378728	 0.252664
C	 1.330220	 -0.826136	 -0.155230
H	 0.359542	 1.097229	 -0.145561
H	 0.212134	 0.218135	 1.348778
C	 2.719700	 -0.407669	 0.328325
H	 1.339388	 -0.911200	 -1.239363
H	 1.119001	 -1.821953	 0.224128
C	 3.241564	 0.893452	 -0.276737
H	 3.418299	 -1.204729	 0.093035
H	 2.711776	 -0.323368	 1.411960
H	 3.254204	 0.841071	 -1.360784
H	 2.634460	 1.745075	 0.005842
H	 4.254264	 1.092401	 0.054971

	symmetry c1
}
set optking {
	frozen_dihedral = ("
		1 2 3 5
	")
}

ee,wfn = optimize('scf', return_wfn=True)
oeprop( wfn, 'DIPOLE', 'QUADRUPOLE', 'MULLIKEN_CHARGES')
f=open( 'psi4out.xyz', 'w' )
f.write( "21  " )
f.write( str(ee) + "\n" )
f.write( MOL.save_string_xyz() )
f.close()
--------------------------------------------------------------------------

    Molecular point group: c1
  Charge       = 0
  Multiplicity = 1
  Basis Set: CC-PVTZ
  Basis Set:
  @DF-RHF Final Energy:  -310.33217221357728
    Total Energy =                       -310.3321722135774507
    Molecular point group: c1
  Basis Set: CC-PVTZ
  Basis Set:
  Basis Set: CC-PVTZ
  Basis Set:
  @DF-RHF Final Energy:  -310.33222919961764
    Total Energy =                       -310.3322291996177000
  Basis Set: CC-PVTZ
  Basis Set:
  Basis Set: CC-PVTZ
  Basis Set:
  @DF-RHF Final Energy:  -310.33225593216497
    Total Energy =                       -310.3322559321649123
  Basis Set: CC-PVTZ
  Basis Set:
  Basis Set: CC-PVTZ
  Basis Set:
  @DF-RHF Final Energy:  -310.33225456363050
    Total Energy =                       -310.3322545636304426
  Basis Set: CC-PVTZ
  Basis Set:
  Charge       = 0
  Multiplicity = 1
  Basis Set: CC-PVTZ
  Basis Set:

    Orbital Energies (a.u.)
    -----------------------

    Doubly Occupied:

       1A    -20.544743     2A    -11.265171     3A    -11.213259
       4A    -11.213162     5A    -11.211430     6A    -11.208923
       7A    -11.206304     8A     -1.362445     9A     -1.087520
      10A     -1.034502    11A     -0.955623    12A     -0.876804
      13A     -0.808418    14A     -0.779275    15A     -0.699626
      16A     -0.657930    17A     -0.624106    18A     -0.605211
      19A     -0.590182    20A     -0.572607    21A     -0.536647
      22A     -0.521941    23A     -0.512368    24A     -0.485243
      25A     -0.482187    26A     -0.461495    27A     -0.456583
      28A     -0.450528    29A     -0.430489

  @DF-RHF Final Energy:  -310.33225650255997

   => Energetics <=

    Nuclear Repulsion Energy =            312.8097408587605059
    One-Electron Energy =               -1040.5745463151233707
    Two-Electron Energy =                 417.4325489538030638
    DFT Exchange-Correlation Energy =       0.0000000000000000
    Empirical Dispersion Energy =           0.0000000000000000
    PCM Polarization Energy =               0.0000000000000000
    EFP Energy =                            0.0000000000000000
    Total Energy =                       -310.3322565025598010
    Molecular point group: c1
  Basis Set: CC-PVTZ
  Basis Set:

  -Total Gradient:
     Atom            X                  Y                   Z
    ------   -----------------  -----------------  -----------------
       1        0.000424744540     0.000048309791    -0.001461452951
       2       -0.000735069631     0.000073817059     0.002044397687
       3        0.000854302732    -0.000703784467    -0.001628074531
       4       -0.000021905695     0.000015246899     0.000023035902
       5       -0.000573549649     0.000555549882     0.001027102027
       6        0.000035720825    -0.000000465118     0.000000812454
       7        0.000000346284     0.000003174520    -0.000017246376
       8       -0.000004612465     0.000008570620     0.000008044513
       9       -0.000005193636     0.000002237733    -0.000002357933
      10        0.000004879179     0.000002283126     0.000013148587
      11        0.000002953768     0.000002191021     0.000001973259
      12        0.000001856673    -0.000003309607    -0.000010114752
      13        0.000012518371    -0.000011183672    -0.000006336666
      14        0.000000618105     0.000001933814     0.000004952058
      15       -0.000005557798     0.000000542205    -0.000001665738
      16       -0.000001902628     0.000000432924     0.000003545480
      17        0.000008305483     0.000003229490     0.000001538071
      18        0.000001960463    -0.000001794687    -0.000001849043
      19        0.000001298247    -0.000001403861     0.000001987652
      20       -0.000000411288     0.000002123173    -0.000001941416
      21       -0.000001301882     0.000002299156     0.000000501715

  **** Optimization is complete! (in 5 steps) ****
    Final optimized geometry and variables:
    Molecular point group: c1

    Geometry (in Angstrom), charge = 0, multiplicity = 1:

    H           -4.161083223351     0.641576808571    -0.314376059879
    O           -3.528156727385    -0.031831459229    -0.152166525462
    C           -2.300864187597     0.532495262616     0.233118328800
    C           -1.174837328160    -0.394085071346    -0.179632067328
    H           -2.169783406297     1.511063227050    -0.221998545277
    H           -2.283778435039     0.677892837361     1.311066328035
    C            0.197879431882     0.108924348655     0.257297926338
    H           -1.202856272852    -0.514261559172    -1.258061792867
    H           -1.365415078910    -1.373774079248     0.247198896069
    C            1.330837449798    -0.824978865473    -0.164483072242
    H            0.362448643792     1.099563423986    -0.155822252890
    H            0.214451610808     0.221651119670     1.339056562554
    C            2.720229503132    -0.411122804494     0.323241453287
    H            1.342343491214    -0.907471841830    -1.248790600604
    H            1.116183291653    -1.821111758433     0.212022813609
    C            3.245877020899     0.891102269478    -0.275997714539
    H            3.417738248439    -1.208625081039     0.086318974857
    H            2.710372096742    -0.330755336480     1.407107458087
    H            3.259935056780     0.842865966860    -1.360219019574
    H            2.640317230933     1.742961402889     0.009111838392
    H            4.258538527368     1.086491990466     0.057873160152

  Mulliken Charges: (a.u.)
   Center  Symbol    Alpha    Beta     Spin     Total
       1     H     0.39374  0.39374  0.00000  0.21253
       2     O     4.19943  4.19943  0.00000 -0.39885
       3     C     2.96513  2.96513  0.00000  0.06974
       4     C     3.08174  3.08174  0.00000 -0.16348
       5     H     0.47546  0.47546  0.00000  0.04908
       6     H     0.47225  0.47225  0.00000  0.05549
       7     C     3.10352  3.10352  0.00000 -0.20703
       8     H     0.45295  0.45295  0.00000  0.09411
       9     H     0.44987  0.44987  0.00000  0.10026
      10     C     3.09394  3.09394  0.00000 -0.18788
      11     H     0.45415  0.45415  0.00000  0.09171
      12     H     0.45480  0.45480  0.00000  0.09040
      13     C     3.08993  3.08993  0.00000 -0.17986
      14     H     0.45336  0.45336  0.00000  0.09329
      15     H     0.44862  0.44862  0.00000  0.10277
      16     C     3.15243  3.15243  0.00000 -0.30486
      17     H     0.44842  0.44842  0.00000  0.10316
      18     H     0.45482  0.45482  0.00000  0.09037
      19     H     0.45480  0.45480  0.00000  0.09040
      20     H     0.45427  0.45427  0.00000  0.09146
      21     H     0.44639  0.44639  0.00000  0.10721

   Total alpha = 29.00000, Total beta = 29.00000, Total charge = -0.00000

*** Psi4 exiting successfully. Buy a developer a beer!
