  ==> Input File <==

--------------------------------------------------------------------------
set {
	reference rhf
	basis 6-31G*
}

set_num_threads( 4 )
memory 2 gb

molecule MOL {
0 1

O	 -0.598131	 0.495569	 -1.937912
C	 -0.944686	 0.823378	 -0.849467
C	 -1.777571	 2.037327	 -0.538054
O	 -0.632575	 0.154573	 0.251549
H	 -1.233486	 2.692593	 0.132428
H	 -2.014731	 2.558803	 -1.453287
H	 -2.689249	 1.736567	 -0.034921
C	 0.160891	 -1.019931	 0.106212
C	 1.589627	 -0.672828	 0.480843
H	 0.089836	 -1.367806	 -0.916050
H	 -0.238459	 -1.792301	 0.749618
C	 2.246377	 0.346236	 -0.452210
H	 2.163194	 -1.597435	 0.473358
H	 1.604769	 -0.303424	 1.502885
C	 3.691736	 0.652107	 -0.061850
H	 2.219579	 -0.032311	 -1.472055
H	 1.666466	 1.263317	 -0.447249
H	 4.134505	 1.377213	 -0.737283
H	 4.305508	 -0.243868	 -0.089969
H	 3.748266	 1.059562	 0.943567

	symmetry c1
}
set optking {
	frozen_dihedral = ("
		2 4 8 10
	")
}

ee = optimize('scf')
oeprop('DIPOLE', 'QUADRUPOLE', 'MULLIKEN_CHARGES')
f=open( 'psi4out.xyz', 'w' )
f.write( "20  " )
f.write( str(ee) + "\n" )
f.write( MOL.save_string_xyz() )
f.close()
--------------------------------------------------------------------------

    Molecular point group: c1
  Charge       = 0
  Multiplicity = 1
  Basis Set: 6-31G*
  Basis Set:
  @DF-RHF Final Energy:  -383.94138097469391
    Total Energy =                       -383.9413809746937432
    Molecular point group: c1
  Basis Set: 6-31G*
  Basis Set:
  Basis Set: 6-31G*
  Basis Set:
  @DF-RHF Final Energy:  -383.94294360547758
    Total Energy =                       -383.9429436054778080
  Basis Set: 6-31G*
  Basis Set:
  Basis Set: 6-31G*
  Basis Set:
  @DF-RHF Final Energy:  -383.94136576956220
    Total Energy =                       -383.9413657695620259
  Basis Set: 6-31G*
  Basis Set:
  Basis Set: 6-31G*
  Basis Set:
  @DF-RHF Final Energy:  -383.94336229793294
    Total Energy =                       -383.9433622979330494
  Basis Set: 6-31G*
  Basis Set:
  Basis Set: 6-31G*
  Basis Set:
  @DF-RHF Final Energy:  -383.94345214014402
    Total Energy =                       -383.9434521401439042
  Basis Set: 6-31G*
  Basis Set:
  Basis Set: 6-31G*
  Basis Set:
  @DF-RHF Final Energy:  -383.94346684603380
    Total Energy =                       -383.9434668460335160
  Basis Set: 6-31G*
  Basis Set:
  Basis Set: 6-31G*
  Basis Set:
  @DF-RHF Final Energy:  -383.94347132285475
    Total Energy =                       -383.9434713228545206
  Basis Set: 6-31G*
  Basis Set:
  Charge       = 0
  Multiplicity = 1
  Basis Set: 6-31G*
  Basis Set:

    Orbital Energies (a.u.)
    -----------------------

    Doubly Occupied:

       1A    -20.600798     2A    -20.543548     3A    -11.375804
       4A    -11.281436     5A    -11.232899     6A    -11.223952
       7A    -11.217658     8A    -11.211112     9A     -1.465459
      10A     -1.362453    11A     -1.082804    12A     -1.028242
      13A     -0.980016    14A     -0.886322    15A     -0.808172
      16A     -0.767557    17A     -0.694049    18A     -0.680961
      19A     -0.661412    20A     -0.629648    21A     -0.601600
      22A     -0.593317    23A     -0.571935    24A     -0.547924
      25A     -0.546840    26A     -0.529687    27A     -0.503918
      28A     -0.494871    29A     -0.474559    30A     -0.469015
      31A     -0.440692    32A     -0.437059

  @DF-RHF Final Energy:  -383.94347210277834

   => Energetics <=

    Nuclear Repulsion Energy =            393.3555726985222805
    One-Electron Energy =               -1302.7066529456581065
    Two-Electron Energy =                 525.4076081443573685
    DFT Exchange-Correlation Energy =       0.0000000000000000
    Empirical Dispersion Energy =           0.0000000000000000
    PCM Polarization Energy =               0.0000000000000000
    EFP Energy =                            0.0000000000000000
    Total Energy =                       -383.9434721027784008
    Molecular point group: c1
  Basis Set: 6-31G*
  Basis Set:

  -Total Gradient:
     Atom            X                  Y                   Z
    ------   -----------------  -----------------  -----------------
       1        0.000009263117    -0.000000819372    -0.000011655474
       2        0.000539303161     0.000343123164     0.000075358498
       3        0.000010181028    -0.000001829280     0.000006032933
       4       -0.000955508269    -0.000686211502    -0.000011482053
       5       -0.000000846277     0.000002972098     0.000001749123
       6        0.000004075139    -0.000004506462    -0.000000711752
       7        0.000000172442     0.000000089033     0.000000474391
       8        0.000995461899     0.000763071188    -0.000274881379
       9        0.000030489300    -0.000007913572    -0.000017843134
      10       -0.000600556618    -0.000445599501     0.000195696619
      11       -0.000022006502     0.000030384414    -0.000004247838
      12       -0.000009273108     0.000058068479     0.000059661441
      13       -0.000001907722    -0.000022260227     0.000010928864
      14        0.000022381666     0.000014525166    -0.000008782075
      15       -0.000012576825    -0.000028095256    -0.000010946258
      16        0.000010834641    -0.000016888007     0.000023925451
      17       -0.000010275968     0.000012647885    -0.000023958056
      18       -0.000011180939     0.000002743661     0.000001109900
      19        0.000016379372    -0.000003501369    -0.000002977721
      20       -0.000014409538    -0.000010000540    -0.000007451478

  **** Optimization is complete! (in 8 steps) ****
    Final optimized geometry and variables:
    Molecular point group: c1

    Geometry (in Angstrom), charge = 0, multiplicity = 1:

    O           -1.169342339607     0.173518140994    -1.597495458307
    C           -1.482297386876     0.473341086002    -0.490949856273
    C           -2.364334820873     1.640384598761    -0.136820082486
    O           -1.102442084312    -0.181708072257     0.598291857464
    H           -1.831382193397     2.314984323838     0.523261612349
    H           -2.659002447847     2.158485621297    -1.037131405654
    H           -3.241284979602     1.287681597693     0.393538458322
    C           -0.259901982604    -1.326886434544     0.477010717959
    C            1.172878873154    -1.006943351966     0.873931825651
    H           -0.323444922625    -1.711381924607    -0.528838574911
    H           -0.678633747836    -2.056552832367     1.156842484194
    C            1.893877428485    -0.024650328644    -0.050896640679
    H            1.716395558982    -1.950040387375     0.894815642707
    H            1.175775684572    -0.624594160782     1.891618545712
    C            3.349434573396     0.195672756696     0.359750098383
    H            1.851835309625    -0.389973674585    -1.072866129994
    H            1.374077807650     0.928719883214    -0.046585221442
    H            3.839199881217     0.902283203893    -0.302594437287
    H            3.912638137063    -0.732844611986     0.327117636614
    H            3.418006850461     0.587620194384     1.370750114993

  Mulliken Charges: (a.u.)
   Center  Symbol    Alpha    Beta     Spin     Total
       1     O     4.28509  4.28509  0.00000 -0.57019
       2     C     2.61647  2.61647  0.00000  0.76706
       3     C     3.28215  3.28215  0.00000 -0.56430
       4     O     4.31075  4.31075  0.00000 -0.62151
       5     H     0.40102  0.40102  0.00000  0.19796
       6     H     0.39721  0.39721  0.00000  0.20558
       7     H     0.40021  0.40021  0.00000  0.19958
       8     C     3.01135  3.01135  0.00000 -0.02271
       9     C     3.16183  3.16183  0.00000 -0.32367
      10     H     0.39760  0.39760  0.00000  0.20480
      11     H     0.41073  0.41073  0.00000  0.17854
      12     C     3.15568  3.15568  0.00000 -0.31136
      13     H     0.42042  0.42042  0.00000  0.15917
      14     H     0.41588  0.41588  0.00000  0.16823
      15     C     3.24051  3.24051  0.00000 -0.48101
      16     H     0.41259  0.41259  0.00000  0.17482
      17     H     0.41999  0.41999  0.00000  0.16003
      18     H     0.41684  0.41684  0.00000  0.16633
      19     H     0.42183  0.42183  0.00000  0.15635
      20     H     0.42185  0.42185  0.00000  0.15629

   Total alpha = 32.00000, Total beta = 32.00000, Total charge =  0.00000
