  ==> Input File <==

--------------------------------------------------------------------------
set {
	reference rhf
	basis 6-31G*
}

set_num_threads( 4 )
memory 2 gb

molecule MOL {
0 1

O	 -1.309579	 0.572776	 2.620489
C	 -0.570638	 1.247219	 1.969699
C	 0.695672	 0.660036	 1.371383
C	 -0.869630	 2.701465	 1.681344
C	 0.379448	 -0.143569	 0.099626
H	 1.136544	 0.003750	 2.113828
H	 1.411715	 1.445228	 1.146034
C	 1.631333	 -0.777471	 -0.511575
H	 -0.349139	 -0.905247	 0.353382
H	 -0.089168	 0.506584	 -0.637562
C	 2.915987	 -0.544314	 0.291766
H	 1.766672	 -0.399098	 -1.523130
H	 1.471257	 -1.849544	 -0.605828
C	 3.373361	 0.914346	 0.347591
H	 3.708709	 -1.142521	 -0.150311
H	 2.780642	 -0.921148	 1.303579
H	 3.506512	 1.320010	 -0.651625
H	 4.322697	 0.999599	 0.867103
H	 2.660624	 1.545032	 0.868198
H	 -0.129004	 3.330229	 2.168575
H	 -1.854174	 2.956770	 2.047783
H	 -0.808833	 2.902473	 0.615650

	symmetry c1
}
set optking {
	frozen_dihedral = ("
		3 5 8 12
	")
}

ee = optimize('scf')
oeprop('DIPOLE', 'QUADRUPOLE', 'MULLIKEN_CHARGES')
f=open( 'psi4out.xyz', 'w' )
f.write( "22  " )
f.write( str(ee) + "\n" )
f.write( MOL.save_string_xyz() )
f.close()
--------------------------------------------------------------------------

    Molecular point group: c1
  Charge       = 0
  Multiplicity = 1
  Basis Set: 6-31G*
  Basis Set:
  @DF-RHF Final Energy:  -348.05827860129642
    Total Energy =                       -348.0582786012961947
    Molecular point group: c1
  Basis Set: 6-31G*
  Basis Set:
  Basis Set: 6-31G*
  Basis Set:
  @DF-RHF Final Energy:  -348.07925469439846
    Total Energy =                       -348.0792546943984007
  Basis Set: 6-31G*
  Basis Set:
  Basis Set: 6-31G*
  Basis Set:
  @DF-RHF Final Energy:  -348.08411777133040
    Total Energy =                       -348.0841177713300567
  Basis Set: 6-31G*
  Basis Set:
  Basis Set: 6-31G*
  Basis Set:
  @DF-RHF Final Energy:  -348.08478686070362
    Total Energy =                       -348.0847868607038436
  Basis Set: 6-31G*
  Basis Set:
  @DF-RHF Final Energy:  -348.08325628013097
    Total Energy =                       -348.0832562801310246
  @DF-RHF Final Energy:  -348.08580255538959
    Total Energy =                       -348.0858025553894777
  @DF-RHF Final Energy:  -348.08526393914144
    Total Energy =                       -348.0852639391414414
  @DF-RHF Final Energy:  -348.08602451540941
    Total Energy =                       -348.0860245154093491
  Basis Set: 6-31G*
  Basis Set:
  @DF-RHF Final Energy:  -348.08579637096051
    Total Energy =                       -348.0857963709604519
  Basis Set: 6-31G*
  Basis Set:
  Basis Set: 6-31G*
  Basis Set:
  @DF-RHF Final Energy:  -348.08607063045673
    Total Energy =                       -348.0860706304566747
  Basis Set: 6-31G*
  Basis Set:
  Basis Set: 6-31G*
  Basis Set:
  @DF-RHF Final Energy:  -348.08610937880485
    Total Energy =                       -348.0861093788047356
  Basis Set: 6-31G*
  Basis Set:
  Charge       = 0
  Multiplicity = 1
  Basis Set: 6-31G*
  Basis Set:

    Orbital Energies (a.u.)
    -----------------------

    Doubly Occupied:

       1A    -20.547443     2A    -11.324516     3A    -11.230451
       4A    -11.228739     5A    -11.228316     6A    -11.222990
       7A    -11.221964     8A    -11.214660     9A     -1.393288
      10A     -1.091156    11A     -1.042407    12A     -0.998682
      13A     -0.943955    14A     -0.860651    15A     -0.781133
      16A     -0.733689    17A     -0.660004    18A     -0.653051
      19A     -0.620099    20A     -0.610330    21A     -0.603061
      22A     -0.583993    23A     -0.559841    24A     -0.550167
      25A     -0.536079    26A     -0.520203    27A     -0.506439
      28A     -0.489717    29A     -0.464545    30A     -0.456760
      31A     -0.455216    32A     -0.396911

  @DF-RHF Final Energy:  -348.08611013043344

   => Energetics <=

    Nuclear Repulsion Energy =            378.6168760898625578
    One-Electron Energy =               -1221.9450608038132486
    Two-Electron Energy =                 495.2420745835171374
    DFT Exchange-Correlation Energy =       0.0000000000000000
    Empirical Dispersion Energy =           0.0000000000000000
    PCM Polarization Energy =               0.0000000000000000
    EFP Energy =                            0.0000000000000000
    Total Energy =                       -348.0861101304335534
    Molecular point group: c1
  Basis Set: 6-31G*
  Basis Set:

  -Total Gradient:
     Atom            X                  Y                   Z
    ------   -----------------  -----------------  -----------------
       1       -0.000007743035     0.000009441210    -0.000004337339
       2        0.000014825761     0.000003185586     0.000015102110
       3        0.000093935192     0.000477697927    -0.000256103703
       4       -0.000006953264     0.000000169713     0.000001931219
       5       -0.000045440611    -0.000535496737     0.000445394683
       6        0.000002445516     0.000004047283    -0.000004987500
       7       -0.000071592137    -0.000029946415     0.000005670435
       8       -0.000430997891    -0.000415303474    -0.000420402866
       9        0.000012251353    -0.000021895843     0.000002547972
      10        0.000005463328    -0.000003250861     0.000000594562
      11        0.000004970358     0.000027525073    -0.000069041460
      12        0.000401991328     0.000512980347     0.000291816610
      13        0.000001792757    -0.000012231516     0.000004100182
      14       -0.000022097057     0.000056665147     0.000010650241
      15       -0.000030160363    -0.000024915444    -0.000031266234
      16       -0.000002954726     0.000003289729     0.000017421921
      17        0.000023514225    -0.000010647530    -0.000002730962
      18       -0.000020908083    -0.000002254979     0.000017716931
      19        0.000085175914    -0.000034658579    -0.000020675596
      20       -0.000002054462    -0.000006954565    -0.000001953027
      21       -0.000004026032     0.000003959111    -0.000000992227
      22       -0.000001438066    -0.000001405182    -0.000000455959

  **** Optimization is complete! (in 12 steps) ****
    Final optimized geometry and variables:
    Molecular point group: c1

    Geometry (in Angstrom), charge = 0, multiplicity = 1:

    O           -2.290231242562    -0.103609648180     1.556601957774
    C           -1.533766384401     0.637641717018     1.006613318112
    C           -0.177931974219     0.150976682551     0.522284834882
    C           -1.889167100558     2.084739247695     0.746188367215
    C           -0.346781574858    -0.610745225416    -0.805217488607
    H            0.217164903248    -0.506698070066     1.286706510562
    H            0.499076342264     0.989024176173     0.409332506292
    C            0.922170814643    -1.245102623302    -1.447505381559
    H           -1.075051025349    -1.393020382902    -0.624896799409
    H           -0.804785158725     0.059077971055    -1.528362580369
    C            2.262717291338    -1.159988171783    -0.696607189604
    H            1.069983411967    -0.810985390893    -2.432527804275
    H            0.705576140725    -2.294275691066    -1.620256081011
    C            3.024528256379     0.152760169579    -0.895850615528
    H            2.893518511718    -1.966989073858    -1.059848884503
    H            2.122718182280    -1.352462490206     0.362512760681
    H            3.253629801829     0.305859457902    -1.946750187774
    H            3.964707902558     0.139744298618    -0.352898298622
    H            2.463991450845     1.016439767132    -0.556192698986
    H           -1.245032892103     2.730405945960     1.337346024534
    H           -2.920886468843     2.266167825357     1.013382852301
    H           -1.727479217476     2.339648373461    -0.297107865593

  Mulliken Charges: (a.u.)
   Center  Symbol    Alpha    Beta     Spin     Total
       1     O     4.26231  4.26231  0.00000 -0.52462
       2     C     2.73695  2.73695  0.00000  0.52610
       3     C     3.20312  3.20312  0.00000 -0.40623
       4     C     3.28960  3.28960  0.00000 -0.57920
       5     C     3.16758  3.16758  0.00000 -0.33516
       6     H     0.40024  0.40024  0.00000  0.19951
       7     H     0.41491  0.41491  0.00000  0.17017
       8     C     3.15809  3.15809  0.00000 -0.31618
       9     H     0.40296  0.40296  0.00000  0.19407
      10     H     0.41883  0.41883  0.00000  0.16234
      11     C     3.15761  3.15761  0.00000 -0.31522
      12     H     0.41970  0.41970  0.00000  0.16060
      13     H     0.41512  0.41512  0.00000  0.16976
      14     C     3.24046  3.24046  0.00000 -0.48093
      15     H     0.41783  0.41783  0.00000  0.16434
      16     H     0.41960  0.41960  0.00000  0.16081
      17     H     0.42081  0.42081  0.00000  0.15838
      18     H     0.41816  0.41816  0.00000  0.16369
      19     H     0.42252  0.42252  0.00000  0.15497
      20     H     0.40687  0.40687  0.00000  0.18626
      21     H     0.39699  0.39699  0.00000  0.20603
      22     H     0.40973  0.40973  0.00000  0.18053

   Total alpha = 32.00000, Total beta = 32.00000, Total charge =  0.00000
