  ==> Input File <==

--------------------------------------------------------------------------
set {
	reference rhf
	basis 6-31G*
}

set_num_threads( 1 )
memory 2 gb

molecule MOL {
0 1

O	 3.225979	 0.970355	 -0.599647
C	 2.701189	 0.057885	 -0.047330
C	 1.245376	 -0.013843	 0.345420
O	 3.347903	 -1.046386	 0.304773
C	 0.455112	 1.231400	 -0.050772
H	 0.838542	 -0.913825	 -0.103701
H	 1.208210	 -0.175333	 1.419774
C	 -0.998893	 1.219485	 0.433193
H	 0.482531	 1.345121	 -1.130325
H	 0.957290	 2.103070	 0.354729
C	 -1.883438	 0.145884	 -0.207175
H	 -1.431207	 2.195402	 0.224832
H	 -1.019646	 1.105716	 1.516076
C	 -1.641530	 -0.005455	 -1.710364
H	 -1.700196	 -0.808424	 0.284289
H	 -2.933160	 0.377891	 -0.042162
C	 -2.523718	 -1.071928	 -2.361910
H	 -0.595130	 -0.251086	 -1.883412
H	 -1.814195	 0.951191	 -2.200992
C	 -2.273240	 -1.219445	 -3.862310
H	 -2.353171	 -2.028328	 -1.872161
H	 -3.570108	 -0.825818	 -2.193748
H	 -2.913044	 -1.982236	 -4.295215
H	 -1.242843	 -1.499783	 -4.062031
H	 -2.468588	 -0.287802	 -4.385907
C	 4.728119	 -1.109107	 -0.004993
H	 4.882018	 -1.033965	 -1.071845
H	 5.068212	 -2.067527	 0.355250
H	 5.265056	 -0.311663	 0.488280

	symmetry c1
}
set optking {
	frozen_dihedral = ("
		21 17 14 11,
		17 14 11 15,
		6 3 5 9,
		11 8 5 9,
		2 4 26 27,
		1 2 4 26,
		6 3 2 1
	")
}

ee = energy('scf')
oeprop('DIPOLE', 'QUADRUPOLE', 'MULLIKEN_CHARGES')
f=open( 'psi4out.xyz', 'w' )
f.write( "29  " )
f.write( str(ee) + "\n" )
f.write( MOL.save_string_xyz() )
f.close()
--------------------------------------------------------------------------

    Molecular point group: c1

    Geometry (in Angstrom), charge = 0, multiplicity = 1:

       Center              X                  Y                   Z               Mass
    ------------   -----------------  -----------------  -----------------  -----------------
           O          2.596810483899     1.062286160349     0.115300773804    15.994914619560
           C          2.072020483899     0.149816160349     0.667617773804    12.000000000000
           C          0.616207483899     0.078088160349     1.060367773804    12.000000000000
           O          2.718734483899    -0.954454839651     1.019720773804    15.994914619560
           C         -0.174056516101     1.323331160349     0.664175773804    12.000000000000
           H          0.209373483899    -0.821893839651     0.611246773804     1.007825032070
           H          0.579041483899    -0.083401839651     2.134721773804     1.007825032070
           C         -1.628061516101     1.311416160349     1.148140773804    12.000000000000
           H         -0.146637516101     1.437052160349    -0.415377226196     1.007825032070
           H          0.328121483899     2.195001160349     1.069676773804     1.007825032070
           C         -2.512606516101     0.237815160349     0.507772773804    12.000000000000
           H         -2.060375516101     2.287333160349     0.939779773804     1.007825032070
           H         -1.648814516101     1.197647160349     2.231023773804     1.007825032070
           C         -2.270698516101     0.086476160349    -0.995416226196    12.000000000000
           H         -2.329364516101    -0.716492839651     0.999236773804     1.007825032070
           H         -3.562328516101     0.469822160349     0.672785773804     1.007825032070
           C         -3.152886516101    -0.979996839651    -1.646962226196    12.000000000000
           H         -1.224298516101    -0.159154839651    -1.168464226196     1.007825032070
           H         -2.443363516101     1.043122160349    -1.486044226196     1.007825032070
           C         -2.902408516101    -1.127513839651    -3.147362226196    12.000000000000
           H         -2.982339516101    -1.936396839651    -1.157213226196     1.007825032070
           H         -4.199276516101    -0.733886839651    -1.478800226196     1.007825032070
           H         -3.542212516101    -1.890304839651    -3.580267226196     1.007825032070
           H         -1.872011516101    -1.407851839651    -3.347083226196     1.007825032070
           H         -3.097756516101    -0.195870839651    -3.670959226196     1.007825032070
           C          4.098950483899    -1.017175839651     0.709954773804    12.000000000000
           H          4.252849483899    -0.942033839651    -0.356897226196     1.007825032070
           H          4.439043483899    -1.975595839651     1.070197773804     1.007825032070
           H          4.635887483899    -0.219731839651     1.203227773804     1.007825032070

  Charge       = 0
  Multiplicity = 1
  Basis Set: 6-31G*
  Basis Set:

    Orbital Energies (a.u.)
    -----------------------

    Doubly Occupied:

       1A    -20.603679     2A    -20.545532     3A    -11.372330
       4A    -11.280895     5A    -11.235140     6A    -11.217893
       7A    -11.217149     8A    -11.215726     9A    -11.215600
      10A    -11.213904    11A    -11.208730    12A     -1.469378
      13A     -1.362815    14A     -1.101331    15A     -1.063871
      16A     -1.019541    17A     -0.975280    18A     -0.929069
      19A     -0.867778    20A     -0.809221    21A     -0.779404
      22A     -0.757502    23A     -0.702114    24A     -0.683288
      25A     -0.671830    26A     -0.649607    27A     -0.634590
      28A     -0.603949    29A     -0.594862    30A     -0.579759
      31A     -0.564205    32A     -0.555306    33A     -0.537307
      34A     -0.527063    35A     -0.523382    36A     -0.508265
      37A     -0.491772    38A     -0.479636    39A     -0.472156
      40A     -0.458698    41A     -0.456681    42A     -0.452254
      43A     -0.441356    44A     -0.436640

  @DF-RHF Final Energy:  -501.03912783290525

   => Energetics <=

    Nuclear Repulsion Energy =            632.2762888976506019
    One-Electron Energy =               -1935.6577874789732050
    Two-Electron Energy =                 802.3423707484173519
    DFT Exchange-Correlation Energy =       0.0000000000000000
    Empirical Dispersion Energy =           0.0000000000000000
    PCM Polarization Energy =               0.0000000000000000
    EFP Energy =                            0.0000000000000000
    Total Energy =                       -501.0391278329052511

  Mulliken Charges: (a.u.)
   Center  Symbol    Alpha    Beta     Spin     Total
       1     O     4.28561  4.28561  0.00000 -0.57122
       2     C     2.60544  2.60544  0.00000  0.78913
       3     C     3.20895  3.20895  0.00000 -0.41790
       4     O     4.30740  4.30740  0.00000 -0.61479
       5     C     3.16185  3.16185  0.00000 -0.32370
       6     H     0.39953  0.39953  0.00000  0.20095
       7     H     0.40054  0.40054  0.00000  0.19892
       8     C     3.15634  3.15634  0.00000 -0.31269
       9     H     0.40836  0.40836  0.00000  0.18329
      10     H     0.40790  0.40790  0.00000  0.18420
      11     C     3.15568  3.15568  0.00000 -0.31137
      12     H     0.41827  0.41827  0.00000  0.16347
      13     H     0.42189  0.42189  0.00000  0.15623
      14     C     3.15621  3.15621  0.00000 -0.31241
      15     H     0.42426  0.42426  0.00000  0.15148
      16     H     0.41907  0.41907  0.00000  0.16185
      17     C     3.15024  3.15024  0.00000 -0.30047
      18     H     0.42260  0.42260  0.00000  0.15479
      19     H     0.42229  0.42229  0.00000  0.15543
      20     C     3.23921  3.23921  0.00000 -0.47843
      21     H     0.42381  0.42381  0.00000  0.15238
      22     H     0.42306  0.42306  0.00000  0.15388
      23     H     0.41933  0.41933  0.00000  0.16135
      24     H     0.42184  0.42184  0.00000  0.15633
      25     H     0.42129  0.42129  0.00000  0.15743
      26     C     3.09242  3.09242  0.00000 -0.18484
      27     H     0.40911  0.40911  0.00000  0.18177
      28     H     0.40847  0.40847  0.00000  0.18306
      29     H     0.40905  0.40905  0.00000  0.18190

   Total alpha = 44.00000, Total beta = 44.00000, Total charge =  0.00000
