  ==> Input File <==

--------------------------------------------------------------------------
set {
	reference rhf
	basis 6-31G*
}

set_num_threads( 1 )
memory 2 gb

molecule MOL {
0 1

H	 -2.646374	 -0.642757	 1.268656
C	 -2.083525	 -0.384536	 0.393091
O	 -0.807605	 -0.127164	 0.768327
F	 -2.118945	 -1.383102	 -0.486752
F	 -2.621877	 0.670592	 -0.209486
C	 0.084052	 0.273579	 -0.209957
C	 1.307561	 -0.626011	 -0.091963
Cl	 0.535856	 1.972610	 0.005409
H	 -0.320260	 0.166468	 -1.201336
F	 2.200145	 -0.310035	 -1.006071
F	 0.937458	 -1.874583	 -0.295752
F	 1.867746	 -0.546750	 1.090358

	symmetry c1
}
set optking {
	frozen_dihedral = ("
		10 7 6 9,
		6 3 2 4
	")
}

ee = energy('scf')
oeprop('DIPOLE', 'QUADRUPOLE', 'MULLIKEN_CHARGES')
f=open( 'psi4out.xyz', 'w' )
f.write( "12  " )
f.write( str(ee) + "\n" )
f.write( MOL.save_string_xyz() )
f.close()
--------------------------------------------------------------------------

    Molecular point group: c1

    Geometry (in Angstrom), charge = 0, multiplicity = 1:

       Center              X                  Y                   Z               Mass
    ------------   -----------------  -----------------  -----------------  -----------------
           H         -2.643946966158    -0.600327131619     1.288248919744     1.007825032070
           C         -2.081097966158    -0.342106131619     0.412683919744    12.000000000000
           O         -0.805177966158    -0.084734131619     0.787919919744    15.994914619560
           F         -2.116517966158    -1.340672131619    -0.467159080256    18.998403224000
           F         -2.619449966158     0.713021868381    -0.189893080256    18.998403224000
           C          0.086479033842     0.316008868381    -0.190364080256    12.000000000000
           C          1.309988033842    -0.583581131619    -0.072370080256    12.000000000000
          CL          0.538283033842     2.015039868381     0.025001919744    34.968852682000
           H         -0.317832966158     0.208897868381    -1.181743080256     1.007825032070
           F          2.202572033842    -0.267605131619    -0.986478080256    18.998403224000
           F          0.939885033842    -1.832153131619    -0.276159080256    18.998403224000
           F          1.870173033842    -0.504320131619     1.109950919744    18.998403224000

  Charge       = 0
  Multiplicity = 1
  Basis Set: 6-31G*
  Basis Set:

    Orbital Energies (a.u.)
    -----------------------

    Doubly Occupied:

       1A   -104.844465     2A    -26.359545     3A    -26.358163
       4A    -26.357383     5A    -26.346995     6A    -26.345730
       7A    -20.649533     8A    -11.526831     9A    -11.489658
      10A    -11.400708    11A    -10.579142    12A     -8.048504
      13A     -8.044962    14A     -8.044867    15A     -1.760642
      16A     -1.717919    17A     -1.657205    18A     -1.655741
      19A     -1.638536    20A     -1.486039    21A     -1.180178
      22A     -1.051429    23A     -0.986769    24A     -0.919411
      25A     -0.859456    26A     -0.852179    27A     -0.844874
      28A     -0.824849    29A     -0.811258    30A     -0.789550
      31A     -0.727387    32A     -0.725477    33A     -0.705725
      34A     -0.701541    35A     -0.677663    36A     -0.674695
      37A     -0.657996    38A     -0.656944    39A     -0.645795
      40A     -0.634126    41A     -0.597134    42A     -0.580900
      43A     -0.524298    44A     -0.477455    45A     -0.469140

  @DF-RHF Final Energy: -1146.31433344783704

   => Energetics <=

    Nuclear Repulsion Energy =            738.6400119332195118
    One-Electron Energy =               -3060.1311151981653893
    Two-Electron Energy =                1175.1767698171054235
    DFT Exchange-Correlation Energy =       0.0000000000000000
    Empirical Dispersion Energy =           0.0000000000000000
    PCM Polarization Energy =               0.0000000000000000
    EFP Energy =                            0.0000000000000000
    Total Energy =                      -1146.3143334478406814

  Mulliken Charges: (a.u.)
   Center  Symbol    Alpha    Beta     Spin     Total
       1     H     0.40113  0.40113  0.00000  0.19775
       2     C     2.56605  2.56605  0.00000  0.86789
       3     O     4.29793  4.29793  0.00000 -0.59587
       4     F     4.68621  4.68621  0.00000 -0.37241
       5     F     4.68457  4.68457  0.00000 -0.36913
       6     C     3.04728  3.04728  0.00000 -0.09456
       7     C     2.43366  2.43366  0.00000  1.13267
       8    CL     8.49843  8.49843  0.00000  0.00313
       9     H     0.36649  0.36649  0.00000  0.26701
      10     F     4.67394  4.67394  0.00000 -0.34788
      11     F     4.67592  4.67592  0.00000 -0.35185
      12     F     4.66838  4.66838  0.00000 -0.33677

   Total alpha = 45.00000, Total beta = 45.00000, Total charge = -0.00000
