                              Psi4 1.0.54 Driver

  ==> Input File <==

--------------------------------------------------------------------------
set {
	reference rhf
	basis cc-pvtz
}

set_num_threads( 4 )
memory 2 gb

molecule MOL {
0 1

H	 -2.498963	 -0.741158	 -0.729149
O	 -2.346257	 -0.289210	 0.080372
C	 -1.183935	 0.486039	 -0.009831
C	 0.062853	 -0.375310	 0.027457
H	 -1.178881	 1.094526	 -0.908634
H	 -1.184406	 1.155156	 0.838676
O	 -0.132013	 -1.462676	 -0.815818
H	 0.252290	 -0.711869	 1.048112
H	 0.921563	 0.214400	 -0.286284
C	 0.951344	 -2.328526	 -0.904487
H	 1.195931	 -2.759527	 0.063857
H	 0.683490	 -3.125618	 -1.582413
H	 1.833855	 -1.822585	 -1.288829

	symmetry c1
}
set optking {
	frozen_dihedral = ("
		8 4 3 5
	")
}

ee,wfn = optimize('scf', return_wfn=True)
oeprop( wfn, 'DIPOLE', 'QUADRUPOLE', 'MULLIKEN_CHARGES')
f=open( 'psi4out.xyz', 'w' )
f.write( "13  " )
f.write( str(ee) + "\n" )
f.write( MOL.save_string_xyz() )
f.close()
--------------------------------------------------------------------------

    Molecular point group: c1
  Charge       = 0
  Multiplicity = 1
  Basis Set: CC-PVTZ
  Basis Set:
  @DF-RHF Final Energy:  -268.06169178045326
    Total Energy =                       -268.0616917804533159
    Molecular point group: c1
  Basis Set: CC-PVTZ
  Basis Set:
  Basis Set: CC-PVTZ
  Basis Set:
  @DF-RHF Final Energy:  -268.06310133827924
    Total Energy =                       -268.0631013382792389
  Basis Set: CC-PVTZ
  Basis Set:
  Basis Set: CC-PVTZ
  Basis Set:
  @DF-RHF Final Energy:  -268.06367713242071
    Total Energy =                       -268.0636771324209349
  Basis Set: CC-PVTZ
  Basis Set:
  Basis Set: CC-PVTZ
  Basis Set:
  @DF-RHF Final Energy:  -268.06384044248978
    Total Energy =                       -268.0638404424897203
  Basis Set: CC-PVTZ
  Basis Set:
  Basis Set: CC-PVTZ
  Basis Set:
  @DF-RHF Final Energy:  -268.06391246796568
    Total Energy =                       -268.0639124679656788
  Basis Set: CC-PVTZ
  Basis Set:
  Basis Set: CC-PVTZ
  Basis Set:
  @DF-RHF Final Energy:  -268.06391643482272
    Total Energy =                       -268.0639164348227155
  Basis Set: CC-PVTZ
  Basis Set:
  Charge       = 0
  Multiplicity = 1
  Basis Set: CC-PVTZ
  Basis Set:

    Orbital Energies (a.u.)
    -----------------------

    Doubly Occupied:

       1A    -20.563350     2A    -20.541406     3A    -11.273302
       4A    -11.272720     5A    -11.266850     6A     -1.400561
       7A     -1.358809     8A     -1.021248     9A     -0.924761
      10A     -0.836532    11A     -0.704663    12A     -0.684070
      13A     -0.670670    14A     -0.637231    15A     -0.587258
      16A     -0.582944    17A     -0.545749    18A     -0.496445
      19A     -0.482398    20A     -0.439525    21A     -0.426926

  @DF-RHF Final Energy:  -268.06391660316353

   => Energetics <=

    Nuclear Repulsion Energy =            194.9718795518173522
    One-Electron Energy =                -752.6367527718632573
    Two-Electron Energy =                 289.6009566168824563
    DFT Exchange-Correlation Energy =       0.0000000000000000
    Empirical Dispersion Energy =           0.0000000000000000
    PCM Polarization Energy =               0.0000000000000000
    EFP Energy =                            0.0000000000000000
    Total Energy =                       -268.0639166031634772
    Molecular point group: c1
  Basis Set: CC-PVTZ
  Basis Set:

  -Total Gradient:
     Atom            X                  Y                   Z
    ------   -----------------  -----------------  -----------------
       1       -0.000010033120    -0.000000421379     0.000006286551
       2        0.000017558177    -0.000008507163    -0.000012434851
       3       -0.002443477142    -0.003608667575    -0.002799734076
       4       -0.002991654278    -0.004385861441    -0.000300287225
       5        0.002552361910     0.003755638474     0.002382966031
       6        0.000014766832    -0.000015133870    -0.000000469014
       7       -0.000031316295     0.000015536646     0.000000941556
       8        0.002901384101     0.004208876697     0.000707563017
       9       -0.000006793696     0.000011242929     0.000003192807
      10        0.000004903023     0.000020807316     0.000008652185
      11       -0.000001835060     0.000000224028     0.000001163479
      12       -0.000010280525     0.000009210857     0.000002453518
      13        0.000004416078    -0.000002945518    -0.000000293980

  **** Optimization is complete! (in 7 steps) ****
    Final optimized geometry and variables:
    Molecular point group: c1

    Geometry (in Angstrom), charge = 0, multiplicity = 1:

    H           -1.772084273973    -0.182958773668    -0.111770202926
    O           -1.803595723304     0.561770496978     0.463072174712
    C           -0.633929763425     1.297761782639     0.298127084439
    C            0.611355396145     0.432154606513     0.329623144756
    H           -0.647152796158     1.887789300358    -0.615138200954
    H           -0.582058681036     2.003645173409     1.118109840126
    O            0.421454893201    -0.656177794826    -0.517062936165
    H            0.829790462304     0.112651280184     1.346726170299
    H            1.462407664741     1.027196186649    -0.001290334456
    C            1.480992589534    -1.556504729361    -0.556711630626
    H            1.674371827204    -1.982157195755     0.424541083228
    H            1.214113032962    -2.352015376103    -1.236750742635
    H            2.391054811017    -1.080621193429    -0.913399471371

  Mulliken Charges: (a.u.)
   Center  Symbol    Alpha    Beta     Spin     Total
       1     H     0.38459  0.38459  0.00000  0.23082
       2     O     4.20722  4.20722  0.00000 -0.41444
       3     C     2.95927  2.95927  0.00000  0.08146
       4     C     2.97160  2.97160  0.00000  0.05680
       5     H     0.47310  0.47310  0.00000  0.05380
       6     H     0.46229  0.46229  0.00000  0.07543
       7     O     4.18399  4.18399  0.00000 -0.36797
       8     H     0.47161  0.47161  0.00000  0.05679
       9     H     0.47326  0.47326  0.00000  0.05349
      10     C     3.02990  3.02990  0.00000 -0.05980
      11     H     0.46815  0.46815  0.00000  0.06370
      12     H     0.44628  0.44628  0.00000  0.10743
      13     H     0.46876  0.46876  0.00000  0.06248

   Total alpha = 21.00000, Total beta = 21.00000, Total charge =  0.00000

*** Psi4 exiting successfully. Buy a developer a beer!
