  ==> Input File <==

--------------------------------------------------------------------------
set {
	reference rhf
	basis 6-31G*
}

set_num_threads( 1 )
memory 2 gb

molecule MOL {
0 1

H	 1.650460	 -3.007981	 -1.980823
O	 2.487459	 -2.659279	 -2.250843
C	 2.306361	 -1.770880	 -3.324158
C	 1.677217	 -0.445809	 -2.908115
H	 3.294116	 -1.594902	 -3.730415
H	 1.712566	 -2.237702	 -4.109183
C	 0.253669	 -0.577298	 -2.361224
H	 2.314241	 0.018476	 -2.159780
H	 1.672410	 0.213952	 -3.774175
C	 -0.369595	 0.774874	 -2.003466
H	 0.266525	 -1.214963	 -1.481688
H	 -0.373717	 -1.075304	 -3.100628
C	 -1.826466	 0.707529	 -1.530887
H	 0.235342	 1.256398	 -1.237285
H	 -0.320822	 1.420586	 -2.877754
C	 -2.037799	 -0.007733	 -0.193645
H	 -2.204817	 1.723946	 -1.443916
H	 -2.431040	 0.225194	 -2.297490
C	 -3.489788	 0.042957	 0.286558
H	 -1.395036	 0.443992	 0.560618
H	 -1.730335	 -1.047691	 -0.272747
C	 -4.216917	 1.317354	 -0.141063
H	 -4.025645	 -0.823308	 -0.095450
H	 -3.513059	 -0.038752	 1.371301
H	 -4.239342	 1.411634	 -1.223113
H	 -5.243387	 1.322503	 0.212445
H	 -3.726170	 2.201406	 0.256408

	symmetry c1
}
set optking {
	frozen_dihedral = ("
		14 10 7 4,
		14 10 13 16,
		10 7 4 8,
		8 4 3 2,
		10 13 16 20,
		4 3 2 1
	")
}

ee = energy('scf')
oeprop('DIPOLE', 'QUADRUPOLE', 'MULLIKEN_CHARGES')
f=open( 'psi4out.xyz', 'w' )
f.write( "27  " )
f.write( str(ee) + "\n" )
f.write( MOL.save_string_xyz() )
f.close()
--------------------------------------------------------------------------

    Molecular point group: c1

    Geometry (in Angstrom), charge = 0, multiplicity = 1:

       Center              X                  Y                   Z               Mass
    ------------   -----------------  -----------------  -----------------  -----------------
           H          2.194907821305    -2.678695594076    -0.369336761571     1.007825032070
           O          3.031906821305    -2.329993594076    -0.639356761571    15.994914619560
           C          2.850808821305    -1.441594594076    -1.712671761571    12.000000000000
           C          2.221664821305    -0.116523594076    -1.296628761571    12.000000000000
           H          3.838563821305    -1.265616594076    -2.118928761571     1.007825032070
           H          2.257013821305    -1.908416594076    -2.497696761571     1.007825032070
           C          0.798116821305    -0.248012594076    -0.749737761571    12.000000000000
           H          2.858688821305     0.347761405924    -0.548293761571     1.007825032070
           H          2.216857821305     0.543237405924    -2.162688761571     1.007825032070
           C          0.174852821305     1.104159405924    -0.391979761571    12.000000000000
           H          0.810972821305    -0.885677594076     0.129798238429     1.007825032070
           H          0.170730821305    -0.746018594076    -1.489141761571     1.007825032070
           C         -1.282018178695     1.036814405924     0.080599238429    12.000000000000
           H          0.779789821305     1.585683405924     0.374201238429     1.007825032070
           H          0.223625821305     1.749871405924    -1.266267761571     1.007825032070
           C         -1.493351178695     0.321552405924     1.417841238429    12.000000000000
           H         -1.660369178695     2.053231405924     0.167570238429     1.007825032070
           H         -1.886592178695     0.554479405924    -0.686003761571     1.007825032070
           C         -2.945340178695     0.372242405924     1.898044238429    12.000000000000
           H         -0.850588178695     0.773277405924     2.172104238429     1.007825032070
           H         -1.185887178695    -0.718405594076     1.338739238429     1.007825032070
           C         -3.672469178695     1.646639405924     1.470423238429    12.000000000000
           H         -3.481197178695    -0.494022594076     1.516036238429     1.007825032070
           H         -2.968611178695     0.290533405924     2.982787238429     1.007825032070
           H         -3.694894178695     1.740919405924     0.388373238429     1.007825032070
           H         -4.698939178695     1.651788405924     1.823931238429     1.007825032070
           H         -3.181722178695     2.530691405924     1.867894238429     1.007825032070

  Charge       = 0
  Multiplicity = 1
  Basis Set: 6-31G*
  Basis Set:

    Orbital Energies (a.u.)
    -----------------------

    Doubly Occupied:

       1A    -20.552087     2A    -11.266805     3A    -11.219277
       4A    -11.216519     5A    -11.215594     6A    -11.214869
       7A    -11.214242     8A    -11.213578     9A    -11.208116
      10A     -1.358827    11A     -1.096670    12A     -1.062577
      13A     -1.007354    14A     -0.943915    15A     -0.896556
      16A     -0.831742    17A     -0.797557    18A     -0.763769
      19A     -0.693425    20A     -0.647657    21A     -0.637880
      22A     -0.618859    23A     -0.609316    24A     -0.586935
      25A     -0.577092    26A     -0.556068    27A     -0.537063
      28A     -0.525264    29A     -0.508462    30A     -0.498408
      31A     -0.485676    32A     -0.475130    33A     -0.468901
      34A     -0.451321    35A     -0.448508    36A     -0.441526
      37A     -0.422991

  @DF-RHF Final Energy:  -388.27321212148257

   => Energetics <=

    Nuclear Repulsion Energy =            464.4337765427230238
    One-Electron Energy =               -1446.8729335743962565
    Two-Electron Energy =                 594.1659449101919108
    DFT Exchange-Correlation Energy =       0.0000000000000000
    Empirical Dispersion Energy =           0.0000000000000000
    PCM Polarization Energy =               0.0000000000000000
    EFP Energy =                            0.0000000000000000
    Total Energy =                       -388.2732121214812651

  Mulliken Charges: (a.u.)
   Center  Symbol    Alpha    Beta     Spin     Total
       1     H     0.27992  0.27992  0.00000  0.44015
       2     O     4.37097  4.37097  0.00000 -0.74194
       3     C     2.99733  2.99733  0.00000  0.00534
       4     C     3.16092  3.16092  0.00000 -0.32183
       5     H     0.41451  0.41451  0.00000  0.17098
       6     H     0.43212  0.43212  0.00000  0.13576
       7     C     3.16342  3.16342  0.00000 -0.32685
       8     H     0.41504  0.41504  0.00000  0.16992
       9     H     0.42442  0.42442  0.00000  0.15115
      10     C     3.15010  3.15010  0.00000 -0.30021
      11     H     0.42304  0.42304  0.00000  0.15392
      12     H     0.42567  0.42567  0.00000  0.14867
      13     C     3.16108  3.16108  0.00000 -0.32216
      14     H     0.42190  0.42190  0.00000  0.15621
      15     H     0.42194  0.42194  0.00000  0.15612
      16     C     3.15453  3.15453  0.00000 -0.30905
      17     H     0.41532  0.41532  0.00000  0.16937
      18     H     0.42458  0.42458  0.00000  0.15085
      19     C     3.15132  3.15132  0.00000 -0.30263
      20     H     0.42288  0.42288  0.00000  0.15425
      21     H     0.42125  0.42125  0.00000  0.15751
      22     C     3.24778  3.24778  0.00000 -0.49555
      23     H     0.42255  0.42255  0.00000  0.15491
      24     H     0.41999  0.41999  0.00000  0.16002
      25     H     0.41738  0.41738  0.00000  0.16523
      26     H     0.41850  0.41850  0.00000  0.16300
      27     H     0.42156  0.42156  0.00000  0.15687

   Total alpha = 37.00000, Total beta = 37.00000, Total charge = -0.00000
