                              Psi4 1.0.54 Driver

  ==> Input File <==

--------------------------------------------------------------------------
set {
	reference rhf
	basis cc-pvtz
}

set_num_threads( 4 )
memory 2 gb

molecule MOL {
0 1

H	 2.739147	 0.852510	 -2.257342
O	 1.817102	 0.710121	 -2.371291
C	 1.186133	 0.612682	 -1.184762
C	 1.859568	 0.716679	 0.022860
C	 -0.177506	 0.402098	 -1.197529
H	 2.921854	 0.880725	 0.030962
C	 1.169093	 0.610050	 1.213167
H	 -0.700480	 0.321336	 -2.128560
C	 -0.861704	 0.296439	 0.000000
H	 1.700650	 0.692137	 2.141354
C	 -0.195100	 0.399381	 1.209076
C	 -2.330689	 0.069587	 0.000000
H	 -0.734706	 0.316051	 2.133073
O	 -2.848621	 -0.993976	 0.000000
H	 -2.934306	 0.982410	 0.000000

	symmetry c1
}
set optking {
	frozen_dihedral = ("
		11 9 12 14
	")
}

ee,wfn = optimize('scf', return_wfn=True)
oeprop( wfn, 'DIPOLE', 'QUADRUPOLE', 'MULLIKEN_CHARGES')
f=open( 'psi4out.xyz', 'w' )
f.write( "15  " )
f.write( str(ee) + "\n" )
f.write( MOL.save_string_xyz() )
f.close()
--------------------------------------------------------------------------

    Molecular point group: c1
  Charge       = 0
  Multiplicity = 1
  Basis Set: CC-PVTZ
  Basis Set:
  @DF-RHF Final Energy:  -418.42689375951676
    Total Energy =                       -418.4268937595168154
    Molecular point group: c1
  Basis Set: CC-PVTZ
  Basis Set:
  Basis Set: CC-PVTZ
  Basis Set:
  @DF-RHF Final Energy:  -418.42710468927294
    Total Energy =                       -418.4271046892731647
  Basis Set: CC-PVTZ
  Basis Set:
  Basis Set: CC-PVTZ
  Basis Set:
  @DF-RHF Final Energy:  -418.42618649602292
    Total Energy =                       -418.4261864960229786
  Basis Set: CC-PVTZ
  Basis Set:
  Basis Set: CC-PVTZ
  Basis Set:
  @DF-RHF Final Energy:  -418.42722281336000
    Total Energy =                       -418.4272228133602312
  Basis Set: CC-PVTZ
  Basis Set:
  Basis Set: CC-PVTZ
  Basis Set:
  @DF-RHF Final Energy:  -418.42724291052701
    Total Energy =                       -418.4272429105262745
  Basis Set: CC-PVTZ
  Basis Set:
  Charge       = 0
  Multiplicity = 1
  Basis Set: CC-PVTZ
  Basis Set:

    Orbital Energies (a.u.)
    -----------------------

    Doubly Occupied:

       1A    -20.596677     2A    -20.564324     3A    -11.333380
       4A    -11.312417     5A    -11.256559     6A    -11.249489
       7A    -11.238595     8A    -11.237221     9A    -11.235986
      10A     -1.428592    11A     -1.418775    12A     -1.172027
      13A     -1.050996    14A     -1.026910    15A     -0.901660
      16A     -0.845484    17A     -0.821285    18A     -0.742891
      19A     -0.703285    20A     -0.679947    21A     -0.669329
      22A     -0.643660    23A     -0.616272    24A     -0.607568
      25A     -0.587149    26A     -0.546439    27A     -0.534699
      28A     -0.515430    29A     -0.498557    30A     -0.426686
      31A     -0.357497    32A     -0.328517

  @DF-RHF Final Energy:  -418.42724382860246

   => Energetics <=

    Nuclear Repulsion Energy =            402.8202672606485635
    One-Electron Energy =               -1368.1984238839781938
    Two-Electron Energy =                 546.9509127947269462
    DFT Exchange-Correlation Energy =       0.0000000000000000
    Empirical Dispersion Energy =           0.0000000000000000
    PCM Polarization Energy =               0.0000000000000000
    EFP Energy =                            0.0000000000000000
    Total Energy =                       -418.4272438286027409
    Molecular point group: c1
  Basis Set: CC-PVTZ
  Basis Set:

  -Total Gradient:
     Atom            X                  Y                   Z
    ------   -----------------  -----------------  -----------------
       1       -0.000000437221     0.000015202412    -0.000004818338
       2        0.000025727385     0.000020808610     0.000011026270
       3       -0.000181313942    -0.000130030775    -0.000117576852
       4        0.000003509373     0.000017934230     0.000228867260
       5        0.000131181607     0.000065697276    -0.000081575741
       6       -0.000003071667     0.000006276959    -0.000015118604
       7        0.000196864885     0.000024507023    -0.000122674388
       8       -0.000000501352    -0.000001881560     0.000000891552
       9        0.000109836431    -0.000254850134     0.000072064655
      10       -0.000008998583     0.000000324870     0.000012186114
      11       -0.000229727867     0.000175481562    -0.000091301111
      12       -0.000121987391     0.000030856665     0.000363023498
      13        0.000016122595    -0.000002372928    -0.000000220870
      14        0.000026196577     0.000040464419    -0.000247411110
      15        0.000036599164    -0.000008418628    -0.000007362339

  **** Optimization is complete! (in 6 steps) ****
    Final optimized geometry and variables:
    Molecular point group: c1

    Geometry (in Angstrom), charge = 0, multiplicity = 1:

    H            2.780518703646     0.539347102161    -1.959266261393
    O            1.855559127348     0.409448260480    -2.066753763364
    C            1.237142599400     0.312418897547    -0.875142051734
    C            1.915222159898     0.419225115806     0.325306348279
    C           -0.130780572464     0.098612967464    -0.883639724215
    H            2.976825482623     0.585842570788     0.331728780350
    C            1.220480843355     0.309366972575     1.514400416155
    H           -0.637590567408     0.013590543752    -1.825216446892
    C           -0.810371613395    -0.014506449100     0.311370479920
    H            1.751719129868     0.390011309883     2.443330599157
    C           -0.142341351884     0.095691394710     1.519929958175
    C           -2.295770392233    -0.229591402775     0.296760279545
    H           -0.674302313807     0.005050746789     2.446943115327
    O           -2.808456256814    -1.292620962990     0.301190716590
    H           -2.904408249708     0.680492502258     0.281232635715

  Mulliken Charges: (a.u.)
   Center  Symbol    Alpha    Beta     Spin     Total
       1     H     0.38624  0.38624  0.00000  0.22751
       2     O     4.17142  4.17142  0.00000 -0.34284
       3     C     2.83587  2.83587  0.00000  0.32825
       4     C     3.14189  3.14189  0.00000 -0.28378
       5     C     3.13576  3.13576  0.00000 -0.27153
       6     H     0.43267  0.43267  0.00000  0.13466
       7     C     3.05277  3.05277  0.00000 -0.10555
       8     H     0.41833  0.41833  0.00000  0.16333
       9     C     2.91822  2.91822  0.00000  0.16356
      10     H     0.41973  0.41973  0.00000  0.16055
      11     C     3.12063  3.12063  0.00000 -0.24127
      12     C     2.93066  2.93066  0.00000  0.13867
      13     H     0.42326  0.42326  0.00000  0.15347
      14     O     4.15474  4.15474  0.00000 -0.30948
      15     H     0.45779  0.45779  0.00000  0.08442

   Total alpha = 32.00000, Total beta = 32.00000, Total charge = -0.00000

*** Psi4 exiting successfully. Buy a developer a beer!
