  ==> Input File <==

--------------------------------------------------------------------------
set {
	reference rhf
	basis cc-pvtz
}

set_num_threads( 4 )
memory 2 gb

molecule MOL {
0 1

H	 -3.642953	 0.223825	 0.000000
C	 -2.571844	 0.155001	 0.000000
C	 -1.957580	 -1.086132	 0.000000
C	 -1.807160	 1.303787	 0.000000
H	 -2.551493	 -1.979629	 0.000000
C	 -0.582719	 -1.174294	 0.000000
H	 -2.279934	 2.266806	 0.000000
C	 -0.427220	 1.213406	 0.000000
H	 -0.094904	 -2.127556	 0.000000
C	 0.196908	 -0.024061	 0.000000
H	 0.151409	 2.115254	 0.000000
C	 1.690041	 -0.173233	 0.000000
C	 2.307085	 -1.384676	 0.660547
O	 2.379342	 0.649935	 -0.512464
H	 2.042331	 -1.425823	 1.710400
H	 3.378944	 -1.320288	 0.562038
H	 1.955290	 -2.297054	 0.193872

	symmetry c1
}
set optking {
	frozen_dihedral = ("
		13 12 10 8
	")
}

ee = optimize('scf')
oeprop('DIPOLE', 'QUADRUPOLE', 'MULLIKEN_CHARGES')
f=open( 'psi4out.xyz', 'w' )
f.write( "17  " )
f.write( str(ee) + "\n" )
f.write( MOL.save_string_xyz() )
f.close()
--------------------------------------------------------------------------

    Molecular point group: c1
  Charge       = 0
  Multiplicity = 1
  Basis Set: CC-PVTZ
  Basis Set:
  @DF-RHF Final Energy:  -382.60212358140814
    Total Energy =                       -382.6021235814080228
    Molecular point group: c1
  Basis Set: CC-PVTZ
  Basis Set:
  Basis Set: CC-PVTZ
  Basis Set:
  @DF-RHF Final Energy:  -382.60228817052950
    Total Energy =                       -382.6022881705295049
  Basis Set: CC-PVTZ
  Basis Set:
  Basis Set: CC-PVTZ
  Basis Set:
  @DF-RHF Final Energy:  -382.60349040978400
    Total Energy =                       -382.6034904097836034
  Basis Set: CC-PVTZ
  Basis Set:
  Basis Set: CC-PVTZ
  Basis Set:
  @DF-RHF Final Energy:  -382.60398225536113
    Total Energy =                       -382.6039822553611884
  Basis Set: CC-PVTZ
  Basis Set:
  Basis Set: CC-PVTZ
  Basis Set:
  @DF-RHF Final Energy:  -382.60405556406528
    Total Energy =                       -382.6040555640656748
  Basis Set: CC-PVTZ
  Basis Set:
  Basis Set: CC-PVTZ
  Basis Set:
  @DF-RHF Final Energy:  -382.60411068502566
    Total Energy =                       -382.6041106850254891
  Basis Set: CC-PVTZ
  Basis Set:
  Basis Set: CC-PVTZ
  Basis Set:
  @DF-RHF Final Energy:  -382.60411337722110
    Total Energy =                       -382.6041133772212106
  Basis Set: CC-PVTZ
  Basis Set:
  Charge       = 0
  Multiplicity = 1
  Basis Set: CC-PVTZ
  Basis Set:

    Orbital Energies (a.u.)
    -----------------------

    Doubly Occupied:

       1A    -20.541677     2A    -11.328121     3A    -11.246186
       4A    -11.243355     5A    -11.243239     6A    -11.239598
       7A    -11.239160     8A    -11.237093     9A    -11.229426
      10A     -1.402784    11A     -1.171318    12A     -1.053557
      13A     -1.030695    14A     -0.999275    15A     -0.864326
      16A     -0.839625    17A     -0.764002    18A     -0.711659
      19A     -0.660278    20A     -0.651798    21A     -0.627989
      22A     -0.615994    23A     -0.603069    24A     -0.596161
      25A     -0.557914    26A     -0.530328    27A     -0.519796
      28A     -0.504677    29A     -0.497137    30A     -0.414469
      31A     -0.350351    32A     -0.347057

  @DF-RHF Final Energy:  -382.60411473834171

   => Energetics <=

    Nuclear Repulsion Energy =            404.3810994654409683
    One-Electron Energy =               -1320.2461959257771014
    Two-Electron Energy =                 533.2609817219944262
    DFT Exchange-Correlation Energy =       0.0000000000000000
    Empirical Dispersion Energy =           0.0000000000000000
    PCM Polarization Energy =               0.0000000000000000
    EFP Energy =                            0.0000000000000000
    Total Energy =                       -382.6041147383417638
    Molecular point group: c1
  Basis Set: CC-PVTZ
  Basis Set:

  -Total Gradient:
     Atom            X                  Y                   Z
    ------   -----------------  -----------------  -----------------
       1       -0.000002250055     0.000004011725    -0.000010185477
       2       -0.000001959728    -0.000098002036     0.000036805126
       3       -0.000082879790     0.000062473421    -0.000005231955
       4        0.000097627895     0.000052274949    -0.000005385110
       5        0.000000909558     0.000001370377     0.000002215904
       6        0.000091427259     0.000003063089    -0.000021125516
       7       -0.000008168046    -0.000004556573     0.000002334979
       8       -0.000116999184     0.000027601577     0.002726329108
       9       -0.000006469878     0.000018710278     0.000009165626
      10        0.000028181196     0.000551249851    -0.002896417103
      11        0.000004420651     0.000004507035     0.000016409453
      12        0.000004362619    -0.001896582902    -0.002112953610
      13        0.000047433153     0.001296924476     0.002186218081
      14       -0.000050947123    -0.000027094629     0.000049015397
      15        0.000001349919     0.000004309156     0.000004196260
      16        0.000001047411    -0.000011902245     0.000014211456
      17       -0.000007085856     0.000011642450     0.000004397381

  **** Optimization is complete! (in 8 steps) ****
    Final optimized geometry and variables:
    Molecular point group: c1

    Geometry (in Angstrom), charge = 0, multiplicity = 1:

    H           -3.631528240589     0.335594606372     0.004769236077
    C           -2.562782790640     0.237703285912    -0.007399620394
    C           -1.984521291603    -1.015998910812    -0.005867643179
    C           -1.764118247463     1.368088665708    -0.021234447815
    H           -2.600788118996    -1.894215466281     0.003784131259
    C           -0.607600608119    -1.140833118648    -0.009137299672
    H           -2.212240215747     2.342952875741    -0.015235529986
    C           -0.391327573184     1.242299517193    -0.044736019924
    H           -0.172432099231    -2.120650551420     0.003474044159
    C            0.198448923881    -0.014364128301    -0.043747271489
    H            0.236753384910     2.110009903007    -0.067675218183
    C            1.697017533504    -0.097967283371    -0.035047307432
    C            2.350279242281    -1.287567119127     0.630317935557
    O            2.352938987868     0.781714252403    -0.492566091285
    H            1.962363495891    -1.419619156820     1.632886705448
    H            3.416135052694    -1.125122556313     0.663424433716
    H            2.148611989735    -2.197677855553     0.077325743927

  Mulliken Charges: (a.u.)
   Center  Symbol    Alpha    Beta     Spin     Total
       1     H     0.42050  0.42050  0.00000  0.15901
       2     C     3.07588  3.07588  0.00000 -0.15177
       3     C     3.07205  3.07205  0.00000 -0.14409
       4     C     3.07135  3.07135  0.00000 -0.14270
       5     H     0.42196  0.42196  0.00000  0.15608
       6     C     3.08782  3.08782  0.00000 -0.17563
       7     H     0.42052  0.42052  0.00000  0.15896
       8     C     3.08182  3.08182  0.00000 -0.16364
       9     H     0.42281  0.42281  0.00000  0.15438
      10     C     2.99500  2.99500  0.00000  0.01001
      11     H     0.40975  0.40975  0.00000  0.18050
      12     C     2.85089  2.85089  0.00000  0.29822
      13     C     3.16302  3.16302  0.00000 -0.32604
      14     O     4.17913  4.17913  0.00000 -0.35826
      15     H     0.44460  0.44460  0.00000  0.11081
      16     H     0.43296  0.43296  0.00000  0.13408
      17     H     0.44996  0.44996  0.00000  0.10009

   Total alpha = 32.00000, Total beta = 32.00000, Total charge = -0.00000
