  ==> Input File <==

--------------------------------------------------------------------------
set {
	reference rhf
	basis cc-pvtz
}

set_num_threads( 4 )
memory 2 gb

molecule MOL {
0 1

H	 -2.257008	 -1.309895	 -1.458108
C	 -1.561711	 -0.782865	 -0.839451
C	 -1.955835	 0.350181	 -0.058410
C	 -0.284488	 -1.166425	 -0.771499
H	 -2.975932	 0.684097	 -0.090955
C	 -1.066537	 0.990957	 0.706528
H	 0.086019	 -2.005158	 -1.326830
N	 0.640204	 -0.530428	 -0.000115
H	 -1.325498	 1.841131	 1.303273
C	 0.325144	 0.569879	 0.778275
C	 2.006991	 -1.033007	 -0.000020
O	 1.152917	 1.119122	 1.453084
H	 2.182444	 -1.636914	 -0.880881
H	 2.678769	 -0.195442	 -0.002236
H	 2.183828	 -1.633244	 0.883082

	symmetry c1
}
set optking {
	frozen_dihedral = ("
		10 8 11 13
	")
}

ee = optimize('scf')
oeprop('DIPOLE', 'QUADRUPOLE', 'MULLIKEN_CHARGES')
f=open( 'psi4out.xyz', 'w' )
f.write( "15  " )
f.write( str(ee) + "\n" )
f.write( MOL.save_string_xyz() )
f.close()
--------------------------------------------------------------------------

    Molecular point group: c1
  Charge       = 0
  Multiplicity = 1
  Basis Set: CC-PVTZ
  Basis Set:
  @DF-RHF Final Energy:  -360.72278752777811
    Total Energy =                       -360.7227875277782232
    Molecular point group: c1
  Basis Set: CC-PVTZ
  Basis Set:
  Basis Set: CC-PVTZ
  Basis Set:
  @DF-RHF Final Energy:  -360.72323239528646
    Total Energy =                       -360.7232323952864590
  Basis Set: CC-PVTZ
  Basis Set:
  Basis Set: CC-PVTZ
  Basis Set:
  @DF-RHF Final Energy:  -360.72329274078675
    Total Energy =                       -360.7232927407863485
  Basis Set: CC-PVTZ
  Basis Set:
  Basis Set: CC-PVTZ
  Basis Set:
  @DF-RHF Final Energy:  -360.72326396743773
    Total Energy =                       -360.7232639674374468
  Basis Set: CC-PVTZ
  Basis Set:
  Charge       = 0
  Multiplicity = 1
  Basis Set: CC-PVTZ
  Basis Set:

    Orbital Energies (a.u.)
    -----------------------

    Doubly Occupied:

       1A    -20.501943     2A    -15.617540     3A    -11.338009
       4A    -11.294269     5A    -11.265464     6A    -11.258130
       7A    -11.229719     8A    -11.227891     9A     -1.391146
      10A     -1.285833    11A     -1.118802    12A     -1.029218
      13A     -0.972572    14A     -0.876366    15A     -0.838885
      16A     -0.719521    17A     -0.702169    18A     -0.663907
      19A     -0.653387    20A     -0.626052    21A     -0.611914
      22A     -0.574880    23A     -0.553719    24A     -0.550679
      25A     -0.530883    26A     -0.484406    27A     -0.420573
      28A     -0.410586    29A     -0.310257

  @DF-RHF Final Energy:  -360.72330118967483

   => Energetics <=

    Nuclear Repulsion Energy =            358.7758027353362991
    One-Electron Energy =               -1200.8807730339094633
    Two-Electron Energy =                 481.3816691088980519
    DFT Exchange-Correlation Energy =       0.0000000000000000
    Empirical Dispersion Energy =           0.0000000000000000
    PCM Polarization Energy =               0.0000000000000000
    EFP Energy =                            0.0000000000000000
    Total Energy =                       -360.7233011896750554
    Molecular point group: c1
  Basis Set: CC-PVTZ
  Basis Set:

  -Total Gradient:
     Atom            X                  Y                   Z
    ------   -----------------  -----------------  -----------------
       1       -0.000000344340     0.000004896524    -0.000008599228
       2        0.000195177801    -0.000103161124    -0.000000829151
       3       -0.000007912270     0.000160872604     0.000125483366
       4       -0.000262417842    -0.000093266541    -0.000152256012
       5        0.000005032015    -0.000007303112    -0.000002245198
       6       -0.000187503376    -0.000001981582    -0.000048949131
       7        0.000015749411     0.000014977877     0.000013586006
       8       -0.000107628344    -0.000281073179     0.000900626422
       9        0.000014255116     0.000008965974     0.000015338634
      10        0.000360521430     0.000230894548    -0.000767539011
      11       -0.000243379452    -0.000721676884     0.000284176303
      12       -0.000038999143     0.000060399800     0.000073113484
      13        0.000272110891     0.000725693908    -0.000443162064
      14       -0.000018299382    -0.000006464016     0.000007502664
      15        0.000003637492     0.000008225207     0.000003752919

  **** Optimization is complete! (in 5 steps) ****
    Final optimized geometry and variables:
    Molecular point group: c1

    Geometry (in Angstrom), charge = 0, multiplicity = 1:

    H           -2.251367524793    -1.241371214327    -1.625142492881
    C           -1.549710882007    -0.716745798892    -1.011662604864
    C           -1.933033593567     0.421354003247    -0.233872468352
    C           -0.272774543966    -1.107087282937    -0.954394351252
    H           -2.951369502338     0.760881811064    -0.263954710265
    C           -1.036821812916     1.061387101675     0.524887412152
    H            0.087567317634    -1.947743153354    -1.512028261623
    N            0.657444438511    -0.469986294610    -0.193026695286
    H           -1.288095597640     1.914763747560     1.120536387518
    C            0.348038976326     0.623487560947     0.595004119822
    C            2.031354913300    -0.948260135243    -0.164579598819
    O            1.188663377166     1.144416290966     1.276602492418
    H            2.217044590849    -1.541619693759    -1.047120055978
    H            2.701706809495    -0.105899474297    -0.151606665123
    H            2.215346079888    -1.543239706624     0.720135597329

  Mulliken Charges: (a.u.)
   Center  Symbol    Alpha    Beta     Spin     Total
       1     H     0.41394  0.41394  0.00000  0.17213
       2     C     3.10584  3.10584  0.00000 -0.21169
       3     C     3.06018  3.06018  0.00000 -0.12036
       4     C     3.03646  3.03646  0.00000 -0.07292
       5     H     0.41842  0.41842  0.00000  0.16316
       6     C     3.11830  3.11830  0.00000 -0.23661
       7     H     0.42031  0.42031  0.00000  0.15937
       8     N     3.50952  3.50952  0.00000 -0.01904
       9     H     0.40921  0.40921  0.00000  0.18159
      10     C     2.84536  2.84536  0.00000  0.30928
      11     C     3.09480  3.09480  0.00000 -0.18960
      12     O     4.23592  4.23592  0.00000 -0.47184
      13     H     0.45528  0.45528  0.00000  0.08945
      14     H     0.43164  0.43164  0.00000  0.13672
      15     H     0.44483  0.44483  0.00000  0.11034

   Total alpha = 29.00000, Total beta = 29.00000, Total charge =  0.00000
