  ==> Input File <==

--------------------------------------------------------------------------
set {
	reference rhf
	basis 6-31G*
}

set_num_threads( 4 )
memory 2 gb

molecule MOL {
0 1

H	 -2.659357	 0.839368	 3.609819
O	 -1.953379	 0.276264	 3.326246
C	 -1.504815	 0.682960	 2.058973
C	 -0.375076	 -0.239736	 1.636992
H	 -2.315176	 0.636642	 1.332697
H	 -1.152929	 1.713290	 2.089562
C	 0.198102	 0.111031	 0.262842
H	 -0.748745	 -1.260079	 1.637488
H	 0.404893	 -0.192635	 2.391914
C	 1.331804	 -0.827780	 -0.158768
H	 -0.599900	 0.082527	 -0.475096
H	 0.569154	 1.135096	 0.274286
C	 2.723619	 -0.410569	 0.329459
H	 1.342964	 -0.912588	 -1.244120
H	 1.116806	 -1.824343	 0.220779
C	 3.243875	 0.895854	 -0.272975
H	 3.424222	 -1.207124	 0.091250
H	 2.714788	 -0.329854	 1.414619
H	 3.251977	 0.848779	 -1.358681
H	 2.637085	 1.747371	 0.016682
H	 4.259473	 1.094070	 0.055697

	symmetry c1
}
set optking {
	frozen_dihedral = ("
		4 7 10 14
	")
}

ee = optimize('scf')
oeprop('DIPOLE', 'QUADRUPOLE', 'MULLIKEN_CHARGES')
f=open( 'psi4out.xyz', 'w' )
f.write( "21  " )
f.write( str(ee) + "\n" )
f.write( MOL.save_string_xyz() )
f.close()
--------------------------------------------------------------------------

    Molecular point group: c1
  Charge       = 0
  Multiplicity = 1
  Basis Set: 6-31G*
  Basis Set:
  @DF-RHF Final Energy:  -310.20941010134447
    Total Energy =                       -310.2094101013447585
    Molecular point group: c1
  Basis Set: 6-31G*
  Basis Set:
  Basis Set: 6-31G*
  Basis Set:
  @DF-RHF Final Energy:  -310.20962957217085
    Total Energy =                       -310.2096295721709112
  Basis Set: 6-31G*
  Basis Set:
  Basis Set: 6-31G*
  Basis Set:
  @DF-RHF Final Energy:  -310.20989928433147
    Total Energy =                       -310.2098992843319252
  Basis Set: 6-31G*
  Basis Set:
  Basis Set: 6-31G*
  Basis Set:
  @DF-RHF Final Energy:  -310.20991635805370
    Total Energy =                       -310.2099163580538175
  Basis Set: 6-31G*
  Basis Set:
  Basis Set: 6-31G*
  Basis Set:
  @DF-RHF Final Energy:  -310.20992459352391
    Total Energy =                       -310.2099245935236240
  Basis Set: 6-31G*
  Basis Set:
  Basis Set: 6-31G*
  Basis Set:
  @DF-RHF Final Energy:  -310.20992707214128
    Total Energy =                       -310.2099270721412267
  Basis Set: 6-31G*
  Basis Set:
  Charge       = 0
  Multiplicity = 1
  Basis Set: 6-31G*
  Basis Set:

    Orbital Energies (a.u.)
    -----------------------

    Doubly Occupied:

       1A    -20.551918     2A    -11.267053     3A    -11.215741
       4A    -11.214743     5A    -11.213510     6A    -11.210598
       7A    -11.207885     8A     -1.358720     9A     -1.085374
      10A     -1.031529    11A     -0.954572    12A     -0.874451
      13A     -0.815084    14A     -0.772459    15A     -0.691061
      16A     -0.659213    17A     -0.624495    18A     -0.612754
      19A     -0.573097    20A     -0.568418    21A     -0.549250
      22A     -0.523692    23A     -0.497590    24A     -0.493078
      25A     -0.481602    26A     -0.456062    27A     -0.450735
      28A     -0.446269    29A     -0.433953

  @DF-RHF Final Energy:  -310.20992709024125

   => Energetics <=

    Nuclear Repulsion Energy =            315.3606503162960166
    One-Electron Energy =               -1045.4713403676812504
    Two-Electron Energy =                 419.9007629611440962
    DFT Exchange-Correlation Energy =       0.0000000000000000
    Empirical Dispersion Energy =           0.0000000000000000
    PCM Polarization Energy =               0.0000000000000000
    EFP Energy =                            0.0000000000000000
    Total Energy =                       -310.2099270902411945
    Molecular point group: c1
  Basis Set: 6-31G*
  Basis Set:

  -Total Gradient:
     Atom            X                  Y                   Z
    ------   -----------------  -----------------  -----------------
       1       -0.000000897211    -0.000000707613    -0.000000816039
       2       -0.000004762240    -0.000002285343    -0.000002282199
       3        0.000006481872     0.000000020564     0.000008068874
       4       -0.001355030620    -0.001252262408    -0.000919538100
       5       -0.000001222982    -0.000000988166     0.000000685063
       6        0.000000838292    -0.000000774720    -0.000001665979
       7        0.001467477873     0.001263106132     0.001323193719
       8        0.000005918495    -0.000003503889    -0.000000679069
       9       -0.000006259726     0.000003439697     0.000004967450
      10        0.001601651338     0.002260165574    -0.000510928614
      11        0.000007489876     0.000000298568     0.000002853893
      12       -0.000022583140     0.000004155442    -0.000002360215
      13        0.000012019785    -0.000009598740    -0.000008888215
      14       -0.001720605977    -0.002258077735     0.000110095745
      15        0.000012096481    -0.000006769032    -0.000012166358
      16       -0.000011161075     0.000004339844     0.000010499882
      17       -0.000001959955    -0.000004695311     0.000000219525
      18        0.000011115649     0.000004547999    -0.000004763924
      19        0.000001972285    -0.000006032621     0.000003636173
      20        0.000000712373     0.000007777287    -0.000004832841
      21       -0.000003291390    -0.000002155530     0.000004701222

  **** Optimization is complete! (in 7 steps) ****
    Final optimized geometry and variables:
    Molecular point group: c1

    Geometry (in Angstrom), charge = 0, multiplicity = 1:

    H           -3.153556100789     0.707701118391     2.556047778053
    O           -2.456922692800     0.140428312655     2.258015300577
    C           -1.983954385730     0.587146116413     1.013264461783
    C           -0.871405464361    -0.344455070324     0.566195601754
    H           -2.786524225090     0.589591299121     0.276787877241
    H           -1.608568714145     1.606746187335     1.089539051988
    C           -0.291156700950     0.035916589519    -0.798413095738
    H           -1.265817228757    -1.355890134254     0.529399814593
    H           -0.097606069600    -0.339145164130     1.328847385359
    C            0.866573955928    -0.876156913568    -1.240326220984
    H           -1.086929687458    -0.020934409021    -1.538012510405
    H            0.030838563071     1.074196266776    -0.787090364413
    C            2.252553987994    -0.466071784904    -0.726783326797
    H            0.887086235660    -0.940671303934    -2.325788666688
    H            0.653734131658    -1.886763517697    -0.898476544781
    C            2.826568661416     0.781467952184    -1.400906808106
    H            2.939832905386    -1.292926323378    -0.887295058876
    H            2.213819908518    -0.312329020664     0.349213850172
    H            2.914341578086     0.636746522839    -2.474183016792
    H            2.206709933706     1.656901819482    -1.236376348945
    H            3.816427488030     1.007626182430    -1.016353354067

  Mulliken Charges: (a.u.)
   Center  Symbol    Alpha    Beta     Spin     Total
       1     H     0.28117  0.28117  0.00000  0.43766
       2     O     4.37177  4.37177  0.00000 -0.74353
       3     C     2.98994  2.98994  0.00000  0.02012
       4     C     3.16032  3.16032  0.00000 -0.32064
       5     H     0.43288  0.43288  0.00000  0.13424
       6     H     0.43295  0.43295  0.00000  0.13411
       7     C     3.16359  3.16359  0.00000 -0.32719
       8     H     0.41442  0.41442  0.00000  0.17116
       9     H     0.41433  0.41433  0.00000  0.17134
      10     C     3.15560  3.15560  0.00000 -0.31121
      11     H     0.42128  0.42128  0.00000  0.15744
      12     H     0.42173  0.42173  0.00000  0.15654
      13     C     3.15412  3.15412  0.00000 -0.30824
      14     H     0.42142  0.42142  0.00000  0.15717
      15     H     0.41991  0.41991  0.00000  0.16018
      16     C     3.24004  3.24004  0.00000 -0.48009
      17     H     0.42049  0.42049  0.00000  0.15901
      18     H     0.42134  0.42134  0.00000  0.15732
      19     H     0.42206  0.42206  0.00000  0.15587
      20     H     0.42143  0.42143  0.00000  0.15714
      21     H     0.41921  0.41921  0.00000  0.16159

   Total alpha = 29.00000, Total beta = 29.00000, Total charge =  0.00000
