  ==> Input File <==

--------------------------------------------------------------------------
set {
	reference rhf
	basis 6-31G*
}

set_num_threads( 4 )
memory 2 gb

molecule MOL {
0 1

H	 -1.678187	 -1.018811	 -0.998823
O	 -2.310168	 -0.871793	 -0.309793
C	 -2.026376	 0.340750	 0.341611
C	 -0.673256	 0.843270	 -0.132153
H	 -2.792215	 1.080697	 0.115987
H	 -2.013526	 0.200402	 1.421792
C	 0.486613	 -0.083066	 0.235839
H	 -0.715586	 0.970948	 -1.210718
H	 -0.508072	 1.829858	 0.297090
C	 1.840406	 0.433480	 -0.254303
H	 0.300215	 -1.068318	 -0.178947
H	 0.519509	 -0.203625	 1.318070
C	 3.000220	 -0.489290	 0.118523
H	 1.809207	 0.553576	 -1.335192
H	 2.021860	 1.424500	 0.157276
H	 2.864959	 -1.479103	 -0.307933
H	 3.946603	 -0.099227	 -0.243630
H	 3.080049	 -0.602997	 1.196117

	symmetry c1
}
set optking {
	frozen_dihedral = ("
		1 2 3 4
	")
}

ee = optimize('scf')
oeprop('DIPOLE', 'QUADRUPOLE', 'MULLIKEN_CHARGES')
f=open( 'psi4out.xyz', 'w' )
f.write( "18  " )
f.write( str(ee) + "\n" )
f.write( MOL.save_string_xyz() )
f.close()
--------------------------------------------------------------------------

    Molecular point group: c1
  Charge       = 0
  Multiplicity = 1
  Basis Set: 6-31G*
  Basis Set:
  @DF-RHF Final Energy:  -271.17479971887684
    Total Energy =                       -271.1747997188771251
    Molecular point group: c1
  Basis Set: 6-31G*
  Basis Set:
  Basis Set: 6-31G*
  Basis Set:
  @DF-RHF Final Energy:  -271.17623439250031
    Total Energy =                       -271.1762343925004188
  Basis Set: 6-31G*
  Basis Set:
  Basis Set: 6-31G*
  Basis Set:
  @DF-RHF Final Energy:  -271.17677147221411
    Total Energy =                       -271.1767714722141136
  Basis Set: 6-31G*
  Basis Set:
  Basis Set: 6-31G*
  Basis Set:
  @DF-RHF Final Energy:  -271.17678091065193
    Total Energy =                       -271.1767809106518712
  Basis Set: 6-31G*
  Basis Set:
  Basis Set: 6-31G*
  Basis Set:
  @DF-RHF Final Energy:  -271.17678411945599
    Total Energy =                       -271.1767841194560447
  Basis Set: 6-31G*
  Basis Set:
  Charge       = 0
  Multiplicity = 1
  Basis Set: 6-31G*
  Basis Set:

    Orbital Energies (a.u.)
    -----------------------

    Doubly Occupied:

       1A    -20.549259     2A    -11.266755     3A    -11.225124
       4A    -11.222638     5A    -11.221761     6A    -11.213180
       7A     -1.356591     8A     -1.085827     9A     -1.015025
      10A     -0.922091    11A     -0.835348    12A     -0.798791
      13A     -0.661337    14A     -0.658214    15A     -0.635157
      16A     -0.612056    17A     -0.577005    18A     -0.558639
      19A     -0.542165    20A     -0.500617    21A     -0.494176
      22A     -0.479367    23A     -0.471342    24A     -0.454237
      25A     -0.426769

  @DF-RHF Final Energy:  -271.17678483519308

   => Energetics <=

    Nuclear Repulsion Energy =            248.8508260235965963
    One-Electron Energy =                -860.4882748823481506
    Two-Electron Energy =                 340.4606640235584791
    DFT Exchange-Correlation Energy =       0.0000000000000000
    Empirical Dispersion Energy =           0.0000000000000000
    PCM Polarization Energy =               0.0000000000000000
    EFP Energy =                            0.0000000000000000
    Total Energy =                       -271.1767848351930752
    Molecular point group: c1
  Basis Set: 6-31G*
  Basis Set:

  -Total Gradient:
     Atom            X                  Y                   Z
    ------   -----------------  -----------------  -----------------
       1        0.000979415201    -0.000879662785     0.001072841304
       2       -0.001373440995     0.001281755639    -0.001713903864
       3        0.000858296085    -0.000998157455     0.001395116804
       4       -0.000498627985     0.000525786386    -0.000813667979
       5        0.000013317540     0.000035376188     0.000013037591
       6        0.000022781806     0.000026974943     0.000011189679
       7       -0.000003726502     0.000020271454     0.000023208654
       8        0.000001896885    -0.000003400784     0.000011311973
       9        0.000000392929     0.000012162092     0.000012635978
      10       -0.000007115876    -0.000019444039    -0.000020418553
      11        0.000007770609     0.000006224729    -0.000001963333
      12        0.000011742309    -0.000006091507     0.000008346127
      13       -0.000005048907     0.000001267534     0.000004173261
      14       -0.000001141065     0.000001054413    -0.000003467617
      15       -0.000003954985    -0.000006847771     0.000002746223
      16        0.000000858061     0.000001959385    -0.000003204151
      17       -0.000001039263     0.000003512304     0.000001625636
      18       -0.000002375844    -0.000002740726     0.000000392268

  **** Optimization is complete! (in 6 steps) ****
    Final optimized geometry and variables:
    Molecular point group: c1

    Geometry (in Angstrom), charge = 0, multiplicity = 1:

    H           -1.841858132919    -1.086576297156    -0.985784169298
    O           -2.425786372934    -0.870645530930    -0.274392058310
    C           -2.030034532644     0.334585582745     0.334878465195
    C           -0.667729650251     0.836426011071    -0.129602873836
    H           -2.781334568273     1.091555298431     0.127489743243
    H           -2.020139620955     0.172501373193     1.407881089300
    C            0.496566003938    -0.087586230450     0.238462613839
    H           -0.696876139284     0.986394888120    -1.208831190982
    H           -0.501030437969     1.818112384928     0.307783816371
    C            1.851681693497     0.435136846573    -0.241445065586
    H            0.331245132467    -1.080153386517    -0.175384353097
    H            0.519882680637    -0.214765171998     1.318964398122
    C            3.012473392397    -0.484820584985     0.134653638282
    H            1.827455890314     0.562615690060    -1.321758163927
    H            2.024406720511     1.424073777295     0.177650507414
    H            2.886644742826    -1.472727825118    -0.299283273298
    H            3.958975070893    -0.087038754174    -0.217726306978
    H            3.084247067035    -0.604800020843     1.211831430010

  Mulliken Charges: (a.u.)
   Center  Symbol    Alpha    Beta     Spin     Total
       1     H     0.27935  0.27935  0.00000  0.44130
       2     O     4.37762  4.37762  0.00000 -0.75524
       3     C     2.97548  2.97548  0.00000  0.04905
       4     C     3.18895  3.18895  0.00000 -0.37790
       5     H     0.42468  0.42468  0.00000  0.15064
       6     H     0.42369  0.42369  0.00000  0.15263
       7     C     3.15214  3.15214  0.00000 -0.30428
       8     H     0.42205  0.42205  0.00000  0.15590
       9     H     0.41671  0.41671  0.00000  0.16658
      10     C     3.15138  3.15138  0.00000 -0.30276
      11     H     0.42438  0.42438  0.00000  0.15125
      12     H     0.41923  0.41923  0.00000  0.16154
      13     C     3.23950  3.23950  0.00000 -0.47901
      14     H     0.42307  0.42307  0.00000  0.15386
      15     H     0.42194  0.42194  0.00000  0.15612
      16     H     0.42114  0.42114  0.00000  0.15771
      17     H     0.41825  0.41825  0.00000  0.16350
      18     H     0.42044  0.42044  0.00000  0.15911

   Total alpha = 25.00000, Total beta = 25.00000, Total charge = -0.00000
