  ==> Input File <==

--------------------------------------------------------------------------
set {
	reference rhf
	basis 6-31G*
}

set_num_threads( 1 )
memory 2 gb

molecule MOL {
0 1

H	 -3.185554	 0.221371	 4.748917
O	 -2.514362	 0.214660	 5.415646
C	 -1.795774	 -0.991012	 5.352084
C	 -0.864014	 -1.072707	 4.147975
H	 -1.217199	 -1.037308	 6.265748
H	 -2.476819	 -1.841263	 5.357468
C	 -1.587701	 -1.063007	 2.799253
H	 -0.167029	 -0.239974	 4.194169
H	 -0.275390	 -1.984375	 4.236004
C	 -0.629316	 -1.200743	 1.612937
H	 -2.152820	 -0.140017	 2.703878
H	 -2.310991	 -1.878095	 2.770565
C	 -1.309753	 -1.282496	 0.241564
H	 0.069657	 -0.366327	 1.618652
H	 -0.030547	 -2.098093	 1.754144
C	 -2.037799	 -0.007733	 -0.193645
H	 -0.552021	 -1.520024	 -0.502237
H	 -2.009307	 -2.117024	 0.236634
C	 -3.489788	 0.042957	 0.286558
H	 -2.017067	 0.064384	 -1.280144
H	 -1.513726	 0.868678	 0.179924
C	 -4.216917	 1.317354	 -0.141063
H	 -4.025645	 -0.823308	 -0.095450
H	 -3.513059	 -0.038752	 1.371301
H	 -4.239342	 1.411634	 -1.223113
H	 -5.243387	 1.322503	 0.212445
H	 -3.726170	 2.201406	 0.256408

	symmetry c1
}
set optking {
	frozen_dihedral = ("
		14 10 7 4,
		14 10 13 16,
		10 7 4 8,
		8 4 3 2,
		20 16 19 22,
		4 3 2 1
	")
}

ee = energy('scf')
oeprop('DIPOLE', 'QUADRUPOLE', 'MULLIKEN_CHARGES')
f=open( 'psi4out.xyz', 'w' )
f.write( "27  " )
f.write( str(ee) + "\n" )
f.write( MOL.save_string_xyz() )
f.close()
--------------------------------------------------------------------------

    Molecular point group: c1

    Geometry (in Angstrom), charge = 0, multiplicity = 1:

       Center              X                  Y                   Z               Mass
    ------------   -----------------  -----------------  -----------------  -----------------
           H         -1.108660649071     0.649480193654     2.528522271702     1.007825032070
           O         -0.437468649071     0.642769193654     3.195251271702    15.994914619560
           C          0.281119350929    -0.562902806346     3.131689271702    12.000000000000
           C          1.212879350929    -0.644597806346     1.927580271702    12.000000000000
           H          0.859694350929    -0.609198806346     4.045353271702     1.007825032070
           H         -0.399925649071    -1.413153806346     3.137073271702     1.007825032070
           C          0.489192350929    -0.634897806346     0.578858271702    12.000000000000
           H          1.909864350929     0.188135193654     1.973774271702     1.007825032070
           H          1.801503350929    -1.556265806346     2.015609271702     1.007825032070
           C          1.447577350929    -0.772633806346    -0.607457728298    12.000000000000
           H         -0.075926649071     0.288092193654     0.483483271702     1.007825032070
           H         -0.234097649071    -1.449985806346     0.550170271702     1.007825032070
           C          0.767140350929    -0.854386806346    -1.978830728298    12.000000000000
           H          2.146550350929     0.061782193654    -0.601742728298     1.007825032070
           H          2.046346350929    -1.669983806346    -0.466250728298     1.007825032070
           C          0.039094350929     0.420376193654    -2.414039728298    12.000000000000
           H          1.524872350929    -1.091914806346    -2.722631728298     1.007825032070
           H          0.067586350929    -1.688914806346    -1.983760728298     1.007825032070
           C         -1.412894649071     0.471066193654    -1.933836728298    12.000000000000
           H          0.059826350929     0.492493193654    -3.500538728298     1.007825032070
           H          0.563167350929     1.296787193654    -2.040470728298     1.007825032070
           C         -2.140023649071     1.745463193654    -2.361457728298    12.000000000000
           H         -1.948751649071    -0.395198806346    -2.315844728298     1.007825032070
           H         -1.436165649071     0.389357193654    -0.849093728298     1.007825032070
           H         -2.162448649071     1.839743193654    -3.443507728298     1.007825032070
           H         -3.166493649071     1.750612193654    -2.007949728298     1.007825032070
           H         -1.649276649071     2.629515193654    -1.963986728298     1.007825032070

  Charge       = 0
  Multiplicity = 1
  Basis Set: 6-31G*
  Basis Set:

    Orbital Energies (a.u.)
    -----------------------

    Doubly Occupied:

       1A    -20.552731     2A    -11.267254     3A    -11.219678
       4A    -11.217500     5A    -11.215677     6A    -11.215221
       7A    -11.215085     8A    -11.214123     9A    -11.209574
      10A     -1.359430    11A     -1.097539    12A     -1.060014
      13A     -1.011153    14A     -0.950065    15A     -0.889460
      16A     -0.827184    17A     -0.793558    18A     -0.780434
      19A     -0.694030    20A     -0.657497    21A     -0.632188
      22A     -0.611709    23A     -0.601663    24A     -0.589935
      25A     -0.578132    26A     -0.561472    27A     -0.542055
      28A     -0.516447    29A     -0.511354    30A     -0.495961
      31A     -0.492953    32A     -0.477412    33A     -0.468979
      34A     -0.462165    35A     -0.445483    36A     -0.438213
      37A     -0.422822

  @DF-RHF Final Energy:  -388.27514842001028

   => Energetics <=

    Nuclear Repulsion Energy =            473.9070707860057610
    One-Electron Energy =               -1465.7721119552852542
    Two-Electron Energy =                 603.5898927492694384
    DFT Exchange-Correlation Energy =       0.0000000000000000
    Empirical Dispersion Energy =           0.0000000000000000
    PCM Polarization Energy =               0.0000000000000000
    EFP Energy =                            0.0000000000000000
    Total Energy =                       -388.2751484200100549

  Mulliken Charges: (a.u.)
   Center  Symbol    Alpha    Beta     Spin     Total
       1     H     0.28004  0.28004  0.00000  0.43991
       2     O     4.37077  4.37077  0.00000 -0.74154
       3     C     2.99747  2.99747  0.00000  0.00507
       4     C     3.16013  3.16013  0.00000 -0.32025
       5     H     0.41435  0.41435  0.00000  0.17129
       6     H     0.43197  0.43197  0.00000  0.13605
       7     C     3.16542  3.16542  0.00000 -0.33085
       8     H     0.41522  0.41522  0.00000  0.16955
       9     H     0.42441  0.42441  0.00000  0.15119
      10     C     3.15078  3.15078  0.00000 -0.30157
      11     H     0.42182  0.42182  0.00000  0.15636
      12     H     0.42498  0.42498  0.00000  0.15005
      13     C     3.15701  3.15701  0.00000 -0.31402
      14     H     0.42142  0.42142  0.00000  0.15717
      15     H     0.42179  0.42179  0.00000  0.15643
      16     C     3.15463  3.15463  0.00000 -0.30925
      17     H     0.41913  0.41913  0.00000  0.16173
      18     H     0.42309  0.42309  0.00000  0.15383
      19     C     3.15275  3.15275  0.00000 -0.30549
      20     H     0.42050  0.42050  0.00000  0.15899
      21     H     0.42226  0.42226  0.00000  0.15548
      22     C     3.23951  3.23951  0.00000 -0.47902
      23     H     0.42287  0.42287  0.00000  0.15426
      24     H     0.42464  0.42464  0.00000  0.15073
      25     H     0.42127  0.42127  0.00000  0.15746
      26     H     0.42008  0.42008  0.00000  0.15985
      27     H     0.42170  0.42170  0.00000  0.15659

   Total alpha = 37.00000, Total beta = 37.00000, Total charge = -0.00000
