  ==> Input File <==

--------------------------------------------------------------------------
set {
	reference rhf
	basis 6-31G*
}

set_num_threads( 4 )
memory 2 gb

molecule MOL {
0 1

H	 -3.261111	 -0.295142	 1.469456
C	 -3.306842	 -0.277400	 0.373456
C	 -2.660244	 0.921717	 -0.272021
O	 -3.838538	 -1.161155	 -0.216482
C	 -3.416311	 1.397421	 -1.520350
H	 -2.580694	 1.708101	 0.469586
H	 -1.650650	 0.626787	 -0.555552
C	 -4.804678	 1.964680	 -1.213835
H	 -2.818157	 2.155975	 -2.016427
H	 -3.504292	 0.572460	 -2.225655
C	 -5.541758	 2.445249	 -2.465466
H	 -4.704905	 2.789891	 -0.511753
H	 -5.407766	 1.212050	 -0.709482
C	 -6.923265	 3.026670	 -2.153477
H	 -4.930323	 3.188843	 -2.970388
H	 -5.650623	 1.614224	 -3.161118
C	 -7.733697	 3.446003	 -3.385317
H	 -6.812309	 3.882025	 -1.488834
H	 -7.495757	 2.285348	 -1.599935
C	 -7.141127	 4.619909	 -4.166613
H	 -8.736114	 3.714469	 -3.061227
H	 -7.848781	 2.591336	 -4.048809
H	 -6.999580	 5.484736	 -3.523724
H	 -6.180070	 4.372675	 -4.605043
H	 -7.801155	 4.915645	 -4.976488

	symmetry c1
}
set optking {
	frozen_dihedral = ("
		6 3 2 4
	")
}

ee = optimize('scf')
oeprop('DIPOLE', 'QUADRUPOLE', 'MULLIKEN_CHARGES')
f=open( 'psi4out.xyz', 'w' )
f.write( "25  " )
f.write( str(ee) + "\n" )
f.write( MOL.save_string_xyz() )
f.close()
--------------------------------------------------------------------------

    Molecular point group: c1
  Charge       = 0
  Multiplicity = 1
  Basis Set: 6-31G*
  Basis Set:
  @DF-RHF Final Energy:  -387.12144717867830
    Total Energy =                       -387.1214471786780678
    Molecular point group: c1
  Basis Set: 6-31G*
  Basis Set:
  Basis Set: 6-31G*
  Basis Set:
  @DF-RHF Final Energy:  -387.12067178657270
    Total Energy =                       -387.1206717865725295
  Basis Set: 6-31G*
  Basis Set:
  Basis Set: 6-31G*
  Basis Set:
  @DF-RHF Final Energy:  -387.12176547612688
    Total Energy =                       -387.1217654761271660
  Basis Set: 6-31G*
  Basis Set:
  Basis Set: 6-31G*
  Basis Set:
  @DF-RHF Final Energy:  -387.12202735417219
    Total Energy =                       -387.1220273541723600
  Basis Set: 6-31G*
  Basis Set:
  Charge       = 0
  Multiplicity = 1
  Basis Set: 6-31G*
  Basis Set:

    Orbital Energies (a.u.)
    -----------------------

    Doubly Occupied:

       1A    -20.563150     2A    -11.328480     3A    -11.236314
       4A    -11.224014     5A    -11.217157     6A    -11.214566
       7A    -11.213893     8A    -11.213001     9A    -11.207800
      10A     -1.403607    11A     -1.096936    12A     -1.064546
      13A     -1.009962    14A     -0.941457    15A     -0.876459
      16A     -0.819729    17A     -0.777970    18A     -0.764806
      19A     -0.687277    20A     -0.647107    21A     -0.628380
      22A     -0.625281    23A     -0.602781    24A     -0.591213
      25A     -0.568333    26A     -0.545733    27A     -0.531756
      28A     -0.522156    29A     -0.500942    30A     -0.494915
      31A     -0.484101    32A     -0.473485    33A     -0.460074
      34A     -0.454415    35A     -0.436994    36A     -0.410804

  @DF-RHF Final Energy:  -387.12202679128649

   => Energetics <=

    Nuclear Repulsion Energy =            442.7070210746381349
    One-Electron Energy =               -1401.9789078082690139
    Two-Electron Energy =                 572.1498599423448468
    DFT Exchange-Correlation Energy =       0.0000000000000000
    Empirical Dispersion Energy =           0.0000000000000000
    PCM Polarization Energy =               0.0000000000000000
    EFP Energy =                            0.0000000000000000
    Total Energy =                       -387.1220267912860891
    Molecular point group: c1
  Basis Set: 6-31G*
  Basis Set:

  -Total Gradient:
     Atom            X                  Y                   Z
    ------   -----------------  -----------------  -----------------
       1       -0.000068280429    -0.000015911549    -0.000032381049
       2       -0.002352748948     0.001494817422     0.000538646626
       3       -0.001459213745     0.000283246588    -0.000607739710
       4        0.001938680558    -0.001200087644    -0.000238574577
       5       -0.000089425648     0.000117461557    -0.000050186553
       6        0.001998794309    -0.000739771410     0.000417905735
       7        0.000009458906    -0.000049837809    -0.000022078650
       8        0.000067923652     0.000093960967    -0.000020968644
       9       -0.000028531211     0.000034267856     0.000034103505
      10        0.000064696400     0.000052523727    -0.000010688942
      11       -0.000043817903    -0.000027059800    -0.000024593422
      12       -0.000035731400     0.000026299071    -0.000049306941
      13        0.000047631718    -0.000008762687     0.000085227897
      14       -0.000029851861    -0.000026335356    -0.000010253320
      15       -0.000004646881    -0.000022430729     0.000026420275
      16        0.000001833032    -0.000019621804    -0.000044954403
      17        0.000001584387     0.000015035082     0.000005821909
      18        0.000009652402    -0.000012761494     0.000002736749
      19       -0.000028535270     0.000011493194     0.000000448986
      20       -0.000002645643    -0.000002789441    -0.000000121776
      21       -0.000005649280    -0.000001612594    -0.000003315366
      22        0.000011186747     0.000000726303     0.000001823235
      23        0.000005002591    -0.000004608373     0.000003809074
      24       -0.000002446576    -0.000002211616    -0.000004438850
      25       -0.000004919913     0.000003970550     0.000002658207

  **** Optimization is complete! (in 5 steps) ****
    Final optimized geometry and variables:
    Molecular point group: c1

    Geometry (in Angstrom), charge = 0, multiplicity = 1:

    H            1.893572852872    -2.211775547562     3.141513239490
    C            1.764640049023    -2.129014842254     2.056865436280
    C            2.366803402688    -0.900958563338     1.411544301778
    O            1.226818485784    -3.001806107301     1.454720701364
    C            1.621389567752    -0.414184570212     0.167058024351
    H            2.469571105866    -0.117712708486     2.157784814082
    H            3.385045132251    -1.184873041037     1.143947809818
    C            0.238128438253     0.165735639332     0.471309420959
    H            2.228846800099     0.341807921725    -0.323632540571
    H            1.527066290370    -1.242165888963    -0.526841054056
    C           -0.496054576370     0.640927453245    -0.784211562577
    H            0.341336262610     0.999448059079     1.164652122181
    H           -0.366245467243    -0.584417796207     0.975171791570
    C           -1.878615976000     1.223516608108    -0.478958701320
    H            0.116277138452     1.381378658589    -1.292911955922
    H           -0.603265106413    -0.195243916288    -1.473015190462
    C           -2.688626002477     1.631607282231    -1.714838104120
    H           -1.769687304769     2.085377341231     0.177925888833
    H           -2.450881486901     0.486329922073     0.080274060719
    C           -2.095469843084     2.798091207505    -2.507170927795
    H           -3.691680428653     1.902501599493    -1.394472143473
    H           -2.802289993285     0.770406936652    -2.369992570825
    H           -1.957049508955     3.670036741335    -1.873297194381
    H           -1.132789992661     2.547607965667    -2.940293988719
    H           -2.753472584151     3.084471079175    -3.321888473614

  Mulliken Charges: (a.u.)
   Center  Symbol    Alpha    Beta     Spin     Total
       1     H     0.42636  0.42636  0.00000  0.14728
       2     C     2.83990  2.83990  0.00000  0.32020
       3     C     3.21008  3.21008  0.00000 -0.42016
       4     O     4.23876  4.23876  0.00000 -0.47751
       5     C     3.15358  3.15358  0.00000 -0.30715
       6     H     0.41370  0.41370  0.00000  0.17260
       7     H     0.40062  0.40062  0.00000  0.19876
       8     C     3.15673  3.15673  0.00000 -0.31346
       9     H     0.41877  0.41877  0.00000  0.16246
      10     H     0.40494  0.40494  0.00000  0.19012
      11     C     3.15445  3.15445  0.00000 -0.30890
      12     H     0.42570  0.42570  0.00000  0.14859
      13     H     0.41532  0.41532  0.00000  0.16936
      14     C     3.15289  3.15289  0.00000 -0.30577
      15     H     0.42234  0.42234  0.00000  0.15532
      16     H     0.42053  0.42053  0.00000  0.15894
      17     C     3.15254  3.15254  0.00000 -0.30507
      18     H     0.42521  0.42521  0.00000  0.14959
      19     H     0.42086  0.42086  0.00000  0.15829
      20     C     3.24119  3.24119  0.00000 -0.48238
      21     H     0.42099  0.42099  0.00000  0.15803
      22     H     0.42240  0.42240  0.00000  0.15519
      23     H     0.42281  0.42281  0.00000  0.15439
      24     H     0.42020  0.42020  0.00000  0.15959
      25     H     0.41916  0.41916  0.00000  0.16169

   Total alpha = 36.00000, Total beta = 36.00000, Total charge =  0.00000
