  ==> Input File <==

--------------------------------------------------------------------------
set {
	reference rhf
	basis 6-31G*
}

set_num_threads( 4 )
memory 2 gb

molecule MOL {
0 1

H	 -2.646374	 -0.642757	 1.268656
C	 -2.083525	 -0.384536	 0.393091
O	 -0.807605	 -0.127164	 0.768327
F	 -2.118945	 -1.383102	 -0.486752
F	 -2.621877	 0.670592	 -0.209486
C	 0.084052	 0.273579	 -0.209957
C	 0.801086	 1.508260	 0.320690
Cl	 -0.761767	 0.644704	 -1.721271
H	 0.821683	 -0.479648	 -0.425186
F	 1.680835	 1.941527	 -0.557069
F	 1.448045	 1.182697	 1.422003
F	 -0.030964	 2.481641	 0.600325

	symmetry c1
}
set optking {
	frozen_dihedral = ("
		9 6 3 2
	")
}

ee = optimize('scf')
oeprop('DIPOLE', 'QUADRUPOLE', 'MULLIKEN_CHARGES')
f=open( 'psi4out.xyz', 'w' )
f.write( "12  " )
f.write( str(ee) + "\n" )
f.write( MOL.save_string_xyz() )
f.close()
--------------------------------------------------------------------------

    Molecular point group: c1
  Charge       = 0
  Multiplicity = 1
  Basis Set: 6-31G*
  Basis Set:
  @DF-RHF Final Energy: -1146.28148020393132
    Total Energy =                      -1146.2814802039308688
    Molecular point group: c1
  Basis Set: 6-31G*
  Basis Set:
  Basis Set: 6-31G*
  Basis Set:
  @DF-RHF Final Energy: -1146.29695760637560
    Total Energy =                      -1146.2969576063751447
  Basis Set: 6-31G*
  Basis Set:
  Basis Set: 6-31G*
  Basis Set:
  @DF-RHF Final Energy: -1146.30166612329504
    Total Energy =                      -1146.3016661232950355
  Basis Set: 6-31G*
  Basis Set:
  Basis Set: 6-31G*
  Basis Set:
  @DF-RHF Final Energy: -1146.30360147713736
    Total Energy =                      -1146.3036014771364535
  Basis Set: 6-31G*
  Basis Set:
  @DF-RHF Final Energy: -1146.30387923668650
    Total Energy =                      -1146.3038792366849066
  @DF-RHF Final Energy: -1146.30391067998698
    Total Energy =                      -1146.3039106799869842
  Basis Set: 6-31G*
  Basis Set:
  @DF-RHF Final Energy: -1146.30391498179142
    Total Energy =                      -1146.3039149817900579
  Basis Set: 6-31G*
  Basis Set:
  Basis Set: 6-31G*
  Basis Set:
  @DF-RHF Final Energy: -1146.30392554027912
    Total Energy =                      -1146.3039255402791241
  Basis Set: 6-31G*
  Basis Set:
  Basis Set: 6-31G*
  Basis Set:
  @DF-RHF Final Energy: -1146.30392841119419
    Total Energy =                      -1146.3039284111946472
  Basis Set: 6-31G*
  Basis Set:
  Charge       = 0
  Multiplicity = 1
  Basis Set: 6-31G*
  Basis Set:

    Orbital Energies (a.u.)
    -----------------------

    Doubly Occupied:

       1A   -104.848260     2A    -26.358827     3A    -26.356802
       4A    -26.356570     5A    -26.337621     6A    -26.335329
       7A    -20.642748     8A    -11.525474     9A    -11.484919
      10A    -11.402642    11A    -10.583349    12A     -8.052734
      13A     -8.049117    14A     -8.048978    15A     -1.759715
      16A     -1.707734    17A     -1.656373    18A     -1.654552
      19A     -1.630544    20A     -1.474821    21A     -1.183295
      22A     -1.058235    23A     -0.983364    24A     -0.913989
      25A     -0.851244    26A     -0.847805    27A     -0.840850
      28A     -0.821360    29A     -0.804061    30A     -0.776519
      31A     -0.730617    32A     -0.722671    33A     -0.704382
      34A     -0.688377    35A     -0.678265    36A     -0.673125
      37A     -0.657397    38A     -0.656208    39A     -0.647185
      40A     -0.631621    41A     -0.591801    42A     -0.550308
      43A     -0.537487    44A     -0.479114    45A     -0.467940

  @DF-RHF Final Energy: -1146.30392949937868

   => Energetics <=

    Nuclear Repulsion Energy =            744.5562329620051969
    One-Electron Energy =               -3072.1916754583594411
    Two-Electron Energy =                1181.3315129969755617
    DFT Exchange-Correlation Energy =       0.0000000000000000
    Empirical Dispersion Energy =           0.0000000000000000
    PCM Polarization Energy =               0.0000000000000000
    EFP Energy =                            0.0000000000000000
    Total Energy =                      -1146.3039294993786825
    Molecular point group: c1
  Basis Set: 6-31G*
  Basis Set:

  -Total Gradient:
     Atom            X                  Y                   Z
    ------   -----------------  -----------------  -----------------
       1        0.000008065552    -0.000020090014    -0.000033570517
       2       -0.000445882148     0.001432184296     0.000191322846
       3        0.000897838732    -0.002127461972    -0.000112991323
       4        0.000008739599     0.000043708808     0.000067592183
       5        0.000028987508    -0.000002037646    -0.000006257651
       6       -0.001431862108    -0.000038267661    -0.001201767780
       7       -0.000020350826    -0.000007682265    -0.000129668292
       8       -0.000011463343    -0.000005917803    -0.000026958720
       9        0.000919207182     0.000656375240     0.001135318868
      10       -0.000021448613     0.000017235905     0.000081526420
      11        0.000014320158     0.000037791648     0.000004755359
      12        0.000053848308     0.000014161474     0.000030698633

  **** Optimization is complete! (in 10 steps) ****
    Final optimized geometry and variables:
    Molecular point group: c1

    Geometry (in Angstrom), charge = 0, multiplicity = 1:

    H           -2.075461556181    -1.469087340978     1.531817566497
    C           -1.670931246017    -1.127516677576     0.598305608008
    O           -0.374972805513    -0.802977513341     0.826596526431
    F           -1.772670901041    -2.089816687286    -0.312350584478
    F           -2.369801934039    -0.088039952155     0.165441715514
    C            0.557184800599    -0.406367002542    -0.125724563581
    C            1.270917151015     0.802538953040     0.472709641505
    CL          -0.053775580992    -0.006575065451    -1.736979588935
    H            1.283369226984    -1.192160516452    -0.246635317237
    F            2.261573449786     1.182431302803    -0.306520711774
    F            1.780120186752     0.469996634808     1.641630549058
    F            0.458197151425     1.816678703497     0.647748874832

  Mulliken Charges: (a.u.)
   Center  Symbol    Alpha    Beta     Spin     Total
       1     H     0.40505  0.40505  0.00000  0.18990
       2     C     2.55873  2.55873  0.00000  0.88255
       3     O     4.31932  4.31932  0.00000 -0.63863
       4     F     4.68466  4.68466  0.00000 -0.36932
       5     F     4.68045  4.68045  0.00000 -0.36090
       6     C     3.02275  3.02275  0.00000 -0.04551
       7     C     2.43958  2.43958  0.00000  1.12083
       8    CL     8.49864  8.49864  0.00000  0.00271
       9     H     0.37162  0.37162  0.00000  0.25675
      10     F     4.67432  4.67432  0.00000 -0.34864
      11     F     4.67628  4.67628  0.00000 -0.35256
      12     F     4.66859  4.66859  0.00000 -0.33717

   Total alpha = 45.00000, Total beta = 45.00000, Total charge = -0.00000
