                              Psi4 1.0.54 Driver

  ==> Input File <==

--------------------------------------------------------------------------
set {
	reference rhf
	basis cc-pvtz
}

set_num_threads( 4 )
memory 2 gb

molecule MOL {
0 1

O	 1.044189	 -0.222243	 0.530675
C	 0.029490	 0.077183	 0.000078
C	 -1.232113	 -0.748027	 0.000015
O	 -0.130649	 1.201773	 -0.677332
C	 -2.501422	 0.088592	 -0.000052
H	 -1.188777	 -1.400384	 -0.865133
H	 -1.188857	 -1.400312	 0.865225
H	 -2.548170	 0.725504	 -0.873205
H	 -3.371613	 -0.556398	 -0.000040
H	 -2.548215	 0.725571	 0.873047
C	 0.978409	 2.074189	 -0.758095
H	 1.281989	 2.397010	 0.226720
H	 0.650976	 2.918850	 -1.342186
H	 1.812053	 1.587042	 -1.241801

	symmetry c1
}
set optking {
	frozen_dihedral = ("
		4 2 3 6
	")
}

ee,wfn = optimize('scf', return_wfn=True)
oeprop( wfn, 'DIPOLE', 'QUADRUPOLE', 'MULLIKEN_CHARGES')
f=open( 'psi4out.xyz', 'w' )
f.write( "14  " )
f.write( str(ee) + "\n" )
f.write( MOL.save_string_xyz() )
f.close()
--------------------------------------------------------------------------

    Molecular point group: c1
  Charge       = 0
  Multiplicity = 1
  Basis Set: CC-PVTZ
  Basis Set:
  @DF-RHF Final Energy:  -305.98489973682257
    Total Energy =                       -305.9848997368222854
    Molecular point group: c1
  Basis Set: CC-PVTZ
  Basis Set:
  Basis Set: CC-PVTZ
  Basis Set:
  @DF-RHF Final Energy:  -305.98520372422911
    Total Energy =                       -305.9852037242293363
  Basis Set: CC-PVTZ
  Basis Set:
  Basis Set: CC-PVTZ
  Basis Set:
  @DF-RHF Final Energy:  -305.98135604760364
    Total Energy =                       -305.9813560476037537
  Basis Set: CC-PVTZ
  Basis Set:
  Basis Set: CC-PVTZ
  Basis Set:
  @DF-RHF Final Energy:  -305.98496436067683
    Total Energy =                       -305.9849643606769405
  Basis Set: CC-PVTZ
  Basis Set:
  Basis Set: CC-PVTZ
  Basis Set:
  @DF-RHF Final Energy:  -305.98555848558249
    Total Energy =                       -305.9855584855826010
  Basis Set: CC-PVTZ
  Basis Set:
  Basis Set: CC-PVTZ
  Basis Set:
  @DF-RHF Final Energy:  -305.98558782042591
    Total Energy =                       -305.9855878204258488
  Basis Set: CC-PVTZ
  Basis Set:
  Charge       = 0
  Multiplicity = 1
  Basis Set: CC-PVTZ
  Basis Set:

    Orbital Energies (a.u.)
    -----------------------

    Doubly Occupied:

       1A    -20.599135     2A    -20.531947     3A    -11.365162
       4A    -11.279811     5A    -11.237226     6A    -11.220966
       7A     -1.473703     8A     -1.365318     9A     -1.067603
      10A     -0.976169    11A     -0.888060    12A     -0.777078
      13A     -0.697537    14A     -0.684649    15A     -0.676275
      16A     -0.621845    17A     -0.587637    18A     -0.564793
      19A     -0.547782    20A     -0.523221    21A     -0.516867
      22A     -0.499502    23A     -0.459847    24A     -0.437275

  @DF-RHF Final Energy:  -305.98559194436814

   => Energetics <=

    Nuclear Repulsion Energy =            248.8045303092627591
    One-Electron Energy =                -910.3814277598446552
    Two-Electron Energy =                 355.5913055062137573
    DFT Exchange-Correlation Energy =       0.0000000000000000
    Empirical Dispersion Energy =           0.0000000000000000
    PCM Polarization Energy =               0.0000000000000000
    EFP Energy =                            0.0000000000000000
    Total Energy =                       -305.9855919443681387
    Molecular point group: c1
  Basis Set: CC-PVTZ
  Basis Set:

  -Total Gradient:
     Atom            X                  Y                   Z
    ------   -----------------  -----------------  -----------------
       1        0.000005479312    -0.000023251468     0.000015134408
       2        0.000339942072    -0.000646146684    -0.000373266621
       3       -0.000302182283     0.000638027483    -0.000427619067
       4       -0.000183572653     0.000464075843     0.000309162247
       5       -0.000044118665     0.000008845429    -0.000011064391
       6        0.000219342678    -0.000437773151     0.000471762449
       7        0.000009609123     0.000002288352     0.000001516241
       8       -0.000008529336     0.000003771274     0.000003899414
       9       -0.000005053245     0.000007511704    -0.000002492710
      10       -0.000002463660    -0.000001322225    -0.000002125419
      11       -0.000033532827    -0.000013929196     0.000036289682
      12        0.000008972304     0.000006376006    -0.000004717585
      13       -0.000012698248    -0.000001827000    -0.000009555802
      14        0.000008805431    -0.000006646366    -0.000006922847

  **** Optimization is complete! (in 7 steps) ****
    Final optimized geometry and variables:
    Molecular point group: c1

    Geometry (in Angstrom), charge = 0, multiplicity = 1:

    O            1.156329750601    -0.667224367510     0.929783796503
    C            0.251604590804    -0.334094700876     0.241969593466
    C           -1.073830416766    -1.054960368569     0.191199941437
    O            0.313428884939     0.695352273783    -0.583693787253
    C           -2.292350115057    -0.185782553320    -0.098658443936
    H           -0.969612228107    -1.822900288884    -0.569736310203
    H           -1.173884930594    -1.570877801348     1.135513501130
    H           -2.223142380591     0.283157095638    -1.069782875771
    H           -3.188657110694    -0.793216635023    -0.076625347342
    H           -2.401867391437     0.596060886956     0.643396318087
    C            1.530878806322     1.412204225947    -0.635431580046
    H            1.768594867437     1.828148304680     0.332152006425
    H            1.380788336334     2.201347451793    -1.354181212711
    H            2.338455183757     0.768318695871    -0.950426966871

  Mulliken Charges: (a.u.)
   Center  Symbol    Alpha    Beta     Spin     Total
       1     O     4.20109  4.20109  0.00000 -0.40219
       2     C     2.80521  2.80521  0.00000  0.38958
       3     C     3.08794  3.08794  0.00000 -0.17588
       4     O     4.14572  4.14572  0.00000 -0.29144
       5     C     3.14359  3.14359  0.00000 -0.28718
       6     H     0.44604  0.44604  0.00000  0.10791
       7     H     0.43530  0.43530  0.00000  0.12939
       8     H     0.44677  0.44677  0.00000  0.10645
       9     H     0.44898  0.44898  0.00000  0.10205
      10     H     0.45142  0.45142  0.00000  0.09717
      11     C     3.03463  3.03463  0.00000 -0.06925
      12     H     0.45354  0.45354  0.00000  0.09291
      13     H     0.44622  0.44622  0.00000  0.10755
      14     H     0.45354  0.45354  0.00000  0.09292

   Total alpha = 24.00000, Total beta = 24.00000, Total charge = -0.00000

*** Psi4 exiting successfully. Buy a developer a beer!
