  ==> Input File <==

--------------------------------------------------------------------------
set {
	reference rhf
	basis cc-pvtz
}

set_num_threads( 4 )
memory 2 gb

molecule MOL {
0 1

H	 3.292904	 -0.434182	 -0.037559
C	 2.235200	 -0.252117	 -0.028647
C	 1.495681	 -0.542549	 1.108056
C	 1.619082	 0.269603	 -1.148345
H	 1.981654	 -0.947808	 1.974306
C	 0.138586	 -0.310490	 1.123661
H	 2.193627	 0.493242	 -2.026046
C	 0.256065	 0.502115	 -1.131155
H	 -0.449931	 -0.528392	 1.992466
C	 -0.486398	 0.214248	 0.000000
H	 -0.229905	 0.907988	 -1.999069
C	 -1.946525	 0.470130	 0.000000
O	 -2.779618	 -0.371226	 0.000000
H	 -2.227127	 1.528393	 0.000000

	symmetry c1
}
set optking {
	frozen_dihedral = ("
		8 10 12 14
	")
}

ee = optimize('scf')
oeprop('DIPOLE', 'QUADRUPOLE', 'MULLIKEN_CHARGES')
f=open( 'psi4out.xyz', 'w' )
f.write( "14  " )
f.write( str(ee) + "\n" )
f.write( MOL.save_string_xyz() )
f.close()
--------------------------------------------------------------------------

    Molecular point group: c1
  Charge       = 0
  Multiplicity = 1
  Basis Set: CC-PVTZ
  Basis Set:
  @DF-RHF Final Energy:  -343.53833220162608
    Total Energy =                       -343.5383322016260763
    Molecular point group: c1
  Basis Set: CC-PVTZ
  Basis Set:
  Basis Set: CC-PVTZ
  Basis Set:
  @DF-RHF Final Energy:  -343.53705099204882
    Total Energy =                       -343.5370509920492168
  Basis Set: CC-PVTZ
  Basis Set:
  Basis Set: CC-PVTZ
  Basis Set:
  @DF-RHF Final Energy:  -343.53887243032119
    Total Energy =                       -343.5388724303211916
  Basis Set: CC-PVTZ
  Basis Set:
  Basis Set: CC-PVTZ
  Basis Set:
  @DF-RHF Final Energy:  -343.53895454346571
    Total Energy =                       -343.5389545434654792
  Basis Set: CC-PVTZ
  Basis Set:
  Basis Set: CC-PVTZ
  Basis Set:
  @DF-RHF Final Energy:  -343.53895592787626
    Total Energy =                       -343.5389559278760316
  Basis Set: CC-PVTZ
  Basis Set:
  Charge       = 0
  Multiplicity = 1
  Basis Set: CC-PVTZ
  Basis Set:

    Orbital Energies (a.u.)
    -----------------------

    Doubly Occupied:

       1A    -20.562379     2A    -11.332016     3A    -11.250246
       4A    -11.246840     5A    -11.244912     6A    -11.243109
       7A    -11.242058     8A    -11.241071     9A     -1.416876
      10A     -1.174765    11A     -1.049071    12A     -1.033470
      13A     -0.890369    14A     -0.845206    15A     -0.797919
      16A     -0.725500    17A     -0.681000    18A     -0.657175
      19A     -0.642922    20A     -0.620748    21A     -0.604238
      22A     -0.542722    23A     -0.531532    24A     -0.516342
      25A     -0.506296    26A     -0.426336    27A     -0.352171
      28A     -0.351407

  @DF-RHF Final Energy:  -343.53895625171288

   => Energetics <=

    Nuclear Repulsion Energy =            323.4541685131422355
    One-Electron Energy =               -1106.5288524143402356
    Two-Electron Energy =                 439.5357276494852954
    DFT Exchange-Correlation Energy =       0.0000000000000000
    Empirical Dispersion Energy =           0.0000000000000000
    PCM Polarization Energy =               0.0000000000000000
    EFP Energy =                            0.0000000000000000
    Total Energy =                       -343.5389562517127047
    Molecular point group: c1
  Basis Set: CC-PVTZ
  Basis Set:

  -Total Gradient:
     Atom            X                  Y                   Z
    ------   -----------------  -----------------  -----------------
       1        0.000000479978    -0.000012047940     0.000005079955
       2       -0.000000901976     0.000040570844    -0.000075697507
       3       -0.000064635463     0.000006291490     0.000042399986
       4        0.000090862231    -0.000031272833     0.000036495550
       5        0.000008601646    -0.000003618928    -0.000007820606
       6        0.000074014121    -0.000020901314     0.000043617792
       7       -0.000003998767     0.000001549512     0.000001486907
       8       -0.000727684436    -0.004287765994    -0.001407819677
       9       -0.000001261502     0.000010355866    -0.000012173575
      10        0.000897277213     0.006324154494     0.003843248707
      11        0.000000780761     0.000002264884     0.000001686748
      12       -0.000291093246    -0.002166510118    -0.008043282571
      13        0.000010505873     0.000017193330     0.000000452170
      14        0.000007053567     0.000119736705     0.005572326121

  **** Optimization is complete! (in 6 steps) ****
    Final optimized geometry and variables:
    Molecular point group: c1

    Geometry (in Angstrom), charge = 0, multiplicity = 1:

    H            3.290550281264    -0.452355109272    -0.033204751850
    C            2.235610057783    -0.256130874060    -0.025369950992
    C            1.488717207380    -0.536039083834     1.103796927166
    C            1.622319443584     0.270589483473    -1.146238996708
    H            1.962318284152    -0.951645414169     1.972261878356
    C            0.128620017588    -0.295244197095     1.112074079183
    H            2.197412837198     0.476834665277    -2.028228370189
    C            0.265469916718     0.530713402394    -1.132897340198
    H           -0.457890576916    -0.536127450952     1.977602234482
    C           -0.482427928850     0.255339441876    -0.001397891525
    H           -0.208152512168     0.944221555512    -2.004060932429
    C           -1.963002287153     0.475364905889    -0.006383949319
    O           -2.755281112649    -0.396582196793     0.081603500104
    H           -2.292576684719     1.519425387965    -0.031454664707

  Mulliken Charges: (a.u.)
   Center  Symbol    Alpha    Beta     Spin     Total
       1     H     0.42073  0.42073  0.00000  0.15854
       2     C     3.08150  3.08150  0.00000 -0.16301
       3     C     3.06355  3.06355  0.00000 -0.12710
       4     C     3.06593  3.06593  0.00000 -0.13185
       5     H     0.42104  0.42104  0.00000  0.15792
       6     C     3.09390  3.09390  0.00000 -0.18780
       7     H     0.42092  0.42092  0.00000  0.15815
       8     C     3.09543  3.09543  0.00000 -0.19087
       9     H     0.41869  0.41869  0.00000  0.16261
      10     C     2.94768  2.94768  0.00000  0.10464
      11     H     0.42448  0.42448  0.00000  0.15105
      12     C     2.93232  2.93232  0.00000  0.13536
      13     O     4.15726  4.15726  0.00000 -0.31451
      14     H     0.45657  0.45657  0.00000  0.08687

   Total alpha = 28.00000, Total beta = 28.00000, Total charge = -0.00000
