  ==> Input File <==

--------------------------------------------------------------------------
set {
	reference rhf
	basis cc-pvtz
}

set_num_threads( 4 )
memory 2 gb

molecule MOL {
0 1

H	 -4.096534	 0.566897	 -0.558421
C	 -3.331669	 0.138776	 0.056397
C	 -2.185659	 -0.199349	 -0.481822
H	 -3.524985	 -0.000635	 1.101860
O	 -1.189946	 -0.765863	 0.237511
H	 -1.978229	 -0.056276	 -1.526633
C	 0.026572	 -0.995256	 -0.379403
C	 1.057223	 0.049888	 -0.004615
H	 -0.054361	 -1.010670	 -1.459674
H	 0.397526	 -1.952058	 -0.044198
F	 2.203233	 -0.234060	 -0.590375
F	 0.698147	 1.254887	 -0.392621
F	 1.266440	 0.094219	 1.288722

	symmetry c1
}
set optking {
	frozen_dihedral = ("
		3 5 7 9
	")
}

ee = optimize('scf')
oeprop('DIPOLE', 'QUADRUPOLE', 'MULLIKEN_CHARGES')
f=open( 'psi4out.xyz', 'w' )
f.write( "13  " )
f.write( str(ee) + "\n" )
f.write( MOL.save_string_xyz() )
f.close()
--------------------------------------------------------------------------

    Molecular point group: c1
  Charge       = 0
  Multiplicity = 1
  Basis Set: CC-PVTZ
  Basis Set:
  @DF-RHF Final Energy:  -527.74179105853227
    Total Energy =                       -527.7417910585324989
    Molecular point group: c1
  Basis Set: CC-PVTZ
  Basis Set:
  Basis Set: CC-PVTZ
  Basis Set:
  @DF-RHF Final Energy:  -527.74186100423481
    Total Energy =                       -527.7418610042351474
  Basis Set: CC-PVTZ
  Basis Set:
  Basis Set: CC-PVTZ
  Basis Set:
  @DF-RHF Final Energy:  -527.74188351406872
    Total Energy =                       -527.7418835140688316
  Basis Set: CC-PVTZ
  Basis Set:
  Basis Set: CC-PVTZ
  Basis Set:
  @DF-RHF Final Energy:  -527.74189370629358
    Total Energy =                       -527.7418937062935811
  Basis Set: CC-PVTZ
  Basis Set:
  Basis Set: CC-PVTZ
  Basis Set:
  @DF-RHF Final Energy:  -527.74189712818111
    Total Energy =                       -527.7418971281811082
  Basis Set: CC-PVTZ
  Basis Set:
  Basis Set: CC-PVTZ
  Basis Set:
  @DF-RHF Final Energy:  -527.74190095194558
    Total Energy =                       -527.7419009519453539
  Basis Set: CC-PVTZ
  Basis Set:
  Basis Set: CC-PVTZ
  Basis Set:
  @DF-RHF Final Energy:  -527.74190224930419
    Total Energy =                       -527.7419022493043030
  Basis Set: CC-PVTZ
  Basis Set:
  Charge       = 0
  Multiplicity = 1
  Basis Set: CC-PVTZ
  Basis Set:

    Orbital Energies (a.u.)
    -----------------------

    Doubly Occupied:

       1A    -26.341493     2A    -26.339759     3A    -26.337601
       4A    -20.604069     5A    -11.497360     6A    -11.320350
       7A    -11.299626     8A    -11.214125     9A     -1.749929
      10A     -1.646466    11A     -1.644843    12A     -1.444961
      13A     -1.089131    14A     -1.020326    15A     -0.931858
      16A     -0.844020    17A     -0.839312    18A     -0.824127
      19A     -0.800861    20A     -0.729308    21A     -0.719211
      22A     -0.704885    23A     -0.682161    24A     -0.667373
      25A     -0.661160    26A     -0.650413    27A     -0.638917
      28A     -0.588333    29A     -0.566377    30A     -0.530330
      31A     -0.518839    32A     -0.356601

  @DF-RHF Final Energy:  -527.74190241831411

   => Energetics <=

    Nuclear Repulsion Energy =            412.1549820178390178
    One-Electron Energy =               -1548.1855208602739822
    Two-Electron Energy =                 608.2886364241210231
    DFT Exchange-Correlation Energy =       0.0000000000000000
    Empirical Dispersion Energy =           0.0000000000000000
    PCM Polarization Energy =               0.0000000000000000
    EFP Energy =                            0.0000000000000000
    Total Energy =                       -527.7419024183138845
    Molecular point group: c1
  Basis Set: CC-PVTZ
  Basis Set:

  -Total Gradient:
     Atom            X                  Y                   Z
    ------   -----------------  -----------------  -----------------
       1       -0.000007984182    -0.000003578463    -0.000001538569
       2        0.000001370102    -0.000002809605    -0.000001106378
       3       -0.000270240073    -0.000606987034    -0.000179964534
       4        0.000000037608     0.000001647185    -0.000004553062
       5        0.000381591697     0.001191095349     0.000264916762
       6       -0.000002062039    -0.000009112758     0.000002118173
       7       -0.000302378114    -0.001387916605    -0.000038605046
       8        0.000084580630    -0.000100868003     0.000015540643
       9        0.000167217074     0.000830638702    -0.000035823800
      10        0.000008799399     0.000006498976    -0.000001288344
      11       -0.000030408905     0.000029337552     0.000006638830
      12       -0.000018965191     0.000045783549    -0.000022088452
      13       -0.000011558004     0.000006271153    -0.000004246222

  **** Optimization is complete! (in 8 steps) ****
    Final optimized geometry and variables:
    Molecular point group: c1

    Geometry (in Angstrom), charge = 0, multiplicity = 1:

    H           -4.083470822318     0.607972015740    -0.534397108269
    C           -3.334591117743     0.151532689445     0.079734316385
    C           -2.154167322409    -0.106436098435    -0.428182712972
    H           -3.570465426583    -0.077736622963     1.100304586007
    O           -1.167703885978    -0.682808838751     0.293954010501
    H           -1.906104149570     0.127071717845    -1.447593293601
    C            0.036778751893    -0.964501808024    -0.326046422029
    C            1.077581649764     0.084201268067     0.005613180045
    H           -0.052046305201    -1.006079824373    -1.404367556922
    H            0.399549148227    -1.915768655731     0.034513544883
    F            2.216129101436    -0.222742674910    -0.583169224747
    F            0.717149239218     1.276861324741    -0.416905307981
    F            1.301536839745     0.168414510938     1.294518676064

  Mulliken Charges: (a.u.)
   Center  Symbol    Alpha    Beta     Spin     Total
       1     H     0.42499  0.42499  0.00000  0.15001
       2     C     3.19853  3.19853  0.00000 -0.39706
       3     C     2.95899  2.95899  0.00000  0.08201
       4     H     0.42475  0.42475  0.00000  0.15051
       5     O     4.14442  4.14442  0.00000 -0.28885
       6     H     0.43500  0.43500  0.00000  0.13001
       7     C     3.01561  3.01561  0.00000 -0.03123
       8     C     2.67539  2.67539  0.00000  0.64922
       9     H     0.45607  0.45607  0.00000  0.08786
      10     H     0.43653  0.43653  0.00000  0.12694
      11     F     4.61277  4.61277  0.00000 -0.22554
      12     F     4.61030  4.61030  0.00000 -0.22059
      13     F     4.60665  4.60665  0.00000 -0.21329

   Total alpha = 32.00000, Total beta = 32.00000, Total charge =  0.00000
