  ==> Input File <==

--------------------------------------------------------------------------
set {
	reference rhf
	basis cc-pvtz
}

set_num_threads( 4 )
memory 2 gb

molecule MOL {
0 1

H	 -2.406498	 0.775454	 2.256171
C	 -2.158673	 -0.183458	 1.806776
O	 -0.887441	 -0.169988	 1.248808
H	 -2.174299	 -0.942042	 2.575668
H	 -2.918658	 -0.422153	 1.064932
C	 -0.718530	 0.758693	 0.228682
C	 0.718529	 0.758687	 -0.228709
H	 -1.358332	 0.509837	 -0.617896
H	 -0.985500	 1.756934	 0.568789
O	 1.401606	 -0.295166	 0.366636
H	 0.748705	 0.673477	 -1.312803
H	 1.176496	 1.708671	 0.046552
C	 2.714315	 -0.441627	 -0.061017
H	 2.765292	 -0.641548	 -1.128869
H	 3.305661	 0.447341	 0.150952
H	 3.143725	 -1.278506	 0.470147

	symmetry c1
}
set optking {
	frozen_dihedral = ("
		3 6 7 11
	")
}

ee = optimize('scf')
oeprop('DIPOLE', 'QUADRUPOLE', 'MULLIKEN_CHARGES')
f=open( 'psi4out.xyz', 'w' )
f.write( "16  " )
f.write( str(ee) + "\n" )
f.write( MOL.save_string_xyz() )
f.close()
--------------------------------------------------------------------------

    Molecular point group: c1
  Charge       = 0
  Multiplicity = 1
  Basis Set: CC-PVTZ
  Basis Set:
  @DF-RHF Final Energy:  -307.08319878038799
    Total Energy =                       -307.0831987803879883
    Molecular point group: c1
  Basis Set: CC-PVTZ
  Basis Set:
  Basis Set: CC-PVTZ
  Basis Set:
  @DF-RHF Final Energy:  -307.08397877648838
    Total Energy =                       -307.0839787764886069
  Basis Set: CC-PVTZ
  Basis Set:
  Basis Set: CC-PVTZ
  Basis Set:
  @DF-RHF Final Energy:  -307.08494878947994
    Total Energy =                       -307.0849487894801086
  Basis Set: CC-PVTZ
  Basis Set:
  Basis Set: CC-PVTZ
  Basis Set:
  @DF-RHF Final Energy:  -307.08497214495662
    Total Energy =                       -307.0849721449562253
  Basis Set: CC-PVTZ
  Basis Set:
  Charge       = 0
  Multiplicity = 1
  Basis Set: CC-PVTZ
  Basis Set:

    Orbital Energies (a.u.)
    -----------------------

    Doubly Occupied:

       1A    -20.545630     2A    -20.545009     3A    -11.270057
       4A    -11.269476     5A    -11.260406     6A    -11.260147
       7A     -1.392412     8A     -1.371560     9A     -1.024479
      10A     -0.934392    11A     -0.897005    12A     -0.819209
      13A     -0.690341    14A     -0.674062    15A     -0.659837
      16A     -0.647467    17A     -0.617951    18A     -0.592071
      19A     -0.574818    20A     -0.517609    21A     -0.508351
      22A     -0.469919    23A     -0.468853    24A     -0.427626
      25A     -0.400466

  @DF-RHF Final Energy:  -307.08497313185472

   => Energetics <=

    Nuclear Repulsion Energy =            260.0315879898795970
    One-Electron Energy =                -934.5548175178253132
    Two-Electron Energy =                 367.4382563960912194
    DFT Exchange-Correlation Energy =       0.0000000000000000
    Empirical Dispersion Energy =           0.0000000000000000
    PCM Polarization Energy =               0.0000000000000000
    EFP Energy =                            0.0000000000000000
    Total Energy =                       -307.0849731318544400
    Molecular point group: c1
  Basis Set: CC-PVTZ
  Basis Set:

  -Total Gradient:
     Atom            X                  Y                   Z
    ------   -----------------  -----------------  -----------------
       1       -0.000000515032    -0.000001380591     0.000002043180
       2        0.000006760253     0.000010048217     0.000005869707
       3       -0.000751846640    -0.002275647242    -0.002015503151
       4       -0.000002230883    -0.000004659517    -0.000000502877
       5       -0.000006866457    -0.000006367958    -0.000002733570
       6        0.001008000481     0.002164133326     0.002769787841
       7       -0.000317582073     0.004029121757    -0.001110043901
       8        0.000018077171    -0.000001507909     0.000002076242
       9        0.000006086508    -0.000016323383     0.000010668870
      10       -0.000029482117     0.000011371643    -0.000023667781
      11        0.000075979240    -0.003915403221     0.000377856067
      12       -0.000020356583     0.000016213722    -0.000007856408
      13        0.000016116858    -0.000017046826    -0.000025652161
      14        0.000002427854    -0.000000955581     0.000004537487
      15       -0.000000955249     0.000004555996     0.000007392013
      16       -0.000003613328     0.000003847567     0.000005728442

  **** Optimization is complete! (in 5 steps) ****
    Final optimized geometry and variables:
    Molecular point group: c1

    Geometry (in Angstrom), charge = 0, multiplicity = 1:

    H           -2.689675361176     0.748573710135     1.629772312118
    C           -2.400181258660    -0.222093335529     1.231310141506
    O           -1.100074740420    -0.209593044169     0.746713036826
    H           -2.447747662809    -0.952191618777     2.025909949921
    H           -3.112867590593    -0.500373113244     0.457086098897
    C           -0.900386270536     0.684972661358    -0.292098153451
    C            0.556974914047     0.661029197321    -0.791335055906
    H           -1.565969236234     0.435949786581    -1.117090768004
    H           -1.152891865265     1.695865549023     0.023636356171
    O            1.260801895453    -0.400374846863    -0.241284515213
    H            0.552985756213     0.557060097418    -1.874916316346
    H            1.049797090133     1.599622999774    -0.546801154531
    C            2.576344223137    -0.482269650904    -0.674117815789
    H            2.636409649318    -0.621973560305    -1.752061576942
    H            3.140282090903     0.411491910288    -0.413433535464
    H            3.030218493612    -1.333276816051    -0.187758736389

  Mulliken Charges: (a.u.)
   Center  Symbol    Alpha    Beta     Spin     Total
       1     H     0.47316  0.47316  0.00000  0.05369
       2     C     3.03215  3.03215  0.00000 -0.06430
       3     O     4.15612  4.15612  0.00000 -0.31225
       4     H     0.44562  0.44562  0.00000  0.10877
       5     H     0.47312  0.47312  0.00000  0.05375
       6     C     2.96607  2.96607  0.00000  0.06786
       7     C     2.96691  2.96691  0.00000  0.06618
       8     H     0.47683  0.47683  0.00000  0.04634
       9     H     0.47672  0.47672  0.00000  0.04656
      10     O     4.15683  4.15683  0.00000 -0.31367
      11     H     0.47668  0.47668  0.00000  0.04664
      12     H     0.47537  0.47537  0.00000  0.04927
      13     C     3.03192  3.03192  0.00000 -0.06384
      14     H     0.47366  0.47366  0.00000  0.05269
      15     H     0.47317  0.47317  0.00000  0.05367
      16     H     0.44568  0.44568  0.00000  0.10863

   Total alpha = 25.00000, Total beta = 25.00000, Total charge = -0.00000
