  ==> Input File <==

--------------------------------------------------------------------------
set {
	reference rhf
	basis 6-31G*
}

set_num_threads( 4 )
memory 2 gb

molecule MOL {
0 1

H	 2.505165	 -5.534769	 1.578366
C	 2.373219	 -4.517746	 1.256924
C	 1.135345	 -4.076658	 0.801583
C	 3.428498	 -3.629613	 1.289433
H	 0.301378	 -4.755100	 0.769299
C	 0.962370	 -2.773306	 0.388604
H	 4.393170	 -3.953036	 1.638563
C	 3.270498	 -2.311012	 0.876171
H	 0.011847	 -2.419586	 0.034736
C	 2.032527	 -1.881839	 0.424156
H	 4.110199	 -1.644539	 0.913357
O	 1.765256	 -0.628444	 0.000000
C	 2.778419	 0.335181	 0.000000
H	 2.731280	 0.961222	 -0.884976
H	 3.711703	 -0.207767	 0.000000
H	 2.731280	 0.961222	 0.884976

	symmetry c1
}
set optking {
	frozen_dihedral = ("
		10 12 13 14
	")
}

ee = optimize('scf')
oeprop('DIPOLE', 'QUADRUPOLE', 'MULLIKEN_CHARGES')
f=open( 'psi4out.xyz', 'w' )
f.write( "16  " )
f.write( str(ee) + "\n" )
f.write( MOL.save_string_xyz() )
f.close()
--------------------------------------------------------------------------

    Molecular point group: c1
  Charge       = 0
  Multiplicity = 1
  Basis Set: 6-31G*
  Basis Set:
  @DF-RHF Final Energy:  -344.57409578078193
    Total Energy =                       -344.5740957807819314
    Molecular point group: c1
  Basis Set: 6-31G*
  Basis Set:
  Basis Set: 6-31G*
  Basis Set:
  @DF-RHF Final Energy:  -344.57464339726261
    Total Energy =                       -344.5746433972626619
  Basis Set: 6-31G*
  Basis Set:
  Basis Set: 6-31G*
  Basis Set:
  @DF-RHF Final Energy:  -344.57862681723191
    Total Energy =                       -344.5786268172319069
  Basis Set: 6-31G*
  Basis Set:
  Basis Set: 6-31G*
  Basis Set:
  @DF-RHF Final Energy:  -344.57929198190629
    Total Energy =                       -344.5792919819062945
  Basis Set: 6-31G*
  Basis Set:
  @DF-RHF Final Energy:  -344.57964805358188
    Total Energy =                       -344.5796480535818773
  Basis Set: 6-31G*
  Basis Set:
  @DF-RHF Final Energy:  -344.57983379649875
    Total Energy =                       -344.5798337964985762
  Basis Set: 6-31G*
  Basis Set:
  Basis Set: 6-31G*
  Basis Set:
  @DF-RHF Final Energy:  -344.57991043026908
    Total Energy =                       -344.5799104302688534
  Basis Set: 6-31G*
  Basis Set:
  Basis Set: 6-31G*
  Basis Set:
  @DF-RHF Final Energy:  -344.57991246581423
    Total Energy =                       -344.5799124658144592
  Basis Set: 6-31G*
  Basis Set:
  Charge       = 0
  Multiplicity = 1
  Basis Set: 6-31G*
  Basis Set:

    Orbital Energies (a.u.)
    -----------------------

    Doubly Occupied:

       1A    -20.579732     2A    -11.292472     3A    -11.278691
       4A    -11.233060     5A    -11.231499     6A    -11.224268
       7A    -11.220583     8A    -11.219760     9A     -1.408341
      10A     -1.145947    11A     -1.020303    12A     -1.013033
      13A     -0.939623    14A     -0.831337    15A     -0.804871
      16A     -0.718819    17A     -0.663876    18A     -0.661747
      19A     -0.650682    20A     -0.614838    21A     -0.588772
      22A     -0.579746    23A     -0.524685    24A     -0.515386
      25A     -0.507469    26A     -0.479055    27A     -0.453363
      28A     -0.334412    29A     -0.307395

  @DF-RHF Final Energy:  -344.57991274393822

   => Energetics <=

    Nuclear Repulsion Energy =            347.7831944179587822
    One-Electron Energy =               -1156.6386863045413520
    Two-Electron Energy =                 464.2755791426445739
    DFT Exchange-Correlation Energy =       0.0000000000000000
    Empirical Dispersion Energy =           0.0000000000000000
    PCM Polarization Energy =               0.0000000000000000
    EFP Energy =                            0.0000000000000000
    Total Energy =                       -344.5799127439379390
    Molecular point group: c1
  Basis Set: 6-31G*
  Basis Set:

  -Total Gradient:
     Atom            X                  Y                   Z
    ------   -----------------  -----------------  -----------------
       1       -0.000008993287    -0.000001497215     0.000001356627
       2        0.000065475915     0.000024434034     0.000030034700
       3       -0.000047842980     0.000051609880    -0.000041609962
       4       -0.000008005901    -0.000072515092    -0.000017427245
       5        0.000004777092    -0.000005036349     0.000002038377
       6       -0.000008546790    -0.000076764371    -0.000027091495
       7        0.000000272872     0.000006196527     0.000002747725
       8       -0.000047050451     0.000054294658    -0.000039522038
       9       -0.000000191592     0.000006007492     0.000000984935
      10       -0.000520556780    -0.000634515774    -0.002381017136
      11        0.000005728051    -0.000007598705    -0.000007454693
      12        0.001001246222     0.000509291355     0.003231531566
      13       -0.001183096549     0.002149126564     0.001300766834
      14        0.000761506264    -0.002020400037    -0.002082263214
      15       -0.000009054896     0.000008990989     0.000018474237
      16       -0.000005667188     0.000008376040     0.000008450781

  **** Optimization is complete! (in 9 steps) ****
    Final optimized geometry and variables:
    Molecular point group: c1

    Geometry (in Angstrom), charge = 0, multiplicity = 1:

    H            0.296543119560    -3.257206548465     0.720862338945
    C            0.156527010435    -2.214008750774     0.503145326637
    C           -1.061239744001    -1.753699898717     0.019246178189
    C            1.184083452625    -1.312136444440     0.704730280959
    H           -1.871016801108    -2.443173875252    -0.141311945790
    C           -1.243848114338    -0.415298059512    -0.266808321076
    H            2.130307003778    -1.651067260117     1.087874324140
    C            1.011502960852     0.037685317952     0.428784211471
    H           -2.178806507341    -0.046245888337    -0.645529420941
    C           -0.204004021412     0.485536763004    -0.066268801285
    H            1.814000087766     0.727190065634     0.613637259369
    O           -0.467080796084     1.783929669790    -0.337023571866
    C            0.557934498802     2.633384966251    -0.781410357434
    H            0.137534540038     3.268093462199    -1.549459086600
    H            1.376698677969     2.074063444179    -1.216980024961
    H            0.933536152116     3.242002699060     0.033137679747

  Mulliken Charges: (a.u.)
   Center  Symbol    Alpha    Beta     Spin     Total
       1     H     0.40101  0.40101  0.00000  0.19798
       2     C     3.11105  3.11105  0.00000 -0.22210
       3     C     3.09284  3.09284  0.00000 -0.18568
       4     C     3.09218  3.09218  0.00000 -0.18436
       5     H     0.39874  0.39874  0.00000  0.20252
       6     C     3.12498  3.12498  0.00000 -0.24995
       7     H     0.39940  0.39940  0.00000  0.20119
       8     C     3.13779  3.13779  0.00000 -0.27558
       9     H     0.39319  0.39319  0.00000  0.21362
      10     C     2.78712  2.78712  0.00000  0.42577
      11     H     0.39750  0.39750  0.00000  0.20500
      12     O     4.32976  4.32976  0.00000 -0.65951
      13     C     3.08788  3.08788  0.00000 -0.17575
      14     H     0.40896  0.40896  0.00000  0.18207
      15     H     0.41969  0.41969  0.00000  0.16062
      16     H     0.41791  0.41791  0.00000  0.16417

   Total alpha = 29.00000, Total beta = 29.00000, Total charge = -0.00000
