                              Psi4 1.0.54 Driver

  ==> Input File <==

--------------------------------------------------------------------------
set {
	reference rhf
	basis cc-pvtz
}

set_num_threads( 4 )
memory 2 gb

molecule MOL {
0 1

O	 0.784939	 1.235445	 -0.385848
C	 0.576499	 0.134701	 -0.003900
C	 -0.765656	 -0.550508	 -0.002152
O	 1.517997	 -0.651650	 0.491282
C	 -1.945526	 0.411052	 0.000603
H	 -0.794329	 -1.203792	 -0.868145
H	 -0.791555	 -1.205429	 0.862701
C	 -3.282915	 -0.321280	 0.002596
H	 -1.880300	 1.059126	 -0.864925
H	 -1.877207	 1.057892	 0.866807
H	 -3.388495	 -0.952755	 -0.873419
H	 -4.107811	 0.380864	 0.004116
H	 -3.385717	 -0.953283	 0.878571
C	 2.831025	 -0.131966	 0.553713
H	 3.187431	 0.122466	 -0.433350
H	 3.439598	 -0.912984	 0.979550
H	 2.863195	 0.748435	 1.178133

	symmetry c1
}
set optking {
	frozen_dihedral = ("
		1 2 3 6
	")
}

ee,wfn = optimize('scf', return_wfn=True)
oeprop( wfn, 'DIPOLE', 'QUADRUPOLE', 'MULLIKEN_CHARGES')
f=open( 'psi4out.xyz', 'w' )
f.write( "17  " )
f.write( str(ee) + "\n" )
f.write( MOL.save_string_xyz() )
f.close()
--------------------------------------------------------------------------

    Molecular point group: c1
  Charge       = 0
  Multiplicity = 1
  Basis Set: CC-PVTZ
  Basis Set:
  @DF-RHF Final Energy:  -345.03481617046231
    Total Energy =                       -345.0348161704623635
    Molecular point group: c1
  Basis Set: CC-PVTZ
  Basis Set:
  Basis Set: CC-PVTZ
  Basis Set:
  @DF-RHF Final Energy:  -345.03334450898433
    Total Energy =                       -345.0333445089844417
  Basis Set: CC-PVTZ
  Basis Set:
  Basis Set: CC-PVTZ
  Basis Set:
  @DF-RHF Final Energy:  -345.03496950246046
    Total Energy =                       -345.0349695024599441
  Basis Set: CC-PVTZ
  Basis Set:
  Basis Set: CC-PVTZ
  Basis Set:
  @DF-RHF Final Energy:  -345.03506133133561
    Total Energy =                       -345.0350613313350436
  Basis Set: CC-PVTZ
  Basis Set:
  Basis Set: CC-PVTZ
  Basis Set:
  @DF-RHF Final Energy:  -345.03506926386655
    Total Energy =                       -345.0350692638667738
  Basis Set: CC-PVTZ
  Basis Set:
  Charge       = 0
  Multiplicity = 1
  Basis Set: CC-PVTZ
  Basis Set:

    Orbital Energies (a.u.)
    -----------------------

    Doubly Occupied:

       1A    -20.597417     2A    -20.533811     3A    -11.364994
       4A    -11.278781     5A    -11.234178     6A    -11.220965
       7A    -11.213018     8A     -1.472808     9A     -1.366010
      10A     -1.081814    11A     -1.002405    12A     -0.940705
      13A     -0.827955    14A     -0.770170    15A     -0.702356
      16A     -0.686326    17A     -0.676209    18A     -0.638033
      19A     -0.596653    20A     -0.577735    21A     -0.567567
      22A     -0.530142    23A     -0.523887    24A     -0.500888
      25A     -0.487082    26A     -0.479472    27A     -0.460627
      28A     -0.440648

  @DF-RHF Final Energy:  -345.03507052568222

   => Energetics <=

    Nuclear Repulsion Energy =            313.0205544898230414
    One-Electron Energy =               -1090.5659389787697364
    Two-Electron Energy =                 432.5103139632646503
    DFT Exchange-Correlation Energy =       0.0000000000000000
    Empirical Dispersion Energy =           0.0000000000000000
    PCM Polarization Energy =               0.0000000000000000
    EFP Energy =                            0.0000000000000000
    Total Energy =                       -345.0350705256819879
    Molecular point group: c1
  Basis Set: CC-PVTZ
  Basis Set:

  -Total Gradient:
     Atom            X                  Y                   Z
    ------   -----------------  -----------------  -----------------
       1        0.000143472234    -0.000413508346    -0.000738256774
       2       -0.000336609948     0.000744552425     0.000946313718
       3        0.000454875567    -0.000850206486     0.000166109799
       4        0.000088910157    -0.000055120016     0.000038734483
       5        0.000000899289    -0.000003563574     0.000021869496
       6       -0.000304457282     0.000588832940    -0.000425902186
       7        0.000008108125    -0.000004506853     0.000000986169
       8       -0.000001111851     0.000002780145    -0.000009564266
       9       -0.000003174042     0.000006028660    -0.000009015499
      10        0.000003478499     0.000002817360     0.000001646612
      11       -0.000002760043    -0.000006306981    -0.000004053522
      12        0.000001555153     0.000001105306     0.000001007637
      13        0.000000640709    -0.000001125298     0.000004434150
      14       -0.000052954364    -0.000019084234     0.000018867921
      15        0.000001081893     0.000001221055    -0.000009448721
      16       -0.000005382198     0.000004970906    -0.000004317355
      17        0.000003428102     0.000001112994     0.000000588338

  **** Optimization is complete! (in 6 steps) ****
    Final optimized geometry and variables:
    Molecular point group: c1

    Geometry (in Angstrom), charge = 0, multiplicity = 1:

    O            0.777178394244     1.225000110672    -0.439216926197
    C            0.580946365617     0.122018355998    -0.056630367926
    C           -0.757341548147    -0.572117213180    -0.056517920657
    O            1.539834046666    -0.668499934961     0.395910737865
    C           -1.939666373746     0.387627188875    -0.106890819989
    H           -0.762936481146    -1.220307428242    -0.928941857071
    H           -0.807865639920    -1.222152404477     0.807821175060
    C           -3.274777133647    -0.347312920466    -0.149374976666
    H           -1.840391294047     1.029058111437    -0.972818361761
    H           -1.908043952418     1.039868103574     0.759143130571
    H           -3.346587497395    -0.981946047430    -1.026590480601
    H           -4.100519354761     0.353221234799    -0.180822447204
    H           -3.408389568757    -0.976466117553     0.724474504155
    C            2.856980007307    -0.155851527419     0.395032339710
    H            3.167070006613     0.096933005976    -0.608103991425
    H            3.481615751836    -0.939820443409     0.791323276157
    H            2.923600420856     0.724482687394     1.016783520306

  Mulliken Charges: (a.u.)
   Center  Symbol    Alpha    Beta     Spin     Total
       1     O     4.19814  4.19814  0.00000 -0.39628
       2     C     2.81018  2.81018  0.00000  0.37964
       3     C     3.09146  3.09146  0.00000 -0.18292
       4     O     4.14566  4.14566  0.00000 -0.29133
       5     C     3.08039  3.08039  0.00000 -0.16079
       6     H     0.44421  0.44421  0.00000  0.11159
       7     H     0.43891  0.43891  0.00000  0.12218
       8     C     3.15118  3.15118  0.00000 -0.30236
       9     H     0.44231  0.44231  0.00000  0.11538
      10     H     0.45046  0.45046  0.00000  0.09907
      11     H     0.45529  0.45529  0.00000  0.08941
      12     H     0.44568  0.44568  0.00000  0.10864
      13     H     0.45594  0.45594  0.00000  0.08811
      14     C     3.03632  3.03632  0.00000 -0.07265
      15     H     0.45444  0.45444  0.00000  0.09112
      16     H     0.44514  0.44514  0.00000  0.10972
      17     H     0.45427  0.45427  0.00000  0.09146

   Total alpha = 28.00000, Total beta = 28.00000, Total charge = -0.00000

*** Psi4 exiting successfully. Buy a developer a beer!
