  ==> Input File <==

--------------------------------------------------------------------------
set {
	reference rhf
	basis 6-31G*
}

set_num_threads( 1 )
memory 2 gb

molecule MOL {
0 1

H	 2.297206	 4.181371	 2.509281
C	 2.268807	 3.432355	 3.310400
C	 0.992270	 2.634603	 3.391994
O	 3.200398	 3.297831	 4.035515
C	 0.607927	 1.999901	 2.048235
H	 1.105289	 1.886691	 4.168243
H	 0.205320	 3.321151	 3.701861
C	 1.582381	 0.913913	 1.585236
H	 -0.387547	 1.575853	 2.140423
H	 0.536548	 2.777101	 1.288879
C	 1.180775	 0.282413	 0.250794
H	 1.643311	 0.141335	 2.348949
H	 2.584279	 1.329959	 1.497805
C	 2.148627	 -0.814315	 -0.201312
H	 0.175782	 -0.122042	 0.341001
H	 1.132278	 1.056278	 -0.514168
C	 3.580890	 -0.659131	 0.322722
H	 2.166869	 -0.852443	 -1.289387
H	 1.762857	 -1.776509	 0.128956
C	 4.324889	 0.564933	 -0.213704
H	 4.142010	 -1.551473	 0.056605
H	 3.564836	 -0.624694	 1.410140
H	 4.342616	 0.565491	 -1.300421
H	 3.866655	 1.493402	 0.110242
H	 5.353900	 0.572371	 0.132816

	symmetry c1
}
set optking {
	frozen_dihedral = ("
		6 3 5 8,
		6 3 2 4,
		3 5 8 12,
		12 8 11 14,
		20 17 14 18
	")
}

ee = energy('scf')
oeprop('DIPOLE', 'QUADRUPOLE', 'MULLIKEN_CHARGES')
f=open( 'psi4out.xyz', 'w' )
f.write( "25  " )
f.write( str(ee) + "\n" )
f.write( MOL.save_string_xyz() )
f.close()
--------------------------------------------------------------------------

    Molecular point group: c1

    Geometry (in Angstrom), charge = 0, multiplicity = 1:

       Center              X                  Y                   Z               Mass
    ------------   -----------------  -----------------  -----------------  -----------------
           H          0.063435010145     2.877221555055     0.890938360919     1.007825032070
           C          0.035036010145     2.128205555055     1.692057360919    12.000000000000
           C         -1.241500989855     1.330453555055     1.773651360919    12.000000000000
           O          0.966627010145     1.993681555055     2.417172360919    15.994914619560
           C         -1.625843989855     0.695751555055     0.429892360919    12.000000000000
           H         -1.128481989855     0.582541555055     2.549900360919     1.007825032070
           H         -2.028450989855     2.017001555055     2.083518360919     1.007825032070
           C         -0.651389989855    -0.390236444945    -0.033106639081    12.000000000000
           H         -2.621317989855     0.271703555055     0.522080360919     1.007825032070
           H         -1.697222989855     1.472951555055    -0.329463639081     1.007825032070
           C         -1.052995989855    -1.021736444945    -1.367548639081    12.000000000000
           H         -0.590459989855    -1.162814444945     0.730606360919     1.007825032070
           H          0.350508010145     0.025809555055    -0.120537639081     1.007825032070
           C         -0.085143989855    -2.118464444945    -1.819654639081    12.000000000000
           H         -2.057988989855    -1.426191444945    -1.277341639081     1.007825032070
           H         -1.101492989855    -0.247871444945    -2.132510639081     1.007825032070
           C          1.347119010145    -1.963280444945    -1.295620639081    12.000000000000
           H         -0.066901989855    -2.156592444945    -2.907729639081     1.007825032070
           H         -0.470913989855    -3.080658444945    -1.489386639081     1.007825032070
           C          2.091118010145    -0.739216444945    -1.832046639081    12.000000000000
           H          1.908239010145    -2.855622444945    -1.561737639081     1.007825032070
           H          1.331065010145    -1.928843444945    -0.208202639081     1.007825032070
           H          2.108845010145    -0.738658444945    -2.918763639081     1.007825032070
           H          1.632884010145     0.189252555055    -1.508100639081     1.007825032070
           H          3.120129010145    -0.731778444945    -1.485526639081     1.007825032070

  Charge       = 0
  Multiplicity = 1
  Basis Set: 6-31G*
  Basis Set:

    Orbital Energies (a.u.)
    -----------------------

    Doubly Occupied:

       1A    -20.562079     2A    -11.326170     3A    -11.234620
       4A    -11.233988     5A    -11.221555     6A    -11.219070
       7A    -11.216110     8A    -11.215466     9A    -11.209308
      10A     -1.402090    11A     -1.106475    12A     -1.068643
      13A     -1.007288    14A     -0.946588    15A     -0.874274
      16A     -0.832134    17A     -0.789052    18A     -0.764277
      19A     -0.667067    20A     -0.662680    21A     -0.634522
      22A     -0.627881    23A     -0.609214    24A     -0.587874
      25A     -0.562032    26A     -0.559551    27A     -0.539670
      28A     -0.520595    29A     -0.513643    30A     -0.498374
      31A     -0.489254    32A     -0.481166    33A     -0.451476
      34A     -0.450433    35A     -0.445918    36A     -0.409404

  @DF-RHF Final Energy:  -387.11106923013955

   => Energetics <=

    Nuclear Repulsion Energy =            458.3442507654648921
    One-Electron Energy =               -1433.0306882674713052
    Two-Electron Energy =                 587.5753682718653863
    DFT Exchange-Correlation Energy =       0.0000000000000000
    Empirical Dispersion Energy =           0.0000000000000000
    PCM Polarization Energy =               0.0000000000000000
    EFP Energy =                            0.0000000000000000
    Total Energy =                       -387.1110692301409699

  Mulliken Charges: (a.u.)
   Center  Symbol    Alpha    Beta     Spin     Total
       1     H     0.43269  0.43269  0.00000  0.13462
       2     C     2.83106  2.83106  0.00000  0.33788
       3     C     3.20782  3.20782  0.00000 -0.41565
       4     O     4.23799  4.23799  0.00000 -0.47598
       5     C     3.16468  3.16468  0.00000 -0.32937
       6     H     0.39999  0.39999  0.00000  0.20002
       7     H     0.40673  0.40673  0.00000  0.18653
       8     C     3.16308  3.16308  0.00000 -0.32616
       9     H     0.41333  0.41333  0.00000  0.17333
      10     H     0.42015  0.42015  0.00000  0.15969
      11     C     3.15518  3.15518  0.00000 -0.31036
      12     H     0.41765  0.41765  0.00000  0.16470
      13     H     0.41459  0.41459  0.00000  0.17082
      14     C     3.15357  3.15357  0.00000 -0.30714
      15     H     0.41938  0.41938  0.00000  0.16123
      16     H     0.42208  0.42208  0.00000  0.15583
      17     C     3.16307  3.16307  0.00000 -0.32614
      18     H     0.42095  0.42095  0.00000  0.15810
      19     H     0.42049  0.42049  0.00000  0.15901
      20     C     3.24056  3.24056  0.00000 -0.48112
      21     H     0.41830  0.41830  0.00000  0.16339
      22     H     0.41684  0.41684  0.00000  0.16632
      23     H     0.42181  0.42181  0.00000  0.15638
      24     H     0.42159  0.42159  0.00000  0.15682
      25     H     0.41639  0.41639  0.00000  0.16722

   Total alpha = 36.00000, Total beta = 36.00000, Total charge =  0.00000
