  ==> Input File <==

--------------------------------------------------------------------------
set {
	reference rhf
	basis cc-pvtz
}

set_num_threads( 4 )
memory 2 gb

molecule MOL {
0 1

H	 -2.816458	 -0.841657	 -0.064679
N	 -1.878861	 -0.711874	 0.250184
C	 -1.341419	 0.551458	 -0.220231
H	 -1.333674	 -1.468530	 -0.105118
C	 -2.398632	 1.630338	 -0.165748
H	 -0.474580	 0.891060	 0.345282
H	 -1.030471	 0.433610	 -1.252449
O	 -2.744982	 1.854252	 1.167524
H	 -2.014629	 2.546893	 -0.611440
H	 -3.271761	 1.315382	 -0.732649
C	 -3.763199	 2.781078	 1.350408
H	 -3.941655	 2.873750	 2.411988
H	 -3.488107	 3.757077	 0.956144
H	 -4.683388	 2.461819	 0.866787

	symmetry c1
}
set optking {
	frozen_dihedral = ("
		6 3 2 4
	")
}

ee = optimize('scf')
oeprop('DIPOLE', 'QUADRUPOLE', 'MULLIKEN_CHARGES')
f=open( 'psi4out.xyz', 'w' )
f.write( "14  " )
f.write( str(ee) + "\n" )
f.write( MOL.save_string_xyz() )
f.close()
--------------------------------------------------------------------------

    Molecular point group: c1
  Charge       = 0
  Multiplicity = 1
  Basis Set: CC-PVTZ
  Basis Set:
  @DF-RHF Final Energy:  -248.21852787058498
    Total Energy =                       -248.2185278705849782
    Molecular point group: c1
  Basis Set: CC-PVTZ
  Basis Set:
  Basis Set: CC-PVTZ
  Basis Set:
  @DF-RHF Final Energy:  -248.22022206630666
    Total Energy =                       -248.2202220663067465
  Basis Set: CC-PVTZ
  Basis Set:
  Basis Set: CC-PVTZ
  Basis Set:
  @DF-RHF Final Energy:  -248.22040366193758
    Total Energy =                       -248.2204036619376666
  Basis Set: CC-PVTZ
  Basis Set:
  Basis Set: CC-PVTZ
  Basis Set:
  @DF-RHF Final Energy:  -248.22041019275113
    Total Energy =                       -248.2204101927512738
  Basis Set: CC-PVTZ
  Basis Set:
  Charge       = 0
  Multiplicity = 1
  Basis Set: CC-PVTZ
  Basis Set:

    Orbital Energies (a.u.)
    -----------------------

    Doubly Occupied:

       1A    -20.547196     2A    -15.525183     3A    -11.268723
       4A    -11.261869     5A    -11.241498     6A     -1.383572
       7A     -1.176977     8A     -1.001498     9A     -0.906442
      10A     -0.820632    11A     -0.684888    12A     -0.668322
      13A     -0.653882    14A     -0.614122    15A     -0.587888
      16A     -0.572053    17A     -0.519827    18A     -0.500400
      19A     -0.467952    20A     -0.419248    21A     -0.382963

  @DF-RHF Final Energy:  -248.22041081756808

   => Energetics <=

    Nuclear Repulsion Energy =            193.8510161762670521
    One-Electron Energy =                -721.7325937231698845
    Two-Electron Energy =                 279.6611667293348660
    DFT Exchange-Correlation Energy =       0.0000000000000000
    Empirical Dispersion Energy =           0.0000000000000000
    PCM Polarization Energy =               0.0000000000000000
    EFP Energy =                            0.0000000000000000
    Total Energy =                       -248.2204108175679380
    Molecular point group: c1
  Basis Set: CC-PVTZ
  Basis Set:

  -Total Gradient:
     Atom            X                  Y                   Z
    ------   -----------------  -----------------  -----------------
       1        0.000011257197     0.000010008385     0.000011562767
       2        0.001175106643     0.000474009986     0.002222694891
       3        0.001078795803    -0.001131832657    -0.001720642548
       4       -0.001149407422    -0.000157704784    -0.001611194861
       5        0.000011754441    -0.000050866095    -0.000019843400
       6       -0.001140678699     0.000849649098     0.001127745587
       7       -0.000014243916    -0.000004049544    -0.000016000088
       8        0.000017188464     0.000008886047    -0.000000066272
       9        0.000002159524     0.000011115124     0.000032526405
      10       -0.000001733061    -0.000009821890    -0.000016261181
      11        0.000023114782     0.000006420938    -0.000011580444
      12       -0.000003697118    -0.000002640516    -0.000000195348
      13       -0.000004788566     0.000000852843     0.000002335628
      14       -0.000004828073    -0.000004026936    -0.000001081135

  **** Optimization is complete! (in 5 steps) ****
    Final optimized geometry and variables:
    Molecular point group: c1

    Geometry (in Angstrom), charge = 0, multiplicity = 1:

    H           -0.316213768557    -2.137919874753    -0.577581588786
    N            0.606413154778    -1.959127186153    -0.239787806057
    C            1.086784962870    -0.669393355423    -0.707741917369
    H            1.184490129753    -2.698518297593    -0.578123866128
    C            0.021089564154     0.402664421047    -0.620930487096
    H            1.918689286585    -0.360202472355    -0.085625978693
    H            1.433668950350    -0.692466157726    -1.740618894174
    O           -0.323065973864     0.640064608621     0.703619163696
    H            0.401457808565     1.314414949658    -1.080489192610
    H           -0.859183026913     0.098878181414    -1.191113785293
    C           -1.305023160079     1.605461653819     0.876232082706
    H           -1.485488741205     1.707919645532     1.936292367243
    H           -0.992608258205     2.569715081628     0.479578765086
    H           -2.235822712748     1.320627322893     0.389560609872

  Mulliken Charges: (a.u.)
   Center  Symbol    Alpha    Beta     Spin     Total
       1     H     0.43450  0.43450  0.00000  0.13100
       2     N     3.67944  3.67944  0.00000 -0.35889
       3     C     3.01819  3.01819  0.00000 -0.03638
       4     H     0.43193  0.43193  0.00000  0.13614
       5     C     2.96817  2.96817  0.00000  0.06365
       6     H     0.45802  0.45802  0.00000  0.08396
       7     H     0.47026  0.47026  0.00000  0.05948
       8     O     4.16623  4.16623  0.00000 -0.33245
       9     H     0.46936  0.46936  0.00000  0.06128
      10     H     0.47972  0.47972  0.00000  0.04055
      11     C     3.03216  3.03216  0.00000 -0.06432
      12     H     0.44577  0.44577  0.00000  0.10847
      13     H     0.47317  0.47317  0.00000  0.05366
      14     H     0.47308  0.47308  0.00000  0.05384

   Total alpha = 21.00000, Total beta = 21.00000, Total charge =  0.00000
