  ==> Input File <==

--------------------------------------------------------------------------
set {
	reference rhf
	basis 6-31G*
}

set_num_threads( 1 )
memory 2 gb

molecule MOL {
0 1

H	 -2.540805	 -2.582643	 -4.542849
O	 -2.942398	 -3.438840	 -4.569707
C	 -2.189168	 -4.339612	 -3.798146
C	 -2.333477	 -4.112421	 -2.297384
H	 -2.555277	 -5.325219	 -4.055474
H	 -1.138665	 -4.300349	 -4.083946
C	 -1.799298	 -2.760345	 -1.818415
H	 -3.384092	 -4.203718	 -2.034251
H	 -1.806356	 -4.912991	 -1.781054
C	 -1.908990	 -2.585073	 -0.301159
H	 -2.345625	 -1.963968	 -2.316086
H	 -0.755414	 -2.657705	 -2.115249
C	 -1.309753	 -1.282496	 0.241564
H	 -2.955329	 -2.649340	 -0.008087
H	 -1.407712	 -3.421701	 0.180998
C	 -2.037799	 -0.007733	 -0.193645
H	 -1.315037	 -1.330774	 1.328513
H	 -0.263186	 -1.218464	 -0.052435
C	 -3.489788	 0.042957	 0.286558
H	 -2.017067	 0.064384	 -1.280144
H	 -1.513726	 0.868678	 0.179924
C	 -4.216917	 1.317354	 -0.141063
H	 -4.025645	 -0.823308	 -0.095450
H	 -3.513059	 -0.038752	 1.371301
H	 -4.239342	 1.411634	 -1.223113
H	 -5.243387	 1.322503	 0.212445
H	 -3.726170	 2.201406	 0.256408

	symmetry c1
}
set optking {
	frozen_dihedral = ("
		14 10 7 4,
		14 10 13 16,
		10 7 4 8,
		8 4 3 2,
		20 16 19 22,
		4 3 2 1
	")
}

ee = energy('scf')
oeprop('DIPOLE', 'QUADRUPOLE', 'MULLIKEN_CHARGES')
f=open( 'psi4out.xyz', 'w' )
f.write( "27  " )
f.write( str(ee) + "\n" )
f.write( MOL.save_string_xyz() )
f.close()
--------------------------------------------------------------------------

    Molecular point group: c1

    Geometry (in Angstrom), charge = 0, multiplicity = 1:

       Center              X                  Y                   Z               Mass
    ------------   -----------------  -----------------  -----------------  -----------------
           H         -0.054311633992    -0.665229925126    -3.086155977879     1.007825032070
           O         -0.455904633992    -1.521426925126    -3.113013977879    15.994914619560
           C          0.297325366008    -2.422198925126    -2.341452977879    12.000000000000
           C          0.153016366008    -2.195007925126    -0.840690977879    12.000000000000
           H         -0.068783633992    -3.407805925126    -2.598780977879     1.007825032070
           H          1.347828366008    -2.382935925126    -2.627252977879     1.007825032070
           C          0.687195366008    -0.842931925126    -0.361721977879    12.000000000000
           H         -0.897598633992    -2.286304925126    -0.577557977879     1.007825032070
           H          0.680137366008    -2.995577925126    -0.324360977879     1.007825032070
           C          0.577503366008    -0.667659925126     1.155534022121    12.000000000000
           H          0.140868366008    -0.046554925126    -0.859392977879     1.007825032070
           H          1.731079366008    -0.740291925126    -0.658555977879     1.007825032070
           C          1.176740366008     0.634917074874     1.698257022121    12.000000000000
           H         -0.468835633992    -0.731926925126     1.448606022121     1.007825032070
           H          1.078781366008    -1.504287925126     1.637691022121     1.007825032070
           C          0.448694366008     1.909680074874     1.263048022121    12.000000000000
           H          1.171456366008     0.586639074874     2.785206022121     1.007825032070
           H          2.223307366008     0.698949074874     1.404258022121     1.007825032070
           C         -1.003294633992     1.960370074874     1.743251022121    12.000000000000
           H          0.469426366008     1.981797074874     0.176549022121     1.007825032070
           H          0.972767366008     2.786091074874     1.636617022121     1.007825032070
           C         -1.730423633992     3.234767074874     1.315630022121    12.000000000000
           H         -1.539151633992     1.094105074874     1.361243022121     1.007825032070
           H         -1.026565633992     1.878661074874     2.827994022121     1.007825032070
           H         -1.752848633992     3.329047074874     0.233580022121     1.007825032070
           H         -2.756893633992     3.239916074874     1.669138022121     1.007825032070
           H         -1.239676633992     4.118819074874     1.713101022121     1.007825032070

  Charge       = 0
  Multiplicity = 1
  Basis Set: 6-31G*
  Basis Set:

    Orbital Energies (a.u.)
    -----------------------

    Doubly Occupied:

       1A    -20.552586     2A    -11.267314     3A    -11.220207
       4A    -11.216673     5A    -11.215601     6A    -11.215556
       7A    -11.215002     8A    -11.214076     9A    -11.208884
      10A     -1.359331    11A     -1.097057    12A     -1.060238
      13A     -1.009754    14A     -0.949218    15A     -0.887163
      16A     -0.830503    17A     -0.803505    18A     -0.764810
      19A     -0.693812    20A     -0.654327    21A     -0.636999
      22A     -0.611929    23A     -0.601533    24A     -0.589051
      25A     -0.576536    26A     -0.565886    27A     -0.532217
      28A     -0.523641    29A     -0.510847    30A     -0.494655
      31A     -0.489666    32A     -0.479869    33A     -0.467839
      34A     -0.452513    35A     -0.447693    36A     -0.443682
      37A     -0.423845

  @DF-RHF Final Energy:  -388.27940721985385

   => Energetics <=

    Nuclear Repulsion Energy =            469.3688701257791536
    One-Electron Energy =               -1456.7289777263326869
    Two-Electron Energy =                 599.0807003806999091
    DFT Exchange-Correlation Energy =       0.0000000000000000
    Empirical Dispersion Energy =           0.0000000000000000
    PCM Polarization Energy =               0.0000000000000000
    EFP Energy =                            0.0000000000000000
    Total Energy =                       -388.2794072198536242

  Mulliken Charges: (a.u.)
   Center  Symbol    Alpha    Beta     Spin     Total
       1     H     0.27988  0.27988  0.00000  0.44023
       2     O     4.37098  4.37098  0.00000 -0.74195
       3     C     2.99741  2.99741  0.00000  0.00519
       4     C     3.16071  3.16071  0.00000 -0.32141
       5     H     0.41438  0.41438  0.00000  0.17124
       6     H     0.43194  0.43194  0.00000  0.13612
       7     C     3.16292  3.16292  0.00000 -0.32583
       8     H     0.41520  0.41520  0.00000  0.16959
       9     H     0.42414  0.42414  0.00000  0.15172
      10     C     3.15602  3.15602  0.00000 -0.31203
      11     H     0.42375  0.42375  0.00000  0.15249
      12     H     0.42504  0.42504  0.00000  0.14992
      13     C     3.15492  3.15492  0.00000 -0.30984
      14     H     0.41912  0.41912  0.00000  0.16175
      15     H     0.42078  0.42078  0.00000  0.15844
      16     C     3.15343  3.15343  0.00000 -0.30687
      17     H     0.42146  0.42146  0.00000  0.15709
      18     H     0.42234  0.42234  0.00000  0.15532
      19     C     3.15468  3.15468  0.00000 -0.30936
      20     H     0.42476  0.42476  0.00000  0.15049
      21     H     0.42080  0.42080  0.00000  0.15840
      22     C     3.23830  3.23830  0.00000 -0.47660
      23     H     0.42063  0.42063  0.00000  0.15873
      24     H     0.42308  0.42308  0.00000  0.15385
      25     H     0.42219  0.42219  0.00000  0.15561
      26     H     0.41904  0.41904  0.00000  0.16192
      27     H     0.42209  0.42209  0.00000  0.15581

   Total alpha = 37.00000, Total beta = 37.00000, Total charge =  0.00000
