                              Psi4 1.0.54 Driver

  ==> Input File <==

--------------------------------------------------------------------------
set {
	reference rhf
	basis cc-pvtz
}

set_num_threads( 4 )
memory 2 gb

molecule MOL {
0 1

O	 1.847685	 1.294399	 -0.000190
C	 1.704209	 0.119472	 -0.000093
C	 0.380337	 -0.600947	 -0.000234
O	 2.715427	 -0.733672	 0.000025
C	 -0.824290	 0.329213	 -0.000115
H	 0.371455	 -1.255476	 -0.865660
H	 0.371410	 -1.255787	 0.864952
C	 -1.184103	 0.813279	 -1.401626
H	 -0.619747	 1.178651	 0.641672
H	 -1.671479	 -0.183424	 0.441207
C	 -2.390643	 1.747261	 -1.421814
H	 -0.329471	 1.324275	 -1.839505
H	 -1.384923	 -0.043543	 -2.040973
C	 -2.750002	 2.231481	 -2.822458
H	 -2.190789	 2.603891	 -0.784317
H	 -3.245261	 1.237349	 -0.986180
H	 -1.926234	 2.775998	 -3.272060
H	 -3.609335	 2.891645	 -2.800914
H	 -2.989430	 1.398683	 -3.475418
C	 4.020999	 -0.192556	 0.000019
H	 4.182809	 0.412891	 -0.879449
H	 4.692590	 -1.035653	 0.000152
H	 4.182726	 0.413087	 0.879368

	symmetry c1
}
set optking {
	frozen_dihedral = ("
		9 5 3 6
	")
}

ee,wfn = optimize('scf', return_wfn=True)
oeprop( wfn, 'DIPOLE', 'QUADRUPOLE', 'MULLIKEN_CHARGES')
f=open( 'psi4out.xyz', 'w' )
f.write( "23  " )
f.write( str(ee) + "\n" )
f.write( MOL.save_string_xyz() )
f.close()
--------------------------------------------------------------------------

    Molecular point group: c1
  Charge       = 0
  Multiplicity = 1
  Basis Set: CC-PVTZ
  Basis Set:
  @DF-RHF Final Energy:  -423.12967473077140
    Total Energy =                       -423.1296747307711712
    Molecular point group: c1
  Basis Set: CC-PVTZ
  Basis Set:
  Basis Set: CC-PVTZ
  Basis Set:
  @DF-RHF Final Energy:  -423.12988419984742
    Total Energy =                       -423.1298841998473108
  Basis Set: CC-PVTZ
  Basis Set:
  Basis Set: CC-PVTZ
  Basis Set:
  @DF-RHF Final Energy:  -423.12963539247852
    Total Energy =                       -423.1296353924790310
  Basis Set: CC-PVTZ
  Basis Set:
  Basis Set: CC-PVTZ
  Basis Set:
  @DF-RHF Final Energy:  -423.12993650533258
    Total Energy =                       -423.1299365053328074
  Basis Set: CC-PVTZ
  Basis Set:
  Basis Set: CC-PVTZ
  Basis Set:
  @DF-RHF Final Energy:  -423.12994280698996
    Total Energy =                       -423.1299428069899022
  Basis Set: CC-PVTZ
  Basis Set:
  Basis Set: CC-PVTZ
  Basis Set:
  @DF-RHF Final Energy:  -423.12994659884703
    Total Energy =                       -423.1299465988470274
  Basis Set: CC-PVTZ
  Basis Set:
  Basis Set: CC-PVTZ
  Basis Set:
  @DF-RHF Final Energy:  -423.12994831642260
    Total Energy =                       -423.1299483164234516
  Basis Set: CC-PVTZ
  Basis Set:
  Charge       = 0
  Multiplicity = 1
  Basis Set: CC-PVTZ
  Basis Set:

    Orbital Energies (a.u.)
    -----------------------

    Doubly Occupied:

       1A    -20.597021     2A    -20.534988     3A    -11.365382
       4A    -11.279026     5A    -11.234054     6A    -11.216780
       7A    -11.211280     8A    -11.210406     9A    -11.204549
      10A     -1.473054    11A     -1.366533    12A     -1.092063
      13A     -1.042604    14A     -0.987066    15A     -0.930897
      16A     -0.843794    17A     -0.793809    18A     -0.768344
      19A     -0.704300    20A     -0.684293    21A     -0.675896
      22A     -0.640779    23A     -0.614412    24A     -0.600225
      25A     -0.569723    26A     -0.558090    27A     -0.553982
      28A     -0.532744    29A     -0.524115    30A     -0.499925
      31A     -0.492104    32A     -0.466666    33A     -0.465246
      34A     -0.458848    35A     -0.451976    36A     -0.440522

  @DF-RHF Final Energy:  -423.12994851147874

   => Energetics <=

    Nuclear Repulsion Energy =            462.0236433806387026
    One-Electron Energy =               -1492.1361813868588797
    Two-Electron Energy =                 606.9825894947414326
    DFT Exchange-Correlation Energy =       0.0000000000000000
    Empirical Dispersion Energy =           0.0000000000000000
    PCM Polarization Energy =               0.0000000000000000
    EFP Energy =                            0.0000000000000000
    Total Energy =                       -423.1299485114786876
    Molecular point group: c1
  Basis Set: CC-PVTZ
  Basis Set:

  -Total Gradient:
     Atom            X                  Y                   Z
    ------   -----------------  -----------------  -----------------
       1       -0.000030430856     0.000004575031     0.000005006893
       2        0.000007230584     0.000004678487    -0.000013193015
       3       -0.001371116948    -0.001787567183     0.001181950008
       4       -0.000025176894    -0.000005798991     0.000003324603
       5       -0.000792861762    -0.000989850654     0.001976025654
       6        0.001247874250     0.001626139534    -0.001271041672
       7        0.000006488761     0.000000042278     0.000000844740
       8       -0.000001917869     0.000003895460    -0.000005998349
       9        0.000908881541     0.001150315661    -0.001875818059
      10       -0.000004459899    -0.000001316947    -0.000004140342
      11        0.000000223315     0.000015705283    -0.000001623662
      12       -0.000003343134     0.000000982747     0.000004459688
      13       -0.000000065634    -0.000002054444     0.000001610293
      14       -0.000001354489    -0.000006044212     0.000000518784
      15        0.000003610396    -0.000000976897     0.000000785868
      16        0.000002920325    -0.000002755391    -0.000003091704
      17       -0.000000919017     0.000000062485     0.000003043953
      18        0.000000136693    -0.000001664366     0.000002836362
      19        0.000000501454    -0.000000359174    -0.000003077522
      20        0.000048326728    -0.000004362536    -0.000002158078
      21       -0.000000304798    -0.000004238549     0.000007624487
      22        0.000007769891     0.000004523648     0.000000184479
      23       -0.000002012643    -0.000003931269    -0.000008073412

  **** Optimization is complete! (in 8 steps) ****
    Final optimized geometry and variables:
    Molecular point group: c1

    Geometry (in Angstrom), charge = 0, multiplicity = 1:

    O            1.408276299031     0.751887051016     0.698531790600
    C            1.274515967161    -0.423461613090     0.649049149488
    C           -0.041697843619    -1.163493558208     0.668434840202
    O            2.293221691747    -1.264249378728     0.579462175127
    C           -1.264885597412    -0.251455744821     0.633977047368
    H           -0.027622476362    -1.840715441473    -0.178414019787
    H           -0.032039877091    -1.784225372169     1.557355010255
    C           -1.623616076048     0.224350307327    -0.772601400864
    H           -1.076204543614     0.614003196285     1.256500674676
    H           -2.109467102669    -0.783362190539     1.059120246284
    C           -2.824087658749     1.165500829513    -0.796731961952
    H           -0.766867027704     0.727962611443    -1.209831431059
    H           -1.832530861881    -0.638476177056    -1.401726481824
    C           -3.189834349615     1.632519089292    -2.201594388996
    H           -2.611826480908     2.029622194098    -0.173931944282
    H           -3.680366367033     0.668461901076    -0.348189595581
    H           -2.364537853084     2.163902665216    -2.663456098351
    H           -4.043866045361     2.299821757893    -2.183680552637
    H           -3.440220432836     0.792481036812    -2.841217656209
    C            3.593611032299    -0.710584890187     0.571365961113
    H            3.726335310972    -0.061738381829    -0.281585298151
    H            4.272323950325    -1.545892127157     0.512702658864
    H            3.773599119254    -0.146671839743     1.474584687945

  Mulliken Charges: (a.u.)
   Center  Symbol    Alpha    Beta     Spin     Total
       1     O     4.19922  4.19922  0.00000 -0.39844
       2     C     2.80318  2.80318  0.00000  0.39363
       3     C     3.11138  3.11138  0.00000 -0.22276
       4     O     4.14612  4.14612  0.00000 -0.29223
       5     C     3.09456  3.09456  0.00000 -0.18913
       6     H     0.43937  0.43937  0.00000  0.12126
       7     H     0.43092  0.43092  0.00000  0.13816
       8     C     3.08583  3.08583  0.00000 -0.17167
       9     H     0.44360  0.44360  0.00000  0.11280
      10     H     0.44590  0.44590  0.00000  0.10820
      11     C     3.08595  3.08595  0.00000 -0.17190
      12     H     0.44870  0.44870  0.00000  0.10260
      13     H     0.45791  0.45791  0.00000  0.08418
      14     C     3.15015  3.15015  0.00000 -0.30031
      15     H     0.45146  0.45146  0.00000  0.09709
      16     H     0.45607  0.45607  0.00000  0.08786
      17     H     0.45381  0.45381  0.00000  0.09239
      18     H     0.44863  0.44863  0.00000  0.10274
      19     H     0.45630  0.45630  0.00000  0.08739
      20     C     3.03683  3.03683  0.00000 -0.07366
      21     H     0.45439  0.45439  0.00000  0.09122
      22     H     0.44538  0.44538  0.00000  0.10924
      23     H     0.45433  0.45433  0.00000  0.09135

   Total alpha = 36.00000, Total beta = 36.00000, Total charge = -0.00000

*** Psi4 exiting successfully. Buy a developer a beer!
