  ==> Input File <==

--------------------------------------------------------------------------
set {
	reference rhf
	basis cc-pvtz
}

set_num_threads( 4 )
memory 2 gb

molecule MOL {
0 1

O	 -0.294688	 1.318815	 -0.000872
C	 -0.448732	 0.145721	 -0.000187
C	 -1.780748	 -0.548101	 0.000195
O	 0.550743	 -0.719877	 0.000412
H	 -1.859389	 -1.183260	 -0.872613
H	 -2.570236	 0.185547	 -0.001342
H	 -1.860233	 -1.180337	 0.875064
C	 1.753032	 -0.321680	 -0.628083
H	 1.583711	 -0.108420	 -1.673013
H	 2.432717	 -1.151468	 -0.522433
H	 2.159474	 0.557119	 -0.150026

	symmetry c1
}
set optking {
	frozen_dihedral = ("
		8 4 2 1
	")
}

ee = optimize('scf')
oeprop('DIPOLE', 'QUADRUPOLE', 'MULLIKEN_CHARGES')
f=open( 'psi4out.xyz', 'w' )
f.write( "11  " )
f.write( str(ee) + "\n" )
f.write( MOL.save_string_xyz() )
f.close()
--------------------------------------------------------------------------

    Molecular point group: c1
  Charge       = 0
  Multiplicity = 1
  Basis Set: CC-PVTZ
  Basis Set:
  @DF-RHF Final Energy:  -266.93408563371986
    Total Energy =                       -266.9340856337198034
    Molecular point group: c1
  Basis Set: CC-PVTZ
  Basis Set:
  Basis Set: CC-PVTZ
  Basis Set:
  @DF-RHF Final Energy:  -266.93056910053332
    Total Energy =                       -266.9305691005332619
  Basis Set: CC-PVTZ
  Basis Set:
  Basis Set: CC-PVTZ
  Basis Set:
  @DF-RHF Final Energy:  -266.93449777869904
    Total Energy =                       -266.9344977786991535
  Basis Set: CC-PVTZ
  Basis Set:
  Basis Set: CC-PVTZ
  Basis Set:
  @DF-RHF Final Energy:  -266.93456370298617
    Total Energy =                       -266.9345637029862246
  Basis Set: CC-PVTZ
  Basis Set:
  @DF-RHF Final Energy:  -266.93457396693628
    Total Energy =                       -266.9345739669362274
  @DF-RHF Final Energy:  -266.93457705500697
    Total Energy =                       -266.9345770550067982
  @DF-RHF Final Energy:  -266.93456518348262
    Total Energy =                       -266.9345651834826185
  @DF-RHF Final Energy:  -266.93458650487548
    Total Energy =                       -266.9345865048755400
  @DF-RHF Final Energy:  -266.93458023266714
    Total Energy =                       -266.9345802326672583
  Basis Set: CC-PVTZ
  Basis Set:
  @DF-RHF Final Energy:  -266.93458342290472
    Total Energy =                       -266.9345834229046659
  Basis Set: CC-PVTZ
  Basis Set:
  Basis Set: CC-PVTZ
  Basis Set:
  @DF-RHF Final Energy:  -266.93458155830683
    Total Energy =                       -266.9345815583069452
  Basis Set: CC-PVTZ
  Basis Set:
  Basis Set: CC-PVTZ
  Basis Set:
  @DF-RHF Final Energy:  -266.93458552093267
    Total Energy =                       -266.9345855209326146
  Basis Set: CC-PVTZ
  Basis Set:
  Charge       = 0
  Multiplicity = 1
  Basis Set: CC-PVTZ
  Basis Set:

    Orbital Energies (a.u.)
    -----------------------

    Doubly Occupied:

       1A    -20.594369     2A    -20.537659     3A    -11.369682
       4A    -11.281943     5A    -11.233707     6A     -1.471334
       7A     -1.368437     8A     -1.035452     9A     -0.954932
      10A     -0.779943    11A     -0.697763    12A     -0.683330
      13A     -0.679536    14A     -0.599269    15A     -0.593798
      16A     -0.564571    17A     -0.532528    18A     -0.518606
      19A     -0.461173    20A     -0.445064

  @DF-RHF Final Energy:  -266.93458592004384

   => Energetics <=

    Nuclear Repulsion Energy =            183.3913766409536379
    One-Electron Energy =                -727.8457267654400766
    Two-Electron Energy =                 277.5197642044425947
    DFT Exchange-Correlation Energy =       0.0000000000000000
    Empirical Dispersion Energy =           0.0000000000000000
    PCM Polarization Energy =               0.0000000000000000
    EFP Energy =                            0.0000000000000000
    Total Energy =                       -266.9345859200437872
    Molecular point group: c1
  Basis Set: CC-PVTZ
  Basis Set:

  -Total Gradient:
     Atom            X                  Y                   Z
    ------   -----------------  -----------------  -----------------
       1       -0.000241955701     0.000457962885     0.008872659529
       2       -0.000534402155    -0.002232130130    -0.016386497411
       3       -0.000054491942     0.000450846472     0.000042898754
       4        0.002997574098     0.004627085342     0.013074288853
       5        0.000076615585    -0.000106038019     0.000141964075
       6       -0.000033049587    -0.000072747280     0.000068965451
       7       -0.000020858216    -0.000185771357    -0.000042786182
       8       -0.002140980036    -0.003045820812    -0.006034248602
       9        0.000031202119     0.000011311233     0.000214714235
      10       -0.000060405412     0.000032960859     0.000024474663
      11       -0.000019248750     0.000062340807     0.000023566637

  **** Optimization is complete! (in 13 steps) ****
    Final optimized geometry and variables:
    Molecular point group: c1

    Geometry (in Angstrom), charge = 0, multiplicity = 1:

    O           -0.291826396186     1.345374263404     0.033189632512
    C           -0.433931191246     0.173647699058     0.090429516238
    C           -1.758555785735    -0.527819505466     0.173326801931
    O            0.580155803778    -0.680282292367     0.171427081637
    H           -1.903985880831    -1.121301375988    -0.721103188198
    H           -2.551446370655     0.196012071053     0.268192696795
    H           -1.760596542422    -1.205386016271     1.016870086258
    C            1.798924825363    -0.298648464609    -0.435673596150
    H            1.639668581618    -0.055590931625    -1.476852967010
    H            2.454581768044    -1.149975449294    -0.353107606331
    H            2.231858625950     0.553768604659     0.065574814929

  Mulliken Charges: (a.u.)
   Center  Symbol    Alpha    Beta     Spin     Total
       1     O     4.19086  4.19086  0.00000 -0.38171
       2     C     2.80156  2.80156  0.00000  0.39687
       3     C     3.13728  3.13728  0.00000 -0.27457
       4     O     4.15205  4.15205  0.00000 -0.30410
       5     H     0.44840  0.44840  0.00000  0.10320
       6     H     0.43816  0.43816  0.00000  0.12367
       7     H     0.44387  0.44387  0.00000  0.11226
       8     C     3.03280  3.03280  0.00000 -0.06559
       9     H     0.46086  0.46086  0.00000  0.07829
      10     H     0.44531  0.44531  0.00000  0.10937
      11     H     0.44884  0.44884  0.00000  0.10232

   Total alpha = 20.00000, Total beta = 20.00000, Total charge =  0.00000
