  ==> Input File <==

--------------------------------------------------------------------------
set {
	reference rhf
	basis cc-pvtz
}

set_num_threads( 4 )
memory 2 gb

molecule MOL {
0 1

H	 1.166964	 -1.062386	 0.758429
O	 1.324748	 -0.612467	 -0.052206
C	 0.706474	 0.636793	 -0.025501
C	 -0.771752	 0.609307	 -0.293317
H	 1.195161	 1.237122	 -0.783848
H	 0.882076	 1.136157	 0.925551
C	 -1.470842	 -0.448202	 -0.641534
H	 -1.266015	 1.560314	 -0.181350
H	 -1.011878	 -1.408541	 -0.779643
H	 -2.528325	 -0.381745	 -0.812919

	symmetry c1
}
set optking {
	frozen_dihedral = ("
		5 3 2 1
	")
}

ee = optimize('scf')
oeprop('DIPOLE', 'QUADRUPOLE', 'MULLIKEN_CHARGES')
f=open( 'psi4out.xyz', 'w' )
f.write( "10  " )
f.write( str(ee) + "\n" )
f.write( MOL.save_string_xyz() )
f.close()
--------------------------------------------------------------------------

    Molecular point group: c1
  Charge       = 0
  Multiplicity = 1
  Basis Set: CC-PVTZ
  Basis Set:
  @DF-RHF Final Energy:  -191.99851923625977
    Total Energy =                       -191.9985192362597672
    Molecular point group: c1
  Basis Set: CC-PVTZ
  Basis Set:
  Basis Set: CC-PVTZ
  Basis Set:
  @DF-RHF Final Energy:  -191.99856360560227
    Total Energy =                       -191.9985636056022713
  Basis Set: CC-PVTZ
  Basis Set:
  Charge       = 0
  Multiplicity = 1
  Basis Set: CC-PVTZ
  Basis Set:

    Orbital Energies (a.u.)
    -----------------------

    Doubly Occupied:

       1A    -20.554569     2A    -11.278314     3A    -11.227933
       4A    -11.213973     5A     -1.374645     6A     -1.060748
       7A     -0.930918     8A     -0.769002     9A     -0.696415
      10A     -0.663079    11A     -0.618531    12A     -0.575339
      13A     -0.532548    14A     -0.501564    15A     -0.450959
      16A     -0.366950

  @DF-RHF Final Energy:  -191.99857052536379

   => Energetics <=

    Nuclear Repulsion Energy =            119.4633597303543411
    One-Electron Energy =                -497.2928896387953728
    Two-Electron Energy =                 185.8309593830772428
    DFT Exchange-Correlation Energy =       0.0000000000000000
    Empirical Dispersion Energy =           0.0000000000000000
    PCM Polarization Energy =               0.0000000000000000
    EFP Energy =                            0.0000000000000000
    Total Energy =                       -191.9985705253637889
    Molecular point group: c1
  Basis Set: CC-PVTZ
  Basis Set:

  -Total Gradient:
     Atom            X                  Y                   Z
    ------   -----------------  -----------------  -----------------
       1        0.001058923465     0.000528696518     0.000445696270
       2       -0.001109354309    -0.000608691238    -0.000429689964
       3       -0.000603396945    -0.000279763430    -0.000655799066
       4       -0.000106316768    -0.000028428204    -0.000123367346
       5        0.000704054076     0.000312265190     0.000775315195
       6        0.000064631001     0.000029174150    -0.000050070467
       7        0.000047119516     0.000023053739     0.000104608337
       8       -0.000035846525     0.000000089135    -0.000011566186
       9       -0.000002419110     0.000024581162    -0.000036127684
      10       -0.000017394398    -0.000000977023    -0.000018999088

  **** Optimization is complete! (in 3 steps) ****
    Final optimized geometry and variables:
    Molecular point group: c1

    Geometry (in Angstrom), charge = 0, multiplicity = 1:

    H            1.136763197968    -1.095676076323     0.959028528531
    O            1.303789109877    -0.626138558279     0.162394704972
    C            0.684837722339     0.623671021869     0.207958673636
    C           -0.791368302947     0.596675799893    -0.070594570957
    H            1.181004115223     1.244118367902    -0.529317178140
    H            0.853249271187     1.104339507620     1.169696821624
    C           -1.489690066263    -0.467369323324    -0.398070086856
    H           -1.282686803112     1.552171742786     0.014329811810
    H           -1.029046236254    -1.430387634174    -0.505751463511
    H           -2.545437071539    -0.402866686947    -0.581126844752

  Mulliken Charges: (a.u.)
   Center  Symbol    Alpha    Beta     Spin     Total
       1     H     0.39121  0.39121  0.00000  0.21759
       2     O     4.19881  4.19881  0.00000 -0.39761
       3     C     2.95189  2.95189  0.00000  0.09621
       4     C     3.08390  3.08390  0.00000 -0.16781
       5     H     0.45380  0.45380  0.00000  0.09241
       6     H     0.46867  0.46867  0.00000  0.06266
       7     C     3.17721  3.17721  0.00000 -0.35443
       8     H     0.42347  0.42347  0.00000  0.15305
       9     H     0.42271  0.42271  0.00000  0.15457
      10     H     0.42833  0.42833  0.00000  0.14335

   Total alpha = 16.00000, Total beta = 16.00000, Total charge = -0.00000
