                              Psi4 1.0.54 Driver

  ==> Input File <==

--------------------------------------------------------------------------
set {
	reference rhf
	basis cc-pvtz
}

set_num_threads( 4 )
memory 2 gb

molecule MOL {
0 1

H	 2.614283	 2.028610	 0.296620
O	 3.358864	 1.662087	 -0.142800
C	 3.565468	 0.338079	 0.273842
C	 2.533667	 -0.637565	 -0.272227
H	 4.548038	 0.064914	 -0.086598
H	 3.593945	 0.282242	 1.360360
C	 1.114816	 -0.402372	 0.240993
H	 2.544552	 -0.580764	 -1.356576
H	 2.850574	 -1.642962	 -0.005497
C	 0.077673	 -1.270913	 -0.469505
H	 0.856909	 0.643922	 0.115476
H	 1.079776	 -0.607379	 1.309652
C	 -1.352193	 -1.130238	 0.055803
H	 0.092777	 -1.046612	 -1.533313
H	 0.376739	 -2.311263	 -0.376224
C	 -2.002381	 0.229198	 -0.195062
H	 -1.963942	 -1.897057	 -0.411400
H	 -1.364882	 -1.343544	 1.122337
C	 -3.459181	 0.287182	 0.257466
H	 -1.948452	 0.461219	 -1.256536
H	 -1.446047	 1.009437	 0.315546
C	 -4.110280	 1.644257	 0.011884
H	 -4.026108	 -0.482554	 -0.258944
H	 -3.515709	 0.047304	 1.315920
H	 -4.098510	 1.898852	 -1.042763
H	 -5.142955	 1.650204	 0.341510
H	 -3.588565	 2.431539	 0.546068

	symmetry c1
}
set optking {
	frozen_dihedral = ("
		10 7 4 8
	")
}

ee,wfn = optimize('scf', return_wfn=True)
oeprop( wfn, 'DIPOLE', 'QUADRUPOLE', 'MULLIKEN_CHARGES')
f=open( 'psi4out.xyz', 'w' )
f.write( "27  " )
f.write( str(ee) + "\n" )
f.write( MOL.save_string_xyz() )
f.close()
--------------------------------------------------------------------------

    Molecular point group: c1
  Charge       = 0
  Multiplicity = 1
  Basis Set: CC-PVTZ
  Basis Set:
  @DF-RHF Final Energy:  -388.42745040428503
    Total Energy =                       -388.4274504042844001
    Molecular point group: c1
  Basis Set: CC-PVTZ
  Basis Set:
  Basis Set: CC-PVTZ
  Basis Set:
  @DF-RHF Final Energy:  -388.42742561985659
    Total Energy =                       -388.4274256198561943
  Basis Set: CC-PVTZ
  Basis Set:
  Basis Set: CC-PVTZ
  Basis Set:
  @DF-RHF Final Energy:  -388.42750939242302
    Total Energy =                       -388.4275093924231896
  Basis Set: CC-PVTZ
  Basis Set:
  Basis Set: CC-PVTZ
  Basis Set:
  @DF-RHF Final Energy:  -388.42750637357426
    Total Energy =                       -388.4275063735746016
  Basis Set: CC-PVTZ
  Basis Set:
  Basis Set: CC-PVTZ
  Basis Set:
  @DF-RHF Final Energy:  -388.42751180960147
    Total Energy =                       -388.4275118096016968
  Basis Set: CC-PVTZ
  Basis Set:
  Charge       = 0
  Multiplicity = 1
  Basis Set: CC-PVTZ
  Basis Set:

    Orbital Energies (a.u.)
    -----------------------

    Doubly Occupied:

       1A    -20.545322     2A    -11.265141     3A    -11.216820
       4A    -11.214553     5A    -11.213920     6A    -11.213203
       7A    -11.213153     8A    -11.211919     9A    -11.207336
      10A     -1.363260    11A     -1.096191    12A     -1.062528
      13A     -1.012514    14A     -0.949472    15A     -0.888677
      16A     -0.820489    17A     -0.802275    18A     -0.778180
      19A     -0.695779    20A     -0.653811    21A     -0.640232
      22A     -0.615140    23A     -0.600404    24A     -0.583298
      25A     -0.581805    26A     -0.553530    27A     -0.540839
      28A     -0.533896    29A     -0.506565    30A     -0.494030
      31A     -0.485245    32A     -0.473392    33A     -0.469263
      34A     -0.461443    35A     -0.453757    36A     -0.442345
      37A     -0.425822

  @DF-RHF Final Energy:  -388.42751205646380

   => Energetics <=

    Nuclear Repulsion Energy =            460.4377149240621065
    One-Electron Energy =               -1439.1593604819522625
    Two-Electron Energy =                 590.2941335014264723
    DFT Exchange-Correlation Energy =       0.0000000000000000
    Empirical Dispersion Energy =           0.0000000000000000
    PCM Polarization Energy =               0.0000000000000000
    EFP Energy =                            0.0000000000000000
    Total Energy =                       -388.4275120564636836
    Molecular point group: c1
  Basis Set: CC-PVTZ
  Basis Set:

  -Total Gradient:
     Atom            X                  Y                   Z
    ------   -----------------  -----------------  -----------------
       1        0.000010227111    -0.000010420161    -0.000001171506
       2       -0.000006389083     0.000001881080    -0.000003983652
       3       -0.000004611073    -0.000012623159     0.000007893441
       4        0.000344581667     0.002415454921    -0.000260673821
       5       -0.000004930451     0.000013392045    -0.000003300217
       6       -0.000000041316     0.000001268328    -0.000002284177
       7        0.000117612958    -0.001581577374     0.001175196610
       8       -0.000323450652    -0.001670390922    -0.000053345195
       9        0.000005235296    -0.000011857753     0.000003984477
      10       -0.000135532559     0.000852563994    -0.000868161045
      11        0.000005556612     0.000012554200     0.000001677563
      12       -0.000000177737    -0.000010004506    -0.000000936765
      13       -0.000002627278    -0.000005588398     0.000000002622
      14        0.000003767591     0.000003454415     0.000005039032
      15       -0.000003124045    -0.000002646892    -0.000003115685
      16       -0.000001103333     0.000005998797     0.000002250107
      17        0.000000004102    -0.000001342454     0.000001133461
      18       -0.000002563017     0.000001006097    -0.000001639372
      19        0.000000667646     0.000001882889     0.000002975409
      20       -0.000000098660    -0.000000419068     0.000000706552
      21       -0.000002984429    -0.000000678982    -0.000000808440
      22        0.000000296750    -0.000001519847    -0.000002216239
      23       -0.000000167124     0.000000002845     0.000000985271
      24       -0.000000081224     0.000000013063     0.000001112747
      25        0.000000112224     0.000001294720    -0.000000820771
      26        0.000000482953    -0.000000497399    -0.000000818377
      27       -0.000000662930    -0.000001200479     0.000000317967

  **** Optimization is complete! (in 6 steps) ****
    Final optimized geometry and variables:
    Molecular point group: c1

    Geometry (in Angstrom), charge = 0, multiplicity = 1:

    H            2.653908969357     1.924177275854     0.260089165032
    O            3.395673349611     1.522594903545    -0.152007972854
    C            3.556647764558     0.207376890815     0.309724517637
    C            2.517510505810    -0.759549182007    -0.236608882436
    H            4.541680515292    -0.100381877582    -0.014090772268
    H            3.553660122357     0.183849085745     1.397780153749
    C            1.092544648040    -0.499656440608     0.248238593526
    H            2.547290000478    -0.733480052348    -1.321617773797
    H            2.812818243657    -1.765354496819     0.053658217758
    C            0.060764606028    -1.380709377461    -0.454549098834
    H            0.839340020459     0.542515927915     0.082095252145
    H            1.040999811287    -0.664528782879     1.322412852750
    C           -1.368896155362    -1.250124843207     0.073637157169
    H            0.072485036080    -1.159701917900    -1.518807814927
    H            0.368045008161    -2.418656706394    -0.358563303629
    C           -2.023280438366     0.110096871350    -0.161368180674
    H           -1.978803232807    -2.013614025448    -0.401273247321
    H           -1.379904596642    -1.474948996256     1.137733810550
    C           -3.481211988543     0.157367380561     0.288509171951
    H           -1.967762312048     0.356064795003    -1.219595747407
    H           -1.470764385815     0.885386254301     0.360828891239
    C           -4.136010680076     1.515652130857     0.060441787381
    H           -4.044527257673    -0.606802960255    -0.239902436595
    H           -3.539362256837    -0.097449256314     1.343330856794
    H           -4.122882488109     1.784907406260    -0.990513002752
    H           -5.169335679368     1.513883407563     0.387927719371
    H           -3.617872458849     2.297024462497     0.606611493229

  Mulliken Charges: (a.u.)
   Center  Symbol    Alpha    Beta     Spin     Total
       1     H     0.39236  0.39236  0.00000  0.21528
       2     O     4.20530  4.20530  0.00000 -0.41061
       3     C     2.97989  2.97989  0.00000  0.04022
       4     C     3.08978  3.08978  0.00000 -0.17956
       5     H     0.44802  0.44802  0.00000  0.10397
       6     H     0.46996  0.46996  0.00000  0.06007
       7     C     3.09954  3.09954  0.00000 -0.19909
       8     H     0.45133  0.45133  0.00000  0.09734
       9     H     0.45487  0.45487  0.00000  0.09026
      10     C     3.09815  3.09815  0.00000 -0.19630
      11     H     0.45972  0.45972  0.00000  0.08057
      12     H     0.45331  0.45331  0.00000  0.09339
      13     C     3.09781  3.09781  0.00000 -0.19563
      14     H     0.45136  0.45136  0.00000  0.09727
      15     H     0.44814  0.44814  0.00000  0.10373
      16     C     3.08822  3.08822  0.00000 -0.17643
      17     H     0.44804  0.44804  0.00000  0.10393
      18     H     0.45369  0.45369  0.00000  0.09262
      19     C     3.08402  3.08402  0.00000 -0.16803
      20     H     0.45395  0.45395  0.00000  0.09210
      21     H     0.45559  0.45559  0.00000  0.08882
      22     C     3.14963  3.14963  0.00000 -0.29926
      23     H     0.45369  0.45369  0.00000  0.09261
      24     H     0.45468  0.45468  0.00000  0.09064
      25     H     0.45484  0.45484  0.00000  0.09033
      26     H     0.44826  0.44826  0.00000  0.10348
      27     H     0.45586  0.45586  0.00000  0.08828

   Total alpha = 37.00000, Total beta = 37.00000, Total charge = -0.00000

*** Psi4 exiting successfully. Buy a developer a beer!
