  ==> Input File <==

--------------------------------------------------------------------------
set {
	reference rhf
	basis cc-pvtz
}

set_num_threads( 4 )
memory 2 gb

molecule MOL {
0 1

H	 -1.013131	 -0.713598	 -0.722379
N	 -0.712187	 0.000026	 -0.093397
C	 0.734067	 -0.000020	 0.038424
H	 -1.150506	 -0.178339	 0.784957
H	 1.140372	 -0.872115	 -0.458226
H	 1.140363	 0.872301	 -0.457869
H	 1.095085	 -0.000244	 1.065614

	symmetry c1
}
set optking {
	frozen_dihedral = ("
		1 2 3 7
	")
}

ee = optimize('scf')
oeprop('DIPOLE', 'QUADRUPOLE', 'MULLIKEN_CHARGES')
f=open( 'psi4out.xyz', 'w' )
f.write( "7  " )
f.write( str(ee) + "\n" )
f.write( MOL.save_string_xyz() )
f.close()
--------------------------------------------------------------------------

    Molecular point group: c1
  Charge       = 0
  Multiplicity = 1
  Basis Set: CC-PVTZ
  Basis Set:
  @DF-RHF Final Energy:   -95.24968912837170
    Total Energy =                        -95.2496891283716280
    Molecular point group: c1
  Basis Set: CC-PVTZ
  Basis Set:
  Basis Set: CC-PVTZ
  Basis Set:
  @DF-RHF Final Energy:   -95.25049865790638
    Total Energy =                        -95.2504986579064195
  Basis Set: CC-PVTZ
  Basis Set:
  Basis Set: CC-PVTZ
  Basis Set:
  @DF-RHF Final Energy:   -95.25063325597992
    Total Energy =                        -95.2506332559798921
  Basis Set: CC-PVTZ
  Basis Set:
  Charge       = 0
  Multiplicity = 1
  Basis Set: CC-PVTZ
  Basis Set:

    Orbital Energies (a.u.)
    -----------------------

    Doubly Occupied:

       1A    -15.526754     2A    -11.235680     3A     -1.169569
       4A     -0.898065     5A     -0.665213     6A     -0.601103
       7A     -0.560417     8A     -0.517024     9A     -0.384534

  @DF-RHF Final Energy:   -95.25063401397793

   => Energetics <=

    Nuclear Repulsion Energy =             42.3039254322299385
    One-Electron Energy =                -211.9923997468954440
    Two-Electron Energy =                  74.4378403006876113
    DFT Exchange-Correlation Energy =       0.0000000000000000
    Empirical Dispersion Energy =           0.0000000000000000
    PCM Polarization Energy =               0.0000000000000000
    EFP Energy =                            0.0000000000000000
    Total Energy =                        -95.2506340139779013
    Molecular point group: c1
  Basis Set: CC-PVTZ
  Basis Set:

  -Total Gradient:
     Atom            X                  Y                   Z
    ------   -----------------  -----------------  -----------------
       1       -0.000041175455    -0.000910584292     0.001115933043
       2        0.000114290841     0.000803207934    -0.001361096418
       3       -0.000074560666     0.001355584252     0.000248062708
       4        0.000002723905     0.000026751760    -0.000010259473
       5        0.000014611384     0.000020544222    -0.000003796312
       6       -0.000013877037     0.000018863114     0.000002148647
       7       -0.000002012973    -0.001314366988     0.000009007805

  **** Optimization is complete! (in 4 steps) ****
    Final optimized geometry and variables:
    Molecular point group: c1

    Geometry (in Angstrom), charge = 0, multiplicity = 1:

    H           -1.041291898364    -0.678230526344    -0.684495167892
    N           -0.718405128332     0.028651849880    -0.061768176393
    C            0.736877856870     0.028097948495     0.041839781696
    H           -1.144249142474    -0.145977553159     0.821244395162
    H            1.185815785067    -0.841844517905    -0.426749975602
    H            1.156248748695     0.909599033957    -0.428438065420
    H            1.051370592128     0.023797266294     1.078488379165

  Mulliken Charges: (a.u.)
   Center  Symbol    Alpha    Beta     Spin     Total
       1     H     0.42813  0.42813  0.00000  0.14373
       2     N     3.68697  3.68697  0.00000 -0.37395
       3     C     3.06925  3.06925  0.00000 -0.13850
       4     H     0.42767  0.42767  0.00000  0.14466
       5     H     0.46568  0.46568  0.00000  0.06865
       6     H     0.46075  0.46075  0.00000  0.07849
       7     H     0.46154  0.46154  0.00000  0.07692

   Total alpha =  9.00000, Total beta =  9.00000, Total charge =  0.00000
