  ==> Input File <==

--------------------------------------------------------------------------
set {
	reference rhf
	basis cc-pvtz
}

set_num_threads( 4 )
memory 2 gb

molecule MOL {
0 1

O	 -1.322561	 -1.383579	 1.886287
C	 -0.545874	 -1.274964	 0.999264
C	 0.725121	 -2.073356	 0.854343
O	 -0.695554	 -0.422406	 0.000602
C	 0.944077	 -3.071087	 1.980204
H	 1.543542	 -1.364855	 0.789824
H	 0.685082	 -2.568286	 -0.109699
H	 0.999875	 -2.571438	 2.938043
H	 1.868756	 -3.612770	 1.822422
H	 0.133605	 -3.785822	 2.030362
C	 -1.852370	 0.402254	 0.000718
C	 -3.063338	 -0.501097	 -0.000437
H	 -1.831732	 1.039442	 -0.872158
H	 -1.832493	 1.038301	 0.874430
H	 -3.071944	 -1.133732	 -0.879113
H	 -3.966302	 0.097976	 -0.000483
H	 -3.072764	 -1.134834	 0.877435

	symmetry c1
}
set optking {
	frozen_dihedral = ("
		2 4 11 13
	")
}

ee = optimize('scf')
oeprop('DIPOLE', 'QUADRUPOLE', 'MULLIKEN_CHARGES')
f=open( 'psi4out.xyz', 'w' )
f.write( "17  " )
f.write( str(ee) + "\n" )
f.write( MOL.save_string_xyz() )
f.close()
--------------------------------------------------------------------------

    Molecular point group: c1
  Charge       = 0
  Multiplicity = 1
  Basis Set: CC-PVTZ
  Basis Set:
  @DF-RHF Final Energy:  -345.02954787409692
    Total Energy =                       -345.0295478740965791
    Molecular point group: c1
  Basis Set: CC-PVTZ
  Basis Set:
  Basis Set: CC-PVTZ
  Basis Set:
  @DF-RHF Final Energy:  -345.03661221404798
    Total Energy =                       -345.0366122140482048
  Basis Set: CC-PVTZ
  Basis Set:
  Basis Set: CC-PVTZ
  Basis Set:
  @DF-RHF Final Energy:  -345.03734271522609
    Total Energy =                       -345.0373427152265435
  Basis Set: CC-PVTZ
  Basis Set:
  Basis Set: CC-PVTZ
  Basis Set:
  @DF-RHF Final Energy:  -345.03623800110967
    Total Energy =                       -345.0362380011101209
  Basis Set: CC-PVTZ
  Basis Set:
  Basis Set: CC-PVTZ
  Basis Set:
  @DF-RHF Final Energy:  -345.03741667208817
    Total Energy =                       -345.0374166720887388
  Basis Set: CC-PVTZ
  Basis Set:
  Basis Set: CC-PVTZ
  Basis Set:
  @DF-RHF Final Energy:  -345.03742311516481
    Total Energy =                       -345.0374231151653248
  Basis Set: CC-PVTZ
  Basis Set:
  Basis Set: CC-PVTZ
  Basis Set:
  @DF-RHF Final Energy:  -345.03742497144469
    Total Energy =                       -345.0374249714447501
  Basis Set: CC-PVTZ
  Basis Set:
  Charge       = 0
  Multiplicity = 1
  Basis Set: CC-PVTZ
  Basis Set:

    Orbital Energies (a.u.)
    -----------------------

    Doubly Occupied:

       1A    -20.592485     2A    -20.532533     3A    -11.364255
       4A    -11.285021     5A    -11.235351     6A    -11.214116
       7A    -11.213580     8A     -1.468699     9A     -1.364930
      10A     -1.069317    11A     -1.028419    12A     -0.918084
      13A     -0.855955    14A     -0.754172    15A     -0.704107
      16A     -0.683015    17A     -0.664205    18A     -0.625656
      19A     -0.611527    20A     -0.568990    21A     -0.546333
      22A     -0.531070    23A     -0.521859    24A     -0.517832
      25A     -0.496554    26A     -0.492158    27A     -0.454207
      28A     -0.436107

  @DF-RHF Final Energy:  -345.03742577924271

   => Energetics <=

    Nuclear Repulsion Energy =            319.9556939347390312
    One-Electron Energy =               -1104.4851607887958380
    Two-Electron Energy =                 439.4920410748143240
    DFT Exchange-Correlation Energy =       0.0000000000000000
    Empirical Dispersion Energy =           0.0000000000000000
    PCM Polarization Energy =               0.0000000000000000
    EFP Energy =                            0.0000000000000000
    Total Energy =                       -345.0374257792425396
    Molecular point group: c1
  Basis Set: CC-PVTZ
  Basis Set:

  -Total Gradient:
     Atom            X                  Y                   Z
    ------   -----------------  -----------------  -----------------
       1        0.000034102582     0.000001334819     0.000003445958
       2       -0.002053579104    -0.003206220050    -0.002504224865
       3       -0.000023046487    -0.000048013860    -0.000023159138
       4        0.002537057896     0.004142093878     0.003197222782
       5        0.000017330656     0.000008459747    -0.000005981548
       6        0.000003674392     0.000006307844     0.000013265636
       7        0.000019025124     0.000009733272     0.000003043876
       8       -0.000003658199     0.000001227343    -0.000006943256
       9       -0.000000881870    -0.000005910511     0.000003162459
      10       -0.000002237356    -0.000004933695     0.000000107030
      11        0.001722343995     0.002691695025     0.002090719206
      12       -0.000080081520    -0.000048792329     0.000025788500
      13       -0.002197491361    -0.003577663212    -0.002757489825
      14       -0.000002720830     0.000014423178     0.000008581611
      15        0.000009169292    -0.000000570974    -0.000015453851
      16        0.000024761017    -0.000003108598     0.000007029978
      17       -0.000003768226     0.000019938124    -0.000039114558

  **** Optimization is complete! (in 8 steps) ****
    Final optimized geometry and variables:
    Molecular point group: c1

    Geometry (in Angstrom), charge = 0, multiplicity = 1:

    O           -0.393010194268    -0.194430084783     1.163292198093
    C            0.320097611712    -0.092929817442     0.223381057711
    C            1.562679950598    -0.915195803896    -0.011805366210
    O            0.134611838225     0.778800428342    -0.751824025961
    C            1.865265853308    -1.890574567993     1.114233448916
    H            2.382484740321    -0.222978773582    -0.167017441319
    H            1.429204258188    -1.432442837705    -0.955763937546
    H            2.013938138476    -1.370121652531     2.050946157736
    H            2.763902250777    -2.451761148905     0.888621184965
    H            1.051606517761    -2.589607093034     1.253494937274
    C           -1.055326233835     1.558493160510    -0.792512390112
    C           -2.321595216275     0.735861866433    -0.952604076543
    H           -0.931125160482     2.164975326685    -1.676612671032
    H           -1.100678981252     2.188516071719     0.084163596325
    H           -2.238900515228     0.080809649065    -1.812532941822
    H           -3.152926179095     1.410364278452    -1.125436244221
    H           -2.535421308049     0.143699074825    -0.077540627841

  Mulliken Charges: (a.u.)
   Center  Symbol    Alpha    Beta     Spin     Total
       1     O     4.19978  4.19978  0.00000 -0.39956
       2     C     2.80084  2.80084  0.00000  0.39832
       3     C     3.09372  3.09372  0.00000 -0.18744
       4     O     4.15614  4.15614  0.00000 -0.31228
       5     C     3.13987  3.13987  0.00000 -0.27973
       6     H     0.44050  0.44050  0.00000  0.11900
       7     H     0.44295  0.44295  0.00000  0.11411
       8     H     0.44874  0.44874  0.00000  0.10252
       9     H     0.45055  0.45055  0.00000  0.09890
      10     H     0.44853  0.44853  0.00000  0.10294
      11     C     2.98453  2.98453  0.00000  0.03094
      12     C     3.15681  3.15681  0.00000 -0.31362
      13     H     0.44550  0.44550  0.00000  0.10900
      14     H     0.45252  0.45252  0.00000  0.09497
      15     H     0.45365  0.45365  0.00000  0.09270
      16     H     0.45028  0.45028  0.00000  0.09945
      17     H     0.43511  0.43511  0.00000  0.12978

   Total alpha = 28.00000, Total beta = 28.00000, Total charge = -0.00000
