  ==> Input File <==

--------------------------------------------------------------------------
set {
	reference rhf
	basis 6-31G*
}

set_num_threads( 4 )
memory 2 gb

molecule MOL {
0 1

O	 -2.821601	 1.309235	 -0.001213
C	 -2.668563	 0.129746	 -0.000350
C	 -3.801572	 -0.864014	 -0.000442
O	 -1.481751	 -0.454642	 0.000584
H	 -4.417280	 -0.689587	 -0.874708
H	 -3.443784	 -1.883046	 -0.000565
H	 -4.417179	 -0.689832	 0.873954
C	 -0.334255	 0.388708	 0.000906
C	 0.891947	 -0.504646	 0.000751
H	 -0.365390	 1.025305	 -0.873475
H	 -0.365484	 1.024911	 0.875569
C	 2.191698	 0.301370	 0.038915
H	 0.869040	 -1.132213	 -0.885857
H	 0.841472	 -1.170408	 0.857883
C	 3.440819	 -0.581819	 0.038708
H	 2.228413	 0.973189	 -0.816887
H	 2.201289	 0.934455	 0.924461
C	 4.739003	 0.223311	 0.075472
H	 3.433021	 -1.214874	 -0.845744
H	 3.406900	 -1.252226	 0.894555
H	 4.818084	 0.879607	 -0.786524
H	 5.605967	 -0.429841	 0.074283
H	 4.791928	 0.841699	 0.966990

	symmetry c1
}
set optking {
	frozen_dihedral = ("
		13 9 8 10
	")
}

ee = optimize('scf')
oeprop('DIPOLE', 'QUADRUPOLE', 'MULLIKEN_CHARGES')
f=open( 'psi4out.xyz', 'w' )
f.write( "23  " )
f.write( str(ee) + "\n" )
f.write( MOL.save_string_xyz() )
f.close()
--------------------------------------------------------------------------

    Molecular point group: c1
  Charge       = 0
  Multiplicity = 1
  Basis Set: 6-31G*
  Basis Set:
  @DF-RHF Final Energy:  -422.97952201263678
    Total Energy =                       -422.9795220126370623
    Molecular point group: c1
  Basis Set: 6-31G*
  Basis Set:
  Charge       = 0
  Multiplicity = 1
  Basis Set: 6-31G*
  Basis Set:

    Orbital Energies (a.u.)
    -----------------------

    Doubly Occupied:

       1A    -20.602959     2A    -20.540543     3A    -11.374080
       4A    -11.281536     5A    -11.232379     6A    -11.224448
       7A    -11.223819     8A    -11.221718     9A    -11.212985
      10A     -1.467958    11A     -1.360747    12A     -1.094293
      13A     -1.042275    14A     -1.003455    15A     -0.930937
      16A     -0.841669    17A     -0.802690    18A     -0.774357
      19A     -0.692358    20A     -0.685045    21A     -0.667890
      22A     -0.646749    23A     -0.606097    24A     -0.588441
      25A     -0.582191    26A     -0.566745    27A     -0.558695
      28A     -0.537150    29A     -0.523335    30A     -0.504905
      31A     -0.491132    32A     -0.477947    33A     -0.471205
      34A     -0.465741    35A     -0.451260    36A     -0.435315

  @DF-RHF Final Energy:  -422.97952207807919

   => Energetics <=

    Nuclear Repulsion Energy =            449.6258525040530003
    One-Electron Energy =               -1466.8406498104636739
    Two-Electron Energy =                 594.2352752283318296
    DFT Exchange-Correlation Energy =       0.0000000000000000
    Empirical Dispersion Energy =           0.0000000000000000
    PCM Polarization Energy =               0.0000000000000000
    EFP Energy =                            0.0000000000000000
    Total Energy =                       -422.9795220780788441
    Molecular point group: c1
  Basis Set: 6-31G*
  Basis Set:

  -Total Gradient:
     Atom            X                  Y                   Z
    ------   -----------------  -----------------  -----------------
       1       -0.000009506348    -0.000013237498     0.000166778371
       2       -0.000022354979     0.000038610183    -0.000481029054
       3        0.000004724387     0.000002982641     0.000167138060
       4        0.000162601924     0.000070440288     0.000018777444
       5        0.000028596181     0.000019173653    -0.000002240587
       6        0.000000733814    -0.000000152486     0.000006094222
       7       -0.000025924394    -0.000018819123    -0.000002422702
       8        0.000201483687     0.000283940445     0.000368124811
       9       -0.000218150468    -0.000303431434     0.000199762465
      10       -0.000257129641    -0.000257909792    -0.000211309638
      11        0.000012298315     0.000034350952     0.000000242524
      12       -0.000044592121    -0.000033124147    -0.000062942496
      13        0.000234557636     0.000197074121    -0.000169494179
      14       -0.000043205894    -0.000010869188     0.000036102310
      15       -0.000003381529    -0.000013498431    -0.000052235596
      16        0.000002380786     0.000019475623     0.000010701984
      17       -0.000013987349    -0.000030132237     0.000008848407
      18       -0.000001490284     0.000010093836     0.000004428875
      19        0.000005846940    -0.000006669707    -0.000005906645
      20       -0.000014152655     0.000010232504    -0.000007468930
      21        0.000003245070    -0.000004488313     0.000000470716
      22       -0.000004286365    -0.000000683069     0.000006224379
      23        0.000001693284     0.000006641178     0.000001355259

  **** Optimization is complete! (in 2 steps) ****
    Final optimized geometry and variables:
    Molecular point group: c1

    Geometry (in Angstrom), charge = 0, multiplicity = 1:

    O           -2.821466067727     1.309525597791    -0.031070669404
    C           -2.668261991689     0.130078527105    -0.022950034206
    C           -3.801199783827    -0.863757396267    -0.021556903881
    O           -1.481465917784    -0.454233023956    -0.010773178914
    H           -4.412852816036    -0.695261578457    -0.899817322133
    H           -3.443344408116    -1.882734927585    -0.013161282105
    H           -4.420872561847    -0.683755345939     0.848779589120
    C           -0.333926868362     0.389115107426    -0.008840392509
    C            0.891792915585    -0.504913815770    -0.003533412156
    H           -0.363494073227     1.021585715393    -0.886234723942
    H           -0.367926091697     1.028061477661     0.863748031705
    C            2.191608197667     0.301246748010     0.028532861390
    H            0.869830400384    -1.136706022987    -0.887218121909
    H            0.841396264861    -1.165262782947     0.857711647640
    C            3.440815711690    -0.581683967710     0.017114523070
    H            2.222799808751     0.976072048829    -0.825177993564
    H            2.206741388033     0.931216572926     0.916170239395
    C            4.739003583588     0.223487731025     0.053499079082
    H            3.429269892470    -1.209090181493    -0.871316158234
    H            3.410579061530    -1.257547260709     0.868804029280
    H            4.814725280919     0.884721202816    -0.805016290513
    H            5.606018093469    -0.429527984284     0.045246363297
    H            4.795330151556     0.836787040787     0.948323533477

  Mulliken Charges: (a.u.)
   Center  Symbol    Alpha    Beta     Spin     Total
       1     O     4.28392  4.28392  0.00000 -0.56784
       2     C     2.61533  2.61533  0.00000  0.76935
       3     C     3.28774  3.28774  0.00000 -0.57548
       4     O     4.31277  4.31277  0.00000 -0.62555
       5     H     0.39754  0.39754  0.00000  0.20492
       6     H     0.39986  0.39986  0.00000  0.20028
       7     H     0.39747  0.39747  0.00000  0.20505
       8     C     2.99558  2.99558  0.00000  0.00883
       9     C     3.16477  3.16477  0.00000 -0.32954
      10     H     0.41053  0.41053  0.00000  0.17894
      11     H     0.41070  0.41070  0.00000  0.17859
      12     C     3.16003  3.16003  0.00000 -0.32005
      13     H     0.41441  0.41441  0.00000  0.17119
      14     H     0.41403  0.41403  0.00000  0.17193
      15     C     3.15143  3.15143  0.00000 -0.30285
      16     H     0.42083  0.42083  0.00000  0.15834
      17     H     0.42074  0.42074  0.00000  0.15853
      18     C     3.23987  3.23987  0.00000 -0.47974
      19     H     0.42140  0.42140  0.00000  0.15721
      20     H     0.42139  0.42139  0.00000  0.15721
      21     H     0.42083  0.42083  0.00000  0.15834
      22     H     0.41799  0.41799  0.00000  0.16402
      23     H     0.42084  0.42084  0.00000  0.15833

   Total alpha = 36.00000, Total beta = 36.00000, Total charge =  0.00000
