  ==> Input File <==

--------------------------------------------------------------------------
set {
	reference rhf
	basis 6-31G*
}

set_num_threads( 4 )
memory 2 gb

molecule MOL {
0 1

H	 -1.151360	 -0.162951	 0.788923
N	 -0.712432	 0.000013	 -0.096310
C	 0.734192	 -0.000004	 0.040609
H	 -1.036761	 0.889708	 -0.422058
H	 1.139899	 -0.873598	 -0.456463
H	 1.139939	 0.873831	 -0.456100
H	 1.096456	 -0.000300	 1.069655

	symmetry c1
}
set optking {
	frozen_dihedral = ("
		1 2 3 7
	")
}

ee = optimize('scf')
oeprop('DIPOLE', 'QUADRUPOLE', 'MULLIKEN_CHARGES')
f=open( 'psi4out.xyz', 'w' )
f.write( "7  " )
f.write( str(ee) + "\n" )
f.write( MOL.save_string_xyz() )
f.close()
--------------------------------------------------------------------------

    Molecular point group: c1
  Charge       = 0
  Multiplicity = 1
  Basis Set: 6-31G*
  Basis Set:
  @DF-RHF Final Energy:   -95.20584262765233
    Total Energy =                        -95.2058426276523448
    Molecular point group: c1
  Basis Set: 6-31G*
  Basis Set:
  Basis Set: 6-31G*
  Basis Set:
  @DF-RHF Final Energy:   -95.20617466710885
    Total Energy =                        -95.2061746671089395
  Basis Set: 6-31G*
  Basis Set:
  Basis Set: 6-31G*
  Basis Set:
  @DF-RHF Final Energy:   -95.20626922739855
    Total Energy =                        -95.2062692273986215
  Basis Set: 6-31G*
  Basis Set:
  Charge       = 0
  Multiplicity = 1
  Basis Set: 6-31G*
  Basis Set:

    Orbital Energies (a.u.)
    -----------------------

    Doubly Occupied:

       1A    -15.532803     2A    -11.237528     3A     -1.167746
       4A     -0.897632     5A     -0.663284     6A     -0.599611
       7A     -0.557994     8A     -0.519070     9A     -0.380793

  @DF-RHF Final Energy:   -95.20626964117980

   => Energetics <=

    Nuclear Repulsion Energy =             42.2359312366460458
    One-Electron Energy =                -211.7714783947882040
    Two-Electron Energy =                  74.3292775169624065
    DFT Exchange-Correlation Energy =       0.0000000000000000
    Empirical Dispersion Energy =           0.0000000000000000
    PCM Polarization Energy =               0.0000000000000000
    EFP Energy =                            0.0000000000000000
    Total Energy =                        -95.2062696411797447
    Molecular point group: c1
  Basis Set: 6-31G*
  Basis Set:

  -Total Gradient:
     Atom            X                  Y                   Z
    ------   -----------------  -----------------  -----------------
       1       -0.000061438930     0.001744423586     0.000330220979
       2        0.000038274306    -0.002742487841    -0.000392152638
       3       -0.000025856917     0.002677383684     0.000076157760
       4        0.000016914675     0.000014958721    -0.000008462186
       5       -0.000033155950    -0.000006870691    -0.000000252201
       6        0.000043223277    -0.000011347043    -0.000007737239
       7        0.000022039539    -0.001676060415     0.000002225524

  **** Optimization is complete! (in 4 steps) ****
    Final optimized geometry and variables:
    Molecular point group: c1

    Geometry (in Angstrom), charge = 0, multiplicity = 1:

    H           -1.154096460210    -0.188832187873     0.806472319222
    N           -0.718050720897    -0.023430004341    -0.077864704701
    C            0.737786332866    -0.022420633120     0.040482383677
    H           -1.052128175921     0.862947406698    -0.397314051099
    H            1.155416335626    -0.902484852559    -0.437710656886
    H            1.167467872616     0.846713792891    -0.445193677334
    H            1.075493183853    -0.025840834510     1.073608739608

  Mulliken Charges: (a.u.)
   Center  Symbol    Alpha    Beta     Spin     Total
       1     H     0.33172  0.33172  0.00000  0.33655
       2     N     3.92326  3.92326  0.00000 -0.84653
       3     C     3.14657  3.14657  0.00000 -0.29314
       4     H     0.33189  0.33189  0.00000  0.33622
       5     H     0.41641  0.41641  0.00000  0.16718
       6     H     0.42296  0.42296  0.00000  0.15409
       7     H     0.42719  0.42719  0.00000  0.14562

   Total alpha =  9.00000, Total beta =  9.00000, Total charge =  0.00000
