                              Psi4 1.0.54 Driver

  ==> Input File <==

--------------------------------------------------------------------------
set {
	reference rhf
	basis cc-pvtz
}

set_num_threads( 4 )
memory 2 gb

molecule MOL {
0 1

O	 2.125215	 0.784224	 0.884156
C	 1.704209	 0.119472	 -0.000093
C	 0.380337	 -0.600947	 -0.000234
O	 2.360267	 -0.080794	 -1.131419
C	 -0.824290	 0.329213	 -0.000115
H	 0.371455	 -1.255476	 -0.865660
H	 0.371410	 -1.255787	 0.864952
C	 -2.146151	 -0.432825	 -0.000068
H	 -0.773936	 0.979158	 -0.866319
H	 -0.773838	 0.979034	 0.866186
C	 -3.366283	 0.483552	 0.000557
H	 -2.189286	 -1.084450	 -0.869996
H	 -2.188867	 -1.085083	 0.869399
C	 -4.687436	 -0.278003	 0.000108
H	 -3.325150	 1.134819	 -0.867957
H	 -3.325087	 1.133730	 0.869885
H	 -4.773783	 -0.912098	 -0.876078
H	 -5.531922	 0.401392	 0.000363
H	 -4.773901	 -0.912898	 0.875703
C	 3.622920	 0.539219	 -1.267862
H	 3.529794	 1.612961	 -1.199905
H	 3.988688	 0.258306	 -2.242105
H	 4.301449	 0.195186	 -0.501408

	symmetry c1
}
set optking {
	frozen_dihedral = ("
		1 2 3 6
	")
}

ee,wfn = optimize('scf', return_wfn=True)
oeprop( wfn, 'DIPOLE', 'QUADRUPOLE', 'MULLIKEN_CHARGES')
f=open( 'psi4out.xyz', 'w' )
f.write( "23  " )
f.write( str(ee) + "\n" )
f.write( MOL.save_string_xyz() )
f.close()
--------------------------------------------------------------------------

    Molecular point group: c1
  Charge       = 0
  Multiplicity = 1
  Basis Set: CC-PVTZ
  Basis Set:
  @DF-RHF Final Energy:  -423.12896465359444
    Total Energy =                       -423.1289646535942666
    Molecular point group: c1
  Basis Set: CC-PVTZ
  Basis Set:
  Basis Set: CC-PVTZ
  Basis Set:
  @DF-RHF Final Energy:  -423.12965438645932
    Total Energy =                       -423.1296543864596060
  Basis Set: CC-PVTZ
  Basis Set:
  Basis Set: CC-PVTZ
  Basis Set:
  @DF-RHF Final Energy:  -423.12970791787490
    Total Energy =                       -423.1297079178743843
  Basis Set: CC-PVTZ
  Basis Set:
  Basis Set: CC-PVTZ
  Basis Set:
  @DF-RHF Final Energy:  -423.12968106494912
    Total Energy =                       -423.1296810649494091
  Basis Set: CC-PVTZ
  Basis Set:
  Basis Set: CC-PVTZ
  Basis Set:
  @DF-RHF Final Energy:  -423.12971591809429
    Total Energy =                       -423.1297159180940071
  Basis Set: CC-PVTZ
  Basis Set:
  Charge       = 0
  Multiplicity = 1
  Basis Set: CC-PVTZ
  Basis Set:

    Orbital Energies (a.u.)
    -----------------------

    Doubly Occupied:

       1A    -20.598485     2A    -20.530921     3A    -11.363577
       4A    -11.278407     5A    -11.231871     6A    -11.225058
       7A    -11.218503     8A    -11.216936     9A    -11.209382
      10A     -1.472209    11A     -1.364216    12A     -1.096940
      13A     -1.045440    14A     -0.987161    15A     -0.934654
      16A     -0.845593    17A     -0.797827    18A     -0.774152
      19A     -0.697177    20A     -0.683613    21A     -0.675532
      22A     -0.654702    23A     -0.608113    24A     -0.598863
      25A     -0.577889    26A     -0.571814    27A     -0.544137
      28A     -0.533304    29A     -0.525515    30A     -0.506911
      31A     -0.489358    32A     -0.475133    33A     -0.469696
      34A     -0.465984    35A     -0.456980    36A     -0.432925

  @DF-RHF Final Energy:  -423.12971679420804

   => Energetics <=

    Nuclear Repulsion Energy =            454.1421534017151203
    One-Electron Energy =               -1476.2257878294431066
    Two-Electron Energy =                 598.9539176335204047
    DFT Exchange-Correlation Energy =       0.0000000000000000
    Empirical Dispersion Energy =           0.0000000000000000
    PCM Polarization Energy =               0.0000000000000000
    EFP Energy =                            0.0000000000000000
    Total Energy =                       -423.1297167942075248
    Molecular point group: c1
  Basis Set: CC-PVTZ
  Basis Set:

  -Total Gradient:
     Atom            X                  Y                   Z
    ------   -----------------  -----------------  -----------------
       1       -0.000049261816     0.000108533439    -0.000017222140
       2        0.000056287986    -0.000097059210     0.000094865729
       3        0.000041991302    -0.000072300898     0.000020646855
       4       -0.000009645891    -0.000011011219    -0.000050285179
       5       -0.000003339806     0.000021368399     0.000009640876
       6       -0.000048453204     0.000052218132    -0.000072598946
       7       -0.000003125702     0.000017422174    -0.000016765551
       8        0.000003729577    -0.000012490864     0.000006368174
       9        0.000009391962    -0.000019238562     0.000006099787
      10       -0.000012895290     0.000006434098    -0.000000090046
      11        0.000009415838     0.000012269790     0.000004203546
      12        0.000009286871     0.000003201539     0.000000040317
      13        0.000003718130    -0.000002629341     0.000000072241
      14        0.000000597780    -0.000003570547    -0.000000467934
      15       -0.000000747500     0.000001810347     0.000000119752
      16       -0.000002856169     0.000001896151     0.000000220287
      17       -0.000000524405    -0.000000920377    -0.000001042181
      18        0.000002640383     0.000000377585    -0.000000585344
      19        0.000000023494     0.000000474289    -0.000000078411
      20       -0.000005770653    -0.000012195802     0.000037970004
      21        0.000004037994     0.000002721489    -0.000005960840
      22       -0.000010494461    -0.000004068788    -0.000003564841
      23        0.000005993579     0.000006758176    -0.000011586151

  **** Optimization is complete! (in 6 steps) ****
    Final optimized geometry and variables:
    Molecular point group: c1

    Geometry (in Angstrom), charge = 0, multiplicity = 1:

    O            2.118507024710     0.636082770699     1.095051842072
    C            1.750181545522    -0.010845430457     0.173372734369
    C            0.448892474125    -0.771251579514     0.141045601029
    O            2.437560564498    -0.127408028560    -0.949340996663
    C           -0.750502309375     0.181092757409     0.141054092478
    H            0.425325851761    -1.415348445578    -0.726582825849
    H            0.421905240093    -1.390460456896     1.029595134410
    C           -2.082991165916    -0.560910173268     0.160367963716
    H           -0.703034411373     0.816148313377    -0.739239661399
    H           -0.678723695118     0.834484366045     1.002554162609
    C           -3.289381409929     0.373556377728     0.157861834561
    H           -2.140948893006    -1.223547688214    -0.699812476054
    H           -2.125063968608    -1.198500205334     1.040123320953
    C           -4.620918857059    -0.369371751224     0.180967041720
    H           -3.247599428382     1.010640174611    -0.721266438316
    H           -3.230950930782     1.035883208334     1.016887385414
    H           -4.723975173842    -1.015539734529    -0.684479647853
    H           -5.455635791647     0.321917231391     0.178283029367
    H           -4.707934244868    -0.989204306305     1.067104138797
    C            3.667614491279     0.564929754832    -1.029435504734
    H            3.514404331386     1.627812316317    -0.916119224690
    H            4.067924346156     0.347830685537    -2.006413740299
    H            4.347064332791     0.223215820803    -0.262941239863

  Mulliken Charges: (a.u.)
   Center  Symbol    Alpha    Beta     Spin     Total
       1     O     4.20568  4.20568  0.00000 -0.41136
       2     C     2.81116  2.81116  0.00000  0.37767
       3     C     3.07856  3.07856  0.00000 -0.15712
       4     O     4.14575  4.14575  0.00000 -0.29151
       5     C     3.09742  3.09742  0.00000 -0.19484
       6     H     0.44105  0.44105  0.00000  0.11789
       7     H     0.44310  0.44310  0.00000  0.11380
       8     C     3.09100  3.09100  0.00000 -0.18199
       9     H     0.45092  0.45092  0.00000  0.09815
      10     H     0.43988  0.43988  0.00000  0.12024
      11     C     3.08460  3.08460  0.00000 -0.16919
      12     H     0.45445  0.45445  0.00000  0.09110
      13     H     0.45341  0.45341  0.00000  0.09317
      14     C     3.15024  3.15024  0.00000 -0.30047
      15     H     0.45395  0.45395  0.00000  0.09209
      16     H     0.45257  0.45257  0.00000  0.09486
      17     H     0.45518  0.45518  0.00000  0.08965
      18     H     0.44761  0.44761  0.00000  0.10479
      19     H     0.45464  0.45464  0.00000  0.09073
      20     C     3.03552  3.03552  0.00000 -0.07105
      21     H     0.45411  0.45411  0.00000  0.09177
      22     H     0.44530  0.44530  0.00000  0.10941
      23     H     0.45390  0.45390  0.00000  0.09221

   Total alpha = 36.00000, Total beta = 36.00000, Total charge = -0.00000

*** Psi4 exiting successfully. Buy a developer a beer!
