                              Psi4 1.0.54 Driver

  ==> Input File <==

--------------------------------------------------------------------------
set {
	reference rhf
	basis cc-pvtz
}

set_num_threads( 4 )
memory 2 gb

molecule MOL {
0 1

H	 -0.000342	 -0.223902	 -3.352295
C	 -0.027146	 0.371068	 -2.446756
C	 0.024493	 -0.518541	 -1.216015
H	 -0.932586	 0.964979	 -2.449855
H	 0.819708	 1.049865	 -2.473332
N	 -0.042516	 0.263377	 0.000000
H	 -0.822211	 -1.197105	 -1.225584
H	 0.921114	 -1.142847	 -1.255206
C	 0.024493	 -0.518541	 1.216015
H	 0.682568	 0.950412	 0.000000
C	 1.032797	 -1.648236	 1.089901
H	 0.322114	 0.142159	 2.023694
H	 -0.949384	 -0.929081	 1.495735
H	 2.015771	 -1.257488	 0.858301
H	 1.093648	 -2.213706	 2.012532
H	 0.750432	 -2.336799	 0.299468

	symmetry c1
}
set optking {
	frozen_dihedral = ("
		12 9 6 3
	")
}

ee,wfn = optimize('scf', return_wfn=True)
oeprop( wfn, 'DIPOLE', 'QUADRUPOLE', 'MULLIKEN_CHARGES')
f=open( 'psi4out.xyz', 'w' )
f.write( "16  " )
f.write( str(ee) + "\n" )
f.write( MOL.save_string_xyz() )
f.close()
--------------------------------------------------------------------------

    Molecular point group: c1
  Charge       = 0
  Multiplicity = 1
  Basis Set: CC-PVTZ
  Basis Set:
  @DF-RHF Final Energy:  -212.38449848430636
    Total Energy =                       -212.3844984843065049
    Molecular point group: c1
  Basis Set: CC-PVTZ
  Basis Set:
  Basis Set: CC-PVTZ
  Basis Set:
  @DF-RHF Final Energy:  -212.38299040447146
    Total Energy =                       -212.3829904044716272
  Basis Set: CC-PVTZ
  Basis Set:
  Basis Set: CC-PVTZ
  Basis Set:
  @DF-RHF Final Energy:  -212.38903966045152
    Total Energy =                       -212.3890396604516582
  Basis Set: CC-PVTZ
  Basis Set:
  Basis Set: CC-PVTZ
  Basis Set:
  @DF-RHF Final Energy:  -212.38950136449543
    Total Energy =                       -212.3895013644954588
  Basis Set: CC-PVTZ
  Basis Set:
  Basis Set: CC-PVTZ
  Basis Set:
  @DF-RHF Final Energy:  -212.38957479300257
    Total Energy =                       -212.3895747930025664
  Basis Set: CC-PVTZ
  Basis Set:
  Basis Set: CC-PVTZ
  Basis Set:
  @DF-RHF Final Energy:  -212.38958084147146
    Total Energy =                       -212.3895808414715702
  Basis Set: CC-PVTZ
  Basis Set:
  Charge       = 0
  Multiplicity = 1
  Basis Set: CC-PVTZ
  Basis Set:

    Orbital Energies (a.u.)
    -----------------------

    Doubly Occupied:

       1A    -15.527547     2A    -11.239940     3A    -11.238095
       4A    -11.206202     5A    -11.204965     6A     -1.203085
       7A     -1.024526     8A     -0.967717     9A     -0.852069
      10A     -0.801149    11A     -0.662391    12A     -0.627652
      13A     -0.607395    14A     -0.580875    15A     -0.544079
      16A     -0.534272    17A     -0.511520    18A     -0.490674
      19A     -0.480556    20A     -0.473031    21A     -0.357832

  @DF-RHF Final Energy:  -212.38958131897968

   => Energetics <=

    Nuclear Repulsion Energy =            191.7230920847412392
    One-Electron Energy =                -665.9541975333470418
    Two-Electron Energy =                 261.8415241296260660
    DFT Exchange-Correlation Energy =       0.0000000000000000
    Empirical Dispersion Energy =           0.0000000000000000
    PCM Polarization Energy =               0.0000000000000000
    EFP Energy =                            0.0000000000000000
    Total Energy =                       -212.3895813189797650
    Molecular point group: c1
  Basis Set: CC-PVTZ
  Basis Set:

  -Total Gradient:
     Atom            X                  Y                   Z
    ------   -----------------  -----------------  -----------------
       1        0.000002293366    -0.000002939272     0.000011073470
       2        0.000010434320     0.000001852758     0.000004803045
       3        0.003996128668     0.000431584612     0.000022157573
       4        0.000000651651    -0.000002192370     0.000001861348
       5        0.000002663019     0.000007470883    -0.000004348150
       6       -0.004852496753    -0.000874605620    -0.000166801225
       7       -0.000001702090    -0.000011538157    -0.000013243324
       8        0.000008884572    -0.000007071312    -0.000004529071
       9       -0.004017001687     0.001408604236     0.001115370122
      10       -0.000015345684    -0.000005644426     0.000038414072
      11        0.000015736708    -0.000034390961    -0.000001241585
      12        0.004843283605    -0.000927759372    -0.000959141803
      13       -0.000000397211     0.000030560977    -0.000034735269
      14       -0.000008415301    -0.000003306654     0.000002004498
      15        0.000003015346    -0.000006151014    -0.000007722161
      16        0.000012267470    -0.000004474310    -0.000003921541

  **** Optimization is complete! (in 7 steps) ****
    Final optimized geometry and variables:
    Molecular point group: c1

    Geometry (in Angstrom), charge = 0, multiplicity = 1:

    H           -0.355239117182     0.321763225789    -3.118609539256
    C           -0.393114795185     0.862077695517    -2.179489942229
    C           -0.164839117434    -0.077727420091    -1.006741459419
    H           -1.356631016582     1.348766249857    -2.096882545939
    H            0.369887411242     1.633861864821    -2.212522409277
    N           -0.233485992901     0.645699171928     0.246495471403
    H           -0.939318102553    -0.838898676477    -1.002188578210
    H            0.781457607249    -0.599428357855    -1.146313419876
    C           -0.143926898114    -0.130937199379     1.473197456288
    H            0.465988483608     1.356946322204     0.251461011513
    C            0.861911719561    -1.283718564216     1.493662745354
    H            0.145079177525     0.556731836789     2.259265757331
    H           -1.128602986102    -0.515021947925     1.719673013627
    H            1.863523575796    -0.936788271654     1.260080940960
    H            0.886375233158    -1.728083049280     2.482762523772
    H            0.606155286441    -2.066480193010     0.790394122726

  Mulliken Charges: (a.u.)
   Center  Symbol    Alpha    Beta     Spin     Total
       1     H     0.45506  0.45506  0.00000  0.08987
       2     C     3.14186  3.14186  0.00000 -0.28372
       3     C     3.02470  3.02470  0.00000 -0.04940
       4     H     0.44940  0.44940  0.00000  0.10121
       5     H     0.45969  0.45969  0.00000  0.08062
       6     N     3.63900  3.63900  0.00000 -0.27801
       7     H     0.45825  0.45825  0.00000  0.08350
       8     H     0.46895  0.46895  0.00000  0.06210
       9     C     3.03965  3.03965  0.00000 -0.07931
      10     H     0.44406  0.44406  0.00000  0.11189
      11     C     3.15417  3.15417  0.00000 -0.30834
      12     H     0.45487  0.45487  0.00000  0.09026
      13     H     0.45344  0.45344  0.00000  0.09312
      14     H     0.45678  0.45678  0.00000  0.08644
      15     H     0.44798  0.44798  0.00000  0.10404
      16     H     0.45214  0.45214  0.00000  0.09573

   Total alpha = 21.00000, Total beta = 21.00000, Total charge =  0.00000

*** Psi4 exiting successfully. Buy a developer a beer!
