  ==> Input File <==

--------------------------------------------------------------------------
set {
	reference rhf
	basis cc-pvtz
}

set_num_threads( 4 )
memory 2 gb

molecule MOL {
0 1

O	 0.376209	 -0.355677	 2.170186
C	 -0.091430	 -0.746070	 1.155894
C	 -1.468530	 -1.327366	 1.009793
O	 0.550743	 -0.719877	 0.000412
H	 -2.036824	 -0.740393	 0.299927
H	 -1.962079	 -1.332353	 1.967874
H	 -1.397622	 -2.334976	 0.621038
C	 1.863204	 -0.194033	 0.000410
H	 2.031502	 0.409177	 -0.879273
H	 2.524488	 -1.045142	 0.000793
H	 2.031291	 0.409823	 0.879686

	symmetry c1
}
set optking {
	frozen_dihedral = ("
		2 4 8 9
	")
}

ee = optimize('scf')
oeprop('DIPOLE', 'QUADRUPOLE', 'MULLIKEN_CHARGES')
f=open( 'psi4out.xyz', 'w' )
f.write( "11  " )
f.write( str(ee) + "\n" )
f.write( MOL.save_string_xyz() )
f.close()
--------------------------------------------------------------------------

    Molecular point group: c1
  Charge       = 0
  Multiplicity = 1
  Basis Set: CC-PVTZ
  Basis Set:
  @DF-RHF Final Energy:  -266.93640466008344
    Total Energy =                       -266.9364046600834399
    Molecular point group: c1
  Basis Set: CC-PVTZ
  Basis Set:
  Basis Set: CC-PVTZ
  Basis Set:
  @DF-RHF Final Energy:  -266.93720247165527
    Total Energy =                       -266.9372024716551550
  Basis Set: CC-PVTZ
  Basis Set:
  Basis Set: CC-PVTZ
  Basis Set:
  @DF-RHF Final Energy:  -266.93737912636107
    Total Energy =                       -266.9373791263612361
  Basis Set: CC-PVTZ
  Basis Set:
  Basis Set: CC-PVTZ
  Basis Set:
  @DF-RHF Final Energy:  -266.93752556470167
    Total Energy =                       -266.9375255647015592
  Basis Set: CC-PVTZ
  Basis Set:
  Basis Set: CC-PVTZ
  Basis Set:
  @DF-RHF Final Energy:  -266.93761548092851
    Total Energy =                       -266.9376154809285708
  Basis Set: CC-PVTZ
  Basis Set:
  Basis Set: CC-PVTZ
  Basis Set:
  @DF-RHF Final Energy:  -266.93761543456549
    Total Energy =                       -266.9376154345654868
  Basis Set: CC-PVTZ
  Basis Set:
  Charge       = 0
  Multiplicity = 1
  Basis Set: CC-PVTZ
  Basis Set:

    Orbital Energies (a.u.)
    -----------------------

    Doubly Occupied:

       1A    -20.597878     2A    -20.534693     3A    -11.369891
       4A    -11.278822     5A    -11.232710     6A     -1.472108
       7A     -1.368134     8A     -1.036983     9A     -0.954044
      10A     -0.779355    11A     -0.699034    12A     -0.682821
      13A     -0.680964    14A     -0.598078    15A     -0.592461
      16A     -0.561512    17A     -0.530413    18A     -0.520932
      19A     -0.459617    20A     -0.445917

  @DF-RHF Final Energy:  -266.93761622755636

   => Energetics <=

    Nuclear Repulsion Energy =            183.3240247301372392
    One-Electron Energy =                -727.7305464550047418
    Two-Electron Energy =                 277.4689054973111411
    DFT Exchange-Correlation Energy =       0.0000000000000000
    Empirical Dispersion Energy =           0.0000000000000000
    PCM Polarization Energy =               0.0000000000000000
    EFP Energy =                            0.0000000000000000
    Total Energy =                       -266.9376162275563615
    Molecular point group: c1
  Basis Set: CC-PVTZ
  Basis Set:

  -Total Gradient:
     Atom            X                  Y                   Z
    ------   -----------------  -----------------  -----------------
       1       -0.000008695970    -0.000002357046     0.000008377488
       2       -0.000403866289     0.001037946624    -0.000219927210
       3       -0.000001882993     0.000010306028    -0.000002142695
       4        0.000525374620    -0.001263629816     0.000443726982
       5        0.000007149367    -0.000003164454     0.000003654472
       6       -0.000001308076    -0.000001436461     0.000001526124
       7        0.000001374329    -0.000006103973     0.000000884094
       8        0.000284940897    -0.000812247020    -0.000856528522
       9       -0.000398362873     0.001039216422     0.000617723576
      10        0.000002111166    -0.000000132327     0.000000593620
      11       -0.000006834178     0.000001602025     0.000002112069

  **** Optimization is complete! (in 7 steps) ****
    Final optimized geometry and variables:
    Molecular point group: c1

    Geometry (in Angstrom), charge = 0, multiplicity = 1:

    O            0.089046913683     0.290132815874     1.333930838867
    C           -0.358052594293    -0.083535654337     0.304611363384
    C           -1.738031460881    -0.649859728749     0.126349716483
    O            0.299028332656    -0.057362250789    -0.843702761322
    H           -2.287615720414    -0.048696290414    -0.586298206363
    H           -2.248785955957    -0.662362858565     1.075298851289
    H           -1.668965017211    -1.653020968683    -0.273993266869
    C            1.611665997857     0.470302690358    -0.876217005040
    H            1.697655099482     1.043815509210    -1.786069266793
    H            2.323797594153    -0.342736851596    -0.884756357653
    H            1.792761041028     1.101363294960    -0.022871072569

  Mulliken Charges: (a.u.)
   Center  Symbol    Alpha    Beta     Spin     Total
       1     O     4.19701  4.19701  0.00000 -0.39401
       2     C     2.79866  2.79866  0.00000  0.40268
       3     C     3.13937  3.13937  0.00000 -0.27874
       4     O     4.14963  4.14963  0.00000 -0.29927
       5     H     0.44581  0.44581  0.00000  0.10838
       6     H     0.43797  0.43797  0.00000  0.12407
       7     H     0.44539  0.44539  0.00000  0.10921
       8     C     3.03566  3.03566  0.00000 -0.07132
       9     H     0.44975  0.44975  0.00000  0.10049
      10     H     0.45548  0.45548  0.00000  0.08904
      11     H     0.44527  0.44527  0.00000  0.10946

   Total alpha = 20.00000, Total beta = 20.00000, Total charge = -0.00000
