  ==> Input File <==

--------------------------------------------------------------------------
set {
	reference rhf
	basis 6-31G*
}

set_num_threads( 4 )
memory 2 gb

molecule MOL {
0 1

H	 3.367094	 -0.354787	 -1.348642
O	 2.445296	 -0.555741	 -1.219568
C	 2.077727	 -0.067559	 -0.035091
C	 0.624473	 -0.343591	 0.253101
O	 2.837356	 0.508157	 0.673804
C	 -0.265902	 0.883932	 0.072916
H	 0.324016	 -1.163849	 -0.390541
H	 0.565024	 -0.726111	 1.268924
C	 -1.728698	 0.646073	 0.462102
H	 -0.209144	 1.219470	 -0.958188
H	 0.135059	 1.692851	 0.673903
C	 -2.482460	 -0.343073	 -0.431425
H	 -2.245265	 1.602650	 0.432430
H	 -1.779332	 0.308348	 1.496285
C	 -3.960546	 -0.461025	 -0.060175
H	 -2.395034	 -0.026811	 -1.468912
H	 -2.024850	 -1.327147	 -0.371646
H	 -4.472726	 -1.168004	 -0.705284
H	 -4.465146	 0.496508	 -0.151489
H	 -4.081218	 -0.800940	 0.964585

	symmetry c1
}
set optking {
	frozen_dihedral = ("
		5 3 4 7
	")
}

ee = optimize('scf')
oeprop('DIPOLE', 'QUADRUPOLE', 'MULLIKEN_CHARGES')
f=open( 'psi4out.xyz', 'w' )
f.write( "20  " )
f.write( str(ee) + "\n" )
f.write( MOL.save_string_xyz() )
f.close()
--------------------------------------------------------------------------

    Molecular point group: c1
  Charge       = 0
  Multiplicity = 1
  Basis Set: 6-31G*
  Basis Set:
  @DF-RHF Final Energy:  -383.94624596477206
    Total Energy =                       -383.9462459647720607
    Molecular point group: c1
  Basis Set: 6-31G*
  Basis Set:
  Basis Set: 6-31G*
  Basis Set:
  @DF-RHF Final Energy:  -383.94684183574424
    Total Energy =                       -383.9468418357440100
  Basis Set: 6-31G*
  Basis Set:
  Basis Set: 6-31G*
  Basis Set:
  @DF-RHF Final Energy:  -383.94564949774889
    Total Energy =                       -383.9456494977489456
  Basis Set: 6-31G*
  Basis Set:
  Basis Set: 6-31G*
  Basis Set:
  @DF-RHF Final Energy:  -383.94706419271603
    Total Energy =                       -383.9470641927156294
  Basis Set: 6-31G*
  Basis Set:
  Basis Set: 6-31G*
  Basis Set:
  @DF-RHF Final Energy:  -383.94707090023041
    Total Energy =                       -383.9470709002304147
  Basis Set: 6-31G*
  Basis Set:
  Charge       = 0
  Multiplicity = 1
  Basis Set: 6-31G*
  Basis Set:

    Orbital Energies (a.u.)
    -----------------------

    Doubly Occupied:

       1A    -20.613794     2A    -20.548018     3A    -11.379649
       4A    -11.238073     5A    -11.232641     6A    -11.224045
       7A    -11.222207     8A    -11.213867     9A     -1.473949
      10A     -1.363759    11A     -1.099125    12A     -1.042072
      13A     -0.961017    14A     -0.866635    15A     -0.819921
      16A     -0.788136    17A     -0.701349    18A     -0.686848
      19A     -0.645726    20A     -0.637204    21A     -0.616013
      22A     -0.593215    23A     -0.575547    24A     -0.554287
      25A     -0.548881    26A     -0.514310    27A     -0.502776
      28A     -0.479816    29A     -0.474841    30A     -0.464973
      31A     -0.461442    32A     -0.437078

  @DF-RHF Final Energy:  -383.94707051878771

   => Energetics <=

    Nuclear Repulsion Energy =            376.5109255913847051
    One-Electron Energy =               -1268.9535699003258742
    Two-Electron Energy =                 508.4955737901535713
    DFT Exchange-Correlation Energy =       0.0000000000000000
    Empirical Dispersion Energy =           0.0000000000000000
    PCM Polarization Energy =               0.0000000000000000
    EFP Energy =                            0.0000000000000000
    Total Energy =                       -383.9470705187876547
    Molecular point group: c1
  Basis Set: 6-31G*
  Basis Set:

  -Total Gradient:
     Atom            X                  Y                   Z
    ------   -----------------  -----------------  -----------------
       1       -0.000003860842     0.000017952593    -0.000006431193
       2       -0.000017405419     0.000000113601     0.000052877377
       3        0.000092006116    -0.000336273153     0.000089769716
       4        0.000067264113    -0.000093537379     0.000168487954
       5       -0.000055747815     0.000255980612    -0.000099382717
       6        0.000017901483    -0.000008143165    -0.000031976371
       7       -0.000066344526     0.000176893468    -0.000178359170
       8        0.000002699786     0.000006986816    -0.000015914868
       9       -0.000021388158    -0.000009174919    -0.000004282258
      10        0.000005301978    -0.000006456551     0.000001498415
      11        0.000002650784     0.000003236554    -0.000013199331
      12        0.000006256250    -0.000024473970     0.000034536229
      13       -0.000023115218    -0.000003945252     0.000020804412
      14        0.000015583638    -0.000018323586    -0.000009285361
      15       -0.000005103474     0.000030663388    -0.000019107447
      16        0.000021053406    -0.000008833551     0.000007591253
      17       -0.000034812913     0.000009111255     0.000007500610
      18       -0.000000863654     0.000009943438    -0.000007811660
      19       -0.000007322220     0.000004122421     0.000009293916
      20        0.000005246678    -0.000005842623    -0.000006609504

  **** Optimization is complete! (in 6 steps) ****
    Final optimized geometry and variables:
    Molecular point group: c1

    Geometry (in Angstrom), charge = 0, multiplicity = 1:

    H            3.380743975485    -0.238571827342    -1.310015337527
    O            2.474565261480    -0.504972699674    -1.187005275022
    C            2.086643964289    -0.101652394491     0.021157145267
    C            0.644127414873    -0.425750775405     0.311164218294
    O            2.815539242656     0.481003065209     0.757632701827
    C           -0.233375917118     0.822046119944     0.112254742148
    H            0.323041063760    -1.234914111965    -0.330312719206
    H            0.587327373972    -0.751400611514     1.343402414401
    C           -1.699614647793     0.613682733866     0.504195984122
    H           -0.175906376979     1.138903994408    -0.926441986341
    H            0.181848898551     1.626890892671     0.710061145015
    C           -2.468306773156    -0.376630344733    -0.374609571657
    H           -2.199472972936     1.578639218649     0.460273479415
    H           -1.751668775158     0.292942106908     1.543142601142
    C           -3.949372631759    -0.459636724547    -0.005719932393
    H           -2.371751500415    -0.080761684503    -1.417224054332
    H           -2.029084215598    -1.367372272955    -0.295616108665
    H           -4.472816036867    -1.167540677072    -0.640555103037
    H           -4.435518810119     0.505572852040    -0.114747999907
    H           -4.079370299805    -0.779961965632     1.024139508242

  Mulliken Charges: (a.u.)
   Center  Symbol    Alpha    Beta     Spin     Total
       1     H     0.26823  0.26823  0.00000  0.46354
       2     O     4.34708  4.34708  0.00000 -0.69415
       3     C     2.63115  2.63115  0.00000  0.73770
       4     C     3.20123  3.20123  0.00000 -0.40246
       5     O     4.28007  4.28007  0.00000 -0.56014
       6     C     3.16777  3.16777  0.00000 -0.33553
       7     H     0.39916  0.39916  0.00000  0.20167
       8     H     0.39940  0.39940  0.00000  0.20120
       9     C     3.15391  3.15391  0.00000 -0.30782
      10     H     0.41346  0.41346  0.00000  0.17308
      11     H     0.40363  0.40363  0.00000  0.19274
      12     C     3.15489  3.15489  0.00000 -0.30978
      13     H     0.41767  0.41767  0.00000  0.16466
      14     H     0.42076  0.42076  0.00000  0.15848
      15     C     3.23960  3.23960  0.00000 -0.47919
      16     H     0.42128  0.42128  0.00000  0.15744
      17     H     0.42139  0.42139  0.00000  0.15722
      18     H     0.41784  0.41784  0.00000  0.16431
      19     H     0.42068  0.42068  0.00000  0.15863
      20     H     0.42080  0.42080  0.00000  0.15841

   Total alpha = 32.00000, Total beta = 32.00000, Total charge = -0.00000
