  ==> Input File <==

--------------------------------------------------------------------------
set {
	reference rhf
	basis cc-pvtz
}

set_num_threads( 4 )
memory 2 gb

molecule MOL {
0 1

H	 3.291742	 -0.440811	 0.039362
C	 2.234314	 -0.257172	 0.030022
C	 1.529952	 -0.346991	 -1.161254
C	 1.583565	 0.066934	 1.203477
H	 2.042717	 -0.599367	 -2.069093
C	 0.173339	 -0.112177	 -1.177608
H	 2.130963	 0.135669	 2.123317
C	 0.221080	 0.302480	 1.185462
H	 -0.388307	 -0.176746	 -2.088125
C	 -0.486398	 0.214248	 0.000000
H	 -0.291734	 0.555177	 2.095045
C	 -1.946525	 0.470130	 0.000000
O	 -2.779618	 -0.371226	 0.000000
H	 -2.227127	 1.528393	 0.000000

	symmetry c1
}
set optking {
	frozen_dihedral = ("
		8 10 12 14
	")
}

ee = optimize('scf')
oeprop('DIPOLE', 'QUADRUPOLE', 'MULLIKEN_CHARGES')
f=open( 'psi4out.xyz', 'w' )
f.write( "14  " )
f.write( str(ee) + "\n" )
f.write( MOL.save_string_xyz() )
f.close()
--------------------------------------------------------------------------

    Molecular point group: c1
  Charge       = 0
  Multiplicity = 1
  Basis Set: CC-PVTZ
  Basis Set:
  @DF-RHF Final Energy:  -343.53707474378092
    Total Energy =                       -343.5370747437809769
    Molecular point group: c1
  Basis Set: CC-PVTZ
  Basis Set:
  Basis Set: CC-PVTZ
  Basis Set:
  @DF-RHF Final Energy:  -343.53682320715376
    Total Energy =                       -343.5368232071538159
  Basis Set: CC-PVTZ
  Basis Set:
  Basis Set: CC-PVTZ
  Basis Set:
  @DF-RHF Final Energy:  -343.53727421112330
    Total Energy =                       -343.5372742111231901
  Basis Set: CC-PVTZ
  Basis Set:
  Basis Set: CC-PVTZ
  Basis Set:
  @DF-RHF Final Energy:  -343.53751978138854
    Total Energy =                       -343.5375197813884256
  Basis Set: CC-PVTZ
  Basis Set:
  Charge       = 0
  Multiplicity = 1
  Basis Set: CC-PVTZ
  Basis Set:

    Orbital Energies (a.u.)
    -----------------------

    Doubly Occupied:

       1A    -20.563878     2A    -11.332889     3A    -11.251046
       4A    -11.245821     5A    -11.244931     6A    -11.242686
       7A    -11.242027     8A    -11.240522     9A     -1.418162
      10A     -1.174584    11A     -1.048897    12A     -1.033181
      13A     -0.890148    14A     -0.844868    15A     -0.798384
      16A     -0.725497    17A     -0.681121    18A     -0.656944
      19A     -0.645867    20A     -0.620586    21A     -0.603943
      22A     -0.540400    23A     -0.532105    24A     -0.518028
      25A     -0.505866    26A     -0.426216    27A     -0.352001
      28A     -0.351239

  @DF-RHF Final Energy:  -343.53752167701634

   => Energetics <=

    Nuclear Repulsion Energy =            323.2189312727833794
    One-Electron Energy =               -1106.0492313224669942
    Two-Electron Energy =                 439.2927783726674988
    DFT Exchange-Correlation Energy =       0.0000000000000000
    Empirical Dispersion Energy =           0.0000000000000000
    PCM Polarization Energy =               0.0000000000000000
    EFP Energy =                            0.0000000000000000
    Total Energy =                       -343.5375216770161160
    Molecular point group: c1
  Basis Set: CC-PVTZ
  Basis Set:

  -Total Gradient:
     Atom            X                  Y                   Z
    ------   -----------------  -----------------  -----------------
       1       -0.000005214856    -0.000017640851    -0.000025145529
       2        0.000020879375     0.000065743045     0.000277189065
       3       -0.000233335784     0.000105609600    -0.000136838567
       4        0.000233029333    -0.000125763696    -0.000136523003
       5        0.000018858785    -0.000021833097     0.000012925856
       6        0.000192855440    -0.000133138871    -0.000080431406
       7       -0.000012161573     0.000009017969     0.000009944641
       8       -0.000687473839    -0.002385670840     0.000292410984
       9       -0.000005818320     0.000017264911     0.000012056038
      10        0.000666551720     0.003641106657    -0.001431835104
      11        0.000009575996    -0.000009186019     0.000000781734
      12       -0.000306042102    -0.001168464444     0.004250340062
      13        0.000045426438    -0.000002101732     0.000018211462
      14        0.000062869386     0.000025057370    -0.003063086234

  **** Optimization is complete! (in 5 steps) ****
    Final optimized geometry and variables:
    Molecular point group: c1

    Geometry (in Angstrom), charge = 0, multiplicity = 1:

    H            3.295278512642    -0.447900311995     0.027354816348
    C            2.239661666726    -0.255631818312     0.020874998770
    C            1.528594798207    -0.338943551207    -1.161557544329
    C            1.588431710529     0.070705544694     1.195017589054
    H            2.030613785287    -0.598242407864    -2.073744617858
    C            0.168079555489    -0.099425728071    -1.171020299377
    H            2.135398883289     0.127699164401     2.116370346942
    C            0.229608481241     0.322342717894     1.186229442576
    H           -0.386273031567    -0.181438963635    -2.086458207925
    C           -0.482246686280     0.239655865807     0.002695515959
    H           -0.273122009884     0.575647428264     2.100962161535
    C           -1.962026110117     0.481964007583    -0.005123221269
    O           -2.768613099511    -0.379067110781    -0.055780439941
    H           -2.274831414690     1.531494862179     0.001647116009

  Mulliken Charges: (a.u.)
   Center  Symbol    Alpha    Beta     Spin     Total
       1     H     0.42087  0.42087  0.00000  0.15825
       2     C     3.08366  3.08366  0.00000 -0.16733
       3     C     3.06312  3.06312  0.00000 -0.12625
       4     C     3.06425  3.06425  0.00000 -0.12850
       5     H     0.42110  0.42110  0.00000  0.15779
       6     C     3.09705  3.09705  0.00000 -0.19409
       7     H     0.42100  0.42100  0.00000  0.15801
       8     C     3.09728  3.09728  0.00000 -0.19455
       9     H     0.42104  0.42104  0.00000  0.15792
      10     C     2.94025  2.94025  0.00000  0.11949
      11     H     0.42411  0.42411  0.00000  0.15178
      12     C     2.93336  2.93336  0.00000  0.13328
      13     O     4.15526  4.15526  0.00000 -0.31052
      14     H     0.45764  0.45764  0.00000  0.08473

   Total alpha = 28.00000, Total beta = 28.00000, Total charge = -0.00000
