  ==> Input File <==

--------------------------------------------------------------------------
set {
	reference rhf
	basis cc-pvtz
}

set_num_threads( 4 )
memory 2 gb

molecule MOL {
0 1

H	 2.489523	 0.078908	 -1.746545
O	 1.646139	 0.448291	 -1.561304
C	 1.398976	 0.419707	 -0.179237
C	 0.027642	 1.012027	 0.090274
H	 2.147663	 1.002883	 0.350990
H	 1.456104	 -0.598629	 0.195184
C	 -1.138737	 0.285728	 -0.581921
H	 0.037953	 2.045020	 -0.241880
H	 -0.122850	 1.029451	 1.166964
C	 -1.933983	 -0.631436	 0.343653
H	 -0.763151	 -0.285569	 -1.422081
H	 -1.808359	 1.035291	 -0.992333
H	 -2.789188	 -1.049673	 -0.174718
H	 -1.335629	 -1.461368	 0.700418
H	 -2.305435	 -0.092167	 1.209725

	symmetry c1
}
set optking {
	frozen_dihedral = ("
		8 4 7 11
	")
}

ee = optimize('scf')
oeprop('DIPOLE', 'QUADRUPOLE', 'MULLIKEN_CHARGES')
f=open( 'psi4out.xyz', 'w' )
f.write( "15  " )
f.write( str(ee) + "\n" )
f.write( MOL.save_string_xyz() )
f.close()
--------------------------------------------------------------------------

    Molecular point group: c1
  Charge       = 0
  Multiplicity = 1
  Basis Set: CC-PVTZ
  Basis Set:
  @DF-RHF Final Energy:  -232.23429454534744
    Total Energy =                       -232.2342945453474385
    Molecular point group: c1
  Basis Set: CC-PVTZ
  Basis Set:
  Basis Set: CC-PVTZ
  Basis Set:
  @DF-RHF Final Energy:  -232.23498553376885
    Total Energy =                       -232.2349855337686790
  Basis Set: CC-PVTZ
  Basis Set:
  Basis Set: CC-PVTZ
  Basis Set:
  @DF-RHF Final Energy:  -232.23503754846135
    Total Energy =                       -232.2350375484613778
  Basis Set: CC-PVTZ
  Basis Set:
  Basis Set: CC-PVTZ
  Basis Set:
  @DF-RHF Final Energy:  -232.23504139826454
    Total Energy =                       -232.2350413982645136
  Basis Set: CC-PVTZ
  Basis Set:
  Charge       = 0
  Multiplicity = 1
  Basis Set: CC-PVTZ
  Basis Set:

    Orbital Energies (a.u.)
    -----------------------

    Doubly Occupied:

       1A    -20.546547     2A    -11.266595     3A    -11.210444
       4A    -11.207725     5A    -11.204544     6A     -1.364602
       7A     -1.065063     8A     -0.973657     9A     -0.862535
      10A     -0.783982    11A     -0.706508    12A     -0.650721
      13A     -0.604922    14A     -0.581300    15A     -0.562507
      16A     -0.536302    17A     -0.504934    18A     -0.476566
      19A     -0.469702    20A     -0.454972    21A     -0.432634

  @DF-RHF Final Energy:  -232.23504239019709

   => Energetics <=

    Nuclear Repulsion Energy =            189.8804897951159489
    One-Electron Energy =                -691.2975412961368420
    Two-Electron Energy =                 269.1820091108235147
    DFT Exchange-Correlation Energy =       0.0000000000000000
    Empirical Dispersion Energy =           0.0000000000000000
    PCM Polarization Energy =               0.0000000000000000
    EFP Energy =                            0.0000000000000000
    Total Energy =                       -232.2350423901973500
    Molecular point group: c1
  Basis Set: CC-PVTZ
  Basis Set:

  -Total Gradient:
     Atom            X                  Y                   Z
    ------   -----------------  -----------------  -----------------
       1        0.000004509753     0.000005219269     0.000014512643
       2       -0.000031842045     0.000021246136     0.000043283902
       3        0.000025932456    -0.000003498919    -0.000015716753
       4        0.002387656136    -0.001611250518    -0.002544925690
       5        0.000041001777    -0.000025335152    -0.000046241083
       6       -0.000001341487     0.000013447544     0.000024375230
       7       -0.000941004099     0.003242639128    -0.001698806348
       8       -0.001845511993     0.000826505371     0.002365144020
       9       -0.000014057030     0.000005488267    -0.000004151776
      10       -0.000044257114    -0.000048531373    -0.000021975704
      11        0.000424753772    -0.002423413574     0.001875241349
      12       -0.000000402226     0.000004105132     0.000002563106
      13       -0.000009306223    -0.000025989947     0.000028354070
      14       -0.000002091540     0.000007667366    -0.000005142504
      15        0.000005959863     0.000011701269    -0.000016514461

  **** Optimization is complete! (in 5 steps) ****
    Final optimized geometry and variables:
    Molecular point group: c1

    Geometry (in Angstrom), charge = 0, multiplicity = 1:

    H            2.438275366498    -0.238555567374    -1.330509928229
    O            1.627834263145     0.197549319598    -1.143495536063
    C            1.318663876713     0.079366588834     0.220808053963
    C           -0.029372601710     0.723432401346     0.477889808420
    H            2.078406327517     0.570432794380     0.823410760985
    H            1.293028635432    -0.968361035910     0.514593084218
    C           -1.209421506143    -0.000280209045    -0.192322942343
    H            0.012071687567     1.758891483781     0.159597210753
    H           -0.183998740366     0.751853954534     1.553296773087
    C           -1.952373889222    -0.938336014353     0.757293876640
    H           -0.841169572822    -0.577612159645    -1.031658119208
    H           -1.907579372595     0.725138536016    -0.592873535827
    H           -2.748760256563    -1.465977204349     0.244585417020
    H           -1.284350704268    -1.683116883991     1.178603530341
    H           -2.395248646050    -0.390792449252     1.582770903433

  Mulliken Charges: (a.u.)
   Center  Symbol    Alpha    Beta     Spin     Total
       1     H     0.39536  0.39536  0.00000  0.20929
       2     O     4.19907  4.19907  0.00000 -0.39814
       3     C     2.97309  2.97309  0.00000  0.05382
       4     C     3.09301  3.09301  0.00000 -0.18602
       5     H     0.46443  0.46443  0.00000  0.07114
       6     H     0.47338  0.47338  0.00000  0.05325
       7     C     3.09050  3.09050  0.00000 -0.18101
       8     H     0.44671  0.44671  0.00000  0.10657
       9     H     0.45668  0.45668  0.00000  0.08663
      10     C     3.14847  3.14847  0.00000 -0.29694
      11     H     0.44669  0.44669  0.00000  0.10662
      12     H     0.44954  0.44954  0.00000  0.10093
      13     H     0.44910  0.44910  0.00000  0.10180
      14     H     0.45758  0.45758  0.00000  0.08483
      15     H     0.45639  0.45639  0.00000  0.08722

   Total alpha = 21.00000, Total beta = 21.00000, Total charge =  0.00000
