  ==> Input File <==

--------------------------------------------------------------------------
set {
	reference rhf
	basis 6-31G*
}

set_num_threads( 4 )
memory 2 gb

molecule MOL {
0 1

H	 1.693012	 2.602603	 -2.444411
O	 2.563256	 2.243775	 -2.539221
C	 3.117294	 2.003672	 -1.270581
C	 2.497176	 0.805142	 -0.560858
H	 4.171270	 1.823571	 -1.439018
H	 3.037196	 2.892227	 -0.645414
C	 1.012281	 0.976753	 -0.231456
H	 2.633216	 -0.073844	 -1.185552
H	 3.053681	 0.630262	 0.358427
C	 0.432966	 -0.219936	 0.528246
H	 0.456788	 1.124675	 -1.153363
H	 0.875664	 1.878731	 0.365296
C	 -1.030233	 -0.062745	 0.957991
H	 0.534362	 -1.115020	 -0.082811
H	 1.036423	 -0.390484	 1.417321
C	 -2.037799	 -0.007733	 -0.193645
H	 -1.288180	 -0.898922	 1.604588
H	 -1.131173	 0.833153	 1.568740
C	 -3.489788	 0.042957	 0.286558
H	 -1.901712	 -0.879802	 -0.831679
H	 -1.844383	 0.860483	 -0.819019
C	 -4.216917	 1.317354	 -0.141063
H	 -4.025645	 -0.823308	 -0.095450
H	 -3.513059	 -0.038752	 1.371301
H	 -4.239342	 1.411634	 -1.223113
H	 -5.243387	 1.322503	 0.212445
H	 -3.726170	 2.201406	 0.256408

	symmetry c1
}
set optking {
	frozen_dihedral = ("
		20 16 19 22
	")
}

ee = optimize('scf')
oeprop('DIPOLE', 'QUADRUPOLE', 'MULLIKEN_CHARGES')
f=open( 'psi4out.xyz', 'w' )
f.write( "27  " )
f.write( str(ee) + "\n" )
f.write( MOL.save_string_xyz() )
f.close()
--------------------------------------------------------------------------

    Molecular point group: c1
  Charge       = 0
  Multiplicity = 1
  Basis Set: 6-31G*
  Basis Set:
  @DF-RHF Final Energy:  -388.27579269407067
    Total Energy =                       -388.2757926940709012
    Molecular point group: c1
  Basis Set: 6-31G*
  Basis Set:
  Basis Set: 6-31G*
  Basis Set:
  @DF-RHF Final Energy:  -388.27602019671338
    Total Energy =                       -388.2760201967129206
  Basis Set: 6-31G*
  Basis Set:
  Basis Set: 6-31G*
  Basis Set:
  @DF-RHF Final Energy:  -388.27607129987956
    Total Energy =                       -388.2760712998796180
  Basis Set: 6-31G*
  Basis Set:
  Basis Set: 6-31G*
  Basis Set:
  @DF-RHF Final Energy:  -388.27612236229839
    Total Energy =                       -388.2761223622983380
  Basis Set: 6-31G*
  Basis Set:
  Basis Set: 6-31G*
  Basis Set:
  @DF-RHF Final Energy:  -388.27612536679254
    Total Energy =                       -388.2761253667922574
  Basis Set: 6-31G*
  Basis Set:
  Charge       = 0
  Multiplicity = 1
  Basis Set: 6-31G*
  Basis Set:

    Orbital Energies (a.u.)
    -----------------------

    Doubly Occupied:

       1A    -20.552326     2A    -11.267073     3A    -11.219870
       4A    -11.217157     5A    -11.216133     6A    -11.215816
       7A    -11.215242     8A    -11.214047     9A    -11.210121
      10A     -1.359081    11A     -1.094314    12A     -1.059829
      13A     -1.011022    14A     -0.948189    15A     -0.888236
      16A     -0.822095    17A     -0.801947    18A     -0.777402
      19A     -0.693782    20A     -0.649343    21A     -0.626446
      22A     -0.613959    23A     -0.612738    24A     -0.586400
      25A     -0.580707    26A     -0.551409    27A     -0.535888
      28A     -0.533053    29A     -0.507035    30A     -0.490979
      31A     -0.488938    32A     -0.474679    33A     -0.470603
      34A     -0.454976    35A     -0.451693    36A     -0.440595
      37A     -0.422752

  @DF-RHF Final Energy:  -388.27612532240971

   => Energetics <=

    Nuclear Repulsion Energy =            461.2634626840418832
    One-Electron Energy =               -1440.5274226196152085
    Two-Electron Energy =                 590.9878346131637272
    DFT Exchange-Correlation Energy =       0.0000000000000000
    Empirical Dispersion Energy =           0.0000000000000000
    PCM Polarization Energy =               0.0000000000000000
    EFP Energy =                            0.0000000000000000
    Total Energy =                       -388.2761253224095981
    Molecular point group: c1
  Basis Set: 6-31G*
  Basis Set:

  -Total Gradient:
     Atom            X                  Y                   Z
    ------   -----------------  -----------------  -----------------
       1       -0.000006720313    -0.000003069112     0.000004599415
       2       -0.000002038859    -0.000001118808     0.000001171163
       3        0.000001869265    -0.000009875419    -0.000008395830
       4       -0.000005104273     0.000005999557    -0.000015080981
       5        0.000001141966    -0.000000290793    -0.000000660292
       6       -0.000000792579    -0.000002750484     0.000001999445
       7       -0.000006997918     0.000018329466    -0.000008336205
       8        0.000005164834    -0.000004103484     0.000004971291
       9        0.000000535752     0.000008930324     0.000000965833
      10       -0.000000981273    -0.000049108669    -0.000001842547
      11        0.000013730808     0.000019250216     0.000003772103
      12        0.000005933382     0.000000629206     0.000012489610
      13        0.000008082421     0.000015838687    -0.000027301302
      14        0.000009140892    -0.000018061987     0.000020220438
      15        0.000003359448     0.000016863478    -0.000005420348
      16        0.000059104534    -0.000164107834     0.000191540341
      17       -0.000029371310     0.000003729945    -0.000011930597
      18        0.000009784471    -0.000004481788    -0.000005937798
      19        0.000069534068     0.000139387358     0.000159461245
      20       -0.000030661024     0.000140051533    -0.000197340616
      21        0.000017718210    -0.000013410212     0.000003890168
      22       -0.000074402977    -0.000106788608    -0.000128663106
      23       -0.000023047490     0.000009928125     0.000004447687
      24       -0.000024291473     0.000001234430    -0.000000200029
      25        0.000006188213    -0.000007928964     0.000003783356
      26       -0.000008091959     0.000014570759    -0.000006553249
      27        0.000001213179    -0.000009646921     0.000004350804

  **** Optimization is complete! (in 6 steps) ****
    Final optimized geometry and variables:
    Molecular point group: c1

    Geometry (in Angstrom), charge = 0, multiplicity = 1:

    H            1.784541404452     1.790048233129    -2.041702218745
    O            2.654417615873     1.431949447986    -2.142510260870
    C            3.214538558632     1.185967945945    -0.877694597419
    C            2.599938858699    -0.017797916892    -0.172066003927
    H            4.268052424226     1.008830403867    -1.051971746470
    H            3.135617711452     2.070872874254    -0.247233714756
    C            1.115845378812     0.148526609997     0.163454133775
    H            2.735812614982    -0.893179546991    -0.801829198556
    H            3.160165087754    -0.196156551263     0.744276718354
    C            0.541121988094    -1.055517941924     0.915341403845
    H            0.557774004218     0.303606665304    -0.755632941713
    H            0.979665276931     1.045214652104     0.768218920235
    C           -0.921485288529    -0.906977014099     1.348719440282
    H            0.644783239966    -1.946240487967     0.298150019823
    H            1.146649023731    -1.229998322412     1.802274755813
    C           -1.934373822842    -0.860835434318     0.199987111078
    H           -1.173740365144    -1.743537184354     1.996865185952
    H           -1.028234404532    -0.010602386398     1.958428022604
    C           -3.400618285268    -0.774324627333     0.683866342209
    H           -1.799470119254    -1.742739007509    -0.421483754159
    H           -1.719616745410    -0.011196968024    -0.441771910954
    C           -4.115539271284     0.501128871225     0.236085182313
    H           -3.959326072792    -1.634434676226     0.326307203402
    H           -3.431511255257    -0.831526714511     1.768920061897
    H           -4.153313322376     0.568553451942    -0.847483627047
    H           -5.136002935216     0.532435602729     0.605776149613
    H           -3.602766891253     1.386098113470     0.603481895883

  Mulliken Charges: (a.u.)
   Center  Symbol    Alpha    Beta     Spin     Total
       1     H     0.27988  0.27988  0.00000  0.44023
       2     O     4.37093  4.37093  0.00000 -0.74185
       3     C     2.99742  2.99742  0.00000  0.00517
       4     C     3.16083  3.16083  0.00000 -0.32167
       5     H     0.41443  0.41443  0.00000  0.17114
       6     H     0.43203  0.43203  0.00000  0.13594
       7     C     3.16323  3.16323  0.00000 -0.32647
       8     H     0.41497  0.41497  0.00000  0.17005
       9     H     0.42433  0.42433  0.00000  0.15133
      10     C     3.15284  3.15284  0.00000 -0.30568
      11     H     0.42299  0.42299  0.00000  0.15402
      12     H     0.42543  0.42543  0.00000  0.14914
      13     C     3.15542  3.15542  0.00000 -0.31084
      14     H     0.42161  0.42161  0.00000  0.15679
      15     H     0.42142  0.42142  0.00000  0.15715
      16     C     3.15694  3.15694  0.00000 -0.31388
      17     H     0.42056  0.42056  0.00000  0.15888
      18     H     0.42436  0.42436  0.00000  0.15127
      19     C     3.15484  3.15484  0.00000 -0.30968
      20     H     0.42062  0.42062  0.00000  0.15877
      21     H     0.42070  0.42070  0.00000  0.15861
      22     C     3.23987  3.23987  0.00000 -0.47974
      23     H     0.41972  0.41972  0.00000  0.16057
      24     H     0.42000  0.42000  0.00000  0.16000
      25     H     0.42151  0.42151  0.00000  0.15699
      26     H     0.42023  0.42023  0.00000  0.15953
      27     H     0.42289  0.42289  0.00000  0.15422

   Total alpha = 37.00000, Total beta = 37.00000, Total charge = -0.00000
