  ==> Input File <==

--------------------------------------------------------------------------
set {
	reference rhf
	basis cc-pvtz
}

set_num_threads( 4 )
memory 2 gb

molecule MOL {
0 1

H	 -1.835082	 1.385983	 0.000069
C	 -1.300516	 0.441153	 -0.000028
O	 -0.006604	 0.654344	 -0.000106
O	 -1.828920	 -0.612308	 0.000113
C	 0.489982	 1.715522	 0.810528
C	 1.990150	 1.760742	 0.642734
H	 0.208618	 1.531473	 1.837620
H	 0.025428	 2.640107	 0.498606
H	 2.441301	 0.827542	 0.955098
H	 2.400468	 2.559974	 1.248308
H	 2.257195	 1.941723	 -0.390659

	symmetry c1
}
set optking {
	frozen_dihedral = ("
		5 3 2 4
	")
}

ee = optimize('scf')
oeprop('DIPOLE', 'QUADRUPOLE', 'MULLIKEN_CHARGES')
f=open( 'psi4out.xyz', 'w' )
f.write( "11  " )
f.write( str(ee) + "\n" )
f.write( MOL.save_string_xyz() )
f.close()
--------------------------------------------------------------------------

    Molecular point group: c1
  Charge       = 0
  Multiplicity = 1
  Basis Set: CC-PVTZ
  Basis Set:
  @DF-RHF Final Energy:  -266.91847820503085
    Total Energy =                       -266.9184782050309082
    Molecular point group: c1
  Basis Set: CC-PVTZ
  Basis Set:
  Basis Set: CC-PVTZ
  Basis Set:
  @DF-RHF Final Energy:  -266.91937328002552
    Total Energy =                       -266.9193732800255248
  Basis Set: CC-PVTZ
  Basis Set:
  Basis Set: CC-PVTZ
  Basis Set:
  @DF-RHF Final Energy:  -266.91951766129671
    Total Energy =                       -266.9195176612969362
  Basis Set: CC-PVTZ
  Basis Set:
  Basis Set: CC-PVTZ
  Basis Set:
  @DF-RHF Final Energy:  -266.91978003854274
    Total Energy =                       -266.9197800385429673
  Basis Set: CC-PVTZ
  Basis Set:
  Basis Set: CC-PVTZ
  Basis Set:
  @DF-RHF Final Energy:  -266.91978970589611
    Total Energy =                       -266.9197897058962212
  Basis Set: CC-PVTZ
  Basis Set:
  Charge       = 0
  Multiplicity = 1
  Basis Set: CC-PVTZ
  Basis Set:

    Orbital Energies (a.u.)
    -----------------------

    Doubly Occupied:

       1A    -20.599293     2A    -20.550360     3A    -11.372580
       4A    -11.304001     5A    -11.231009     6A     -1.474539
       7A     -1.384625     8A     -1.054654     9A     -0.889267
      10A     -0.844531    11A     -0.742913    12A     -0.694424
      13A     -0.664600    14A     -0.623330    15A     -0.570619
      16A     -0.554157    17A     -0.538834    18A     -0.515105
      19A     -0.464995    20A     -0.454613

  @DF-RHF Final Energy:  -266.91979041750034

   => Energetics <=

    Nuclear Repulsion Energy =            176.7386347343584134
    One-Electron Energy =                -714.2599502842626862
    Two-Electron Energy =                 270.6015251324039355
    DFT Exchange-Correlation Energy =       0.0000000000000000
    Empirical Dispersion Energy =           0.0000000000000000
    PCM Polarization Energy =               0.0000000000000000
    EFP Energy =                            0.0000000000000000
    Total Energy =                       -266.9197904175003941
    Molecular point group: c1
  Basis Set: CC-PVTZ
  Basis Set:

  -Total Gradient:
     Atom            X                  Y                   Z
    ------   -----------------  -----------------  -----------------
       1       -0.000010324474    -0.000020378757    -0.000001421568
       2        0.000846816263    -0.002199798512    -0.006506264776
       3        0.000026186280     0.003864764036    -0.002780483399
       4       -0.000677515094     0.000695084980     0.005568521046
       5       -0.000192406912    -0.002362383355     0.003724471753
       6       -0.000003893540     0.000024239313     0.000004266788
       7        0.000009045552     0.000007011521     0.000004209617
       8        0.000027863208    -0.000003877134    -0.000005718061
       9       -0.000012642095     0.000001157784     0.000003368416
      10       -0.000006873889    -0.000006955618    -0.000002813177
      11       -0.000006255303     0.000001135736    -0.000008136639

  **** Optimization is complete! (in 6 steps) ****
    Final optimized geometry and variables:
    Molecular point group: c1

    Geometry (in Angstrom), charge = 0, multiplicity = 1:

    H           -1.660962276589     0.637922386792    -0.514443666906
    C           -1.165485876572    -0.320646042174    -0.351517328932
    O            0.146595722818    -0.217941509494    -0.204684979282
    O           -1.748089458033    -1.336061689385    -0.301934517107
    C            0.638119328082     0.879564681008     0.543686122074
    C            2.125949606976     0.991691499374     0.309027730284
    H            0.423646984330     0.709414497392     1.591884651945
    H            0.130375475066     1.788786705825     0.236556568576
    H            2.626066073190     0.080317968107     0.608664231599
    H            2.529013809376     1.813930770804     0.888049773986
    H            2.334673073815     1.169936878783    -0.737953648100

  Mulliken Charges: (a.u.)
   Center  Symbol    Alpha    Beta     Spin     Total
       1     H     0.47550  0.47550  0.00000  0.04899
       2     C     2.84238  2.84238  0.00000  0.31523
       3     O     4.13430  4.13430  0.00000 -0.26861
       4     O     4.16952  4.16952  0.00000 -0.33905
       5     C     2.97567  2.97567  0.00000  0.04866
       6     C     3.13270  3.13270  0.00000 -0.26540
       7     H     0.45654  0.45654  0.00000  0.08693
       8     H     0.46376  0.46376  0.00000  0.07248
       9     H     0.44496  0.44496  0.00000  0.11007
      10     H     0.45548  0.45548  0.00000  0.08903
      11     H     0.44917  0.44917  0.00000  0.10165

   Total alpha = 20.00000, Total beta = 20.00000, Total charge = -0.00000
