                              Psi4 1.0.54 Driver

  ==> Input File <==

--------------------------------------------------------------------------
set {
	reference rhf
	basis cc-pvtz
}

set_num_threads( 4 )
memory 2 gb

molecule MOL {
0 1

H	 -2.849538	 2.897841	 -1.217445
C	 -3.379816	 2.202470	 -0.552501
C	 -2.653809	 0.914422	 -0.273689
O	 -4.443573	 2.489050	 -0.124015
C	 -1.216901	 1.136108	 0.207794
H	 -3.230372	 0.341841	 0.441197
H	 -2.635563	 0.359798	 -1.209297
C	 -0.247837	 0.040196	 -0.230469
H	 -0.872882	 2.093195	 -0.169002
H	 -1.209325	 1.218376	 1.291938
C	 1.181757	 0.280428	 0.247371
H	 -0.259600	 -0.030819	 -1.314870
H	 -0.591284	 -0.923375	 0.136958
C	 2.151032	 -0.811012	 -0.202643
H	 1.515939	 1.247397	 -0.115449
H	 1.191514	 0.341223	 1.333422
C	 3.580021	 -0.656538	 0.320835
H	 2.170545	 -0.847575	 -1.289412
H	 1.766632	 -1.772905	 0.124928
C	 4.327657	 0.562694	 -0.213579
H	 4.138806	 -1.549270	 0.057813
H	 3.561991	 -0.620783	 1.406976
H	 4.355973	 0.557257	 -1.298551
H	 3.867136	 1.491650	 0.100501
H	 5.351524	 0.571613	 0.142204

	symmetry c1
}
set optking {
	frozen_dihedral = ("
		6 3 5 8
	")
}

ee,wfn = optimize('scf', return_wfn=True)
oeprop( wfn, 'DIPOLE', 'QUADRUPOLE', 'MULLIKEN_CHARGES')
f=open( 'psi4out.xyz', 'w' )
f.write( "25  " )
f.write( str(ee) + "\n" )
f.write( MOL.save_string_xyz() )
f.close()
--------------------------------------------------------------------------

    Molecular point group: c1
  Charge       = 0
  Multiplicity = 1
  Basis Set: CC-PVTZ
  Basis Set:
  @DF-RHF Final Energy:  -387.25842983867676
    Total Energy =                       -387.2584298386765340
    Molecular point group: c1
  Basis Set: CC-PVTZ
  Basis Set:
  Basis Set: CC-PVTZ
  Basis Set:
  @DF-RHF Final Energy:  -387.25860862701296
    Total Energy =                       -387.2586086270133592
  Basis Set: CC-PVTZ
  Basis Set:
  Basis Set: CC-PVTZ
  Basis Set:
  @DF-RHF Final Energy:  -387.25843199913936
    Total Energy =                       -387.2584319991392476
  Basis Set: CC-PVTZ
  Basis Set:
  Basis Set: CC-PVTZ
  Basis Set:
  @DF-RHF Final Energy:  -387.25872386098268
    Total Energy =                       -387.2587238609823999
  Basis Set: CC-PVTZ
  Basis Set:
  Basis Set: CC-PVTZ
  Basis Set:
  @DF-RHF Final Energy:  -387.25873603079884
    Total Energy =                       -387.2587360307989002
  Basis Set: CC-PVTZ
  Basis Set:
  Basis Set: CC-PVTZ
  Basis Set:
  @DF-RHF Final Energy:  -387.25874403199469
    Total Energy =                       -387.2587440319944108
  Basis Set: CC-PVTZ
  Basis Set:
  Charge       = 0
  Multiplicity = 1
  Basis Set: CC-PVTZ
  Basis Set:

    Orbital Energies (a.u.)
    -----------------------

    Doubly Occupied:

       1A    -20.551603     2A    -11.320734     3A    -11.233851
       4A    -11.233240     5A    -11.224531     6A    -11.219052
       7A    -11.217879     8A    -11.217134     9A    -11.210106
      10A     -1.406680    11A     -1.105864    12A     -1.071602
      13A     -1.016396    14A     -0.945984    15A     -0.876168
      16A     -0.814885    17A     -0.794773    18A     -0.782757
      19A     -0.678266    20A     -0.660601    21A     -0.636240
      22A     -0.622953    23A     -0.608181    24A     -0.594663
      25A     -0.574712    26A     -0.553768    27A     -0.538605
      28A     -0.524809    29A     -0.512256    30A     -0.499349
      31A     -0.486847    32A     -0.479617    33A     -0.467238
      34A     -0.460910    35A     -0.452605    36A     -0.409399

  @DF-RHF Final Energy:  -387.25874479039322

   => Energetics <=

    Nuclear Repulsion Energy =            432.5262796919666357
    One-Electron Energy =               -1381.5615301277630351
    Two-Electron Energy =                 561.7765056454036312
    DFT Exchange-Correlation Energy =       0.0000000000000000
    Empirical Dispersion Energy =           0.0000000000000000
    PCM Polarization Energy =               0.0000000000000000
    EFP Energy =                            0.0000000000000000
    Total Energy =                       -387.2587447903927114
    Molecular point group: c1
  Basis Set: CC-PVTZ
  Basis Set:

  -Total Gradient:
     Atom            X                  Y                   Z
    ------   -----------------  -----------------  -----------------
       1        0.000024794637    -0.000115228281     0.000030759037
       2       -0.000346180697     0.000381791411     0.000042622366
       3        0.001732839258    -0.003772179087    -0.003028252363
       4        0.000184504058    -0.000118733007    -0.000069981316
       5       -0.001044990330    -0.000987224501     0.003691260360
       6       -0.001147167814     0.003307108547     0.001638828386
       7        0.000004110533    -0.000011931636    -0.000006241141
       8        0.000562358232     0.001265091392    -0.002293505273
       9        0.000047119721     0.000013503539    -0.000001702462
      10        0.000034589447    -0.000005858035     0.000046430297
      11       -0.000057188893     0.000000499218    -0.000041169559
      12       -0.000003957307    -0.000002390922     0.000010776070
      13       -0.000016389484     0.000008854712     0.000014572249
      14        0.000031011537     0.000050339664    -0.000084307829
      15       -0.000040217365    -0.000043826799     0.000012807028
      16       -0.000014295474     0.000005970519     0.000022279322
      17       -0.000041673162     0.000052548314     0.000064411908
      18        0.000000765066     0.000017479667    -0.000023751346
      19        0.000019610890    -0.000002641846    -0.000019378376
      20        0.000034213189    -0.000012591973    -0.000015433678
      21       -0.000019279452    -0.000015707735     0.000023052044
      22       -0.000006448549     0.000025220584     0.000013320439
      23       -0.000004521473     0.000017713330    -0.000019060517
      24        0.000062193812    -0.000041884866     0.000008308223
      25        0.000004199609    -0.000015922206    -0.000016643872

  **** Optimization is complete! (in 7 steps) ****
    Final optimized geometry and variables:
    Molecular point group: c1

    Geometry (in Angstrom), charge = 0, multiplicity = 1:

    H           -2.892476679988     2.140910555050    -1.186736930703
    C           -3.336620882099     1.480287120340    -0.430278677614
    C           -2.589171350711     0.195067311514    -0.190683894140
    O           -4.326564216161     1.801855534915     0.129480710335
    C           -1.140347264031     0.456665257460     0.250716466268
    H           -3.140224509797    -0.358758178021     0.557145911958
    H           -2.600039271476    -0.362228843582    -1.123604489690
    C           -0.171200988337    -0.644198831292    -0.172912719295
    H           -0.795810750195     1.395743589480    -0.176413410311
    H           -1.114350384912     0.587905096519     1.326755027496
    C            1.257277148380    -0.407547808850     0.308541434040
    H           -0.179230621114    -0.721439415400    -1.257065057972
    H           -0.524776682476    -1.601146664255     0.203209487381
    C            2.225241629052    -1.500584596196    -0.140670597834
    H            1.594828834537     0.559236933207    -0.051811347104
    H            1.263664019317    -0.348436666697     1.394433837614
    C            3.651579342094    -1.354431406839     0.392350552941
    H            2.251664714351    -1.532626727523    -1.227597387974
    H            1.835135583287    -2.462420012696     0.180659996718
    C            4.411623862090    -0.142315249084    -0.140702976059
    H            4.205780921865    -2.251989033327     0.136024869344
    H            3.625981700958    -1.315133076881     1.478140527919
    H            4.444224205872    -0.149319301230    -1.225585400088
    H            3.958087605780     0.790921658518     0.170601950162
    H            5.434094752667    -0.141891227444     0.219054780811

  Mulliken Charges: (a.u.)
   Center  Symbol    Alpha    Beta     Spin     Total
       1     H     0.46691  0.46691  0.00000  0.06617
       2     C     2.90518  2.90518  0.00000  0.18965
       3     C     3.08007  3.08007  0.00000 -0.16013
       4     O     4.16445  4.16445  0.00000 -0.32891
       5     C     3.10567  3.10567  0.00000 -0.21133
       6     H     0.44156  0.44156  0.00000  0.11689
       7     H     0.44933  0.44933  0.00000  0.10134
       8     C     3.09078  3.09078  0.00000 -0.18155
       9     H     0.45303  0.45303  0.00000  0.09395
      10     H     0.44337  0.44337  0.00000  0.11327
      11     C     3.09344  3.09344  0.00000 -0.18688
      12     H     0.45357  0.45357  0.00000  0.09286
      13     H     0.45025  0.45025  0.00000  0.09950
      14     C     3.09553  3.09553  0.00000 -0.19106
      15     H     0.45170  0.45170  0.00000  0.09659
      16     H     0.45276  0.45276  0.00000  0.09449
      17     C     3.09068  3.09068  0.00000 -0.18136
      18     H     0.45378  0.45378  0.00000  0.09244
      19     H     0.44897  0.44897  0.00000  0.10206
      20     C     3.15256  3.15256  0.00000 -0.30512
      21     H     0.44784  0.44784  0.00000  0.10433
      22     H     0.45420  0.45420  0.00000  0.09159
      23     H     0.45486  0.45486  0.00000  0.09028
      24     H     0.45387  0.45387  0.00000  0.09226
      25     H     0.44565  0.44565  0.00000  0.10869

   Total alpha = 36.00000, Total beta = 36.00000, Total charge = -0.00000

*** Psi4 exiting successfully. Buy a developer a beer!
