  ==> Input File <==

--------------------------------------------------------------------------
set {
	reference rhf
	basis cc-pvtz
}

set_num_threads( 4 )
memory 2 gb

molecule MOL {
0 1

H	 2.646708	 0.758099	 0.000000
O	 2.258158	 -0.097743	 0.000000
C	 0.911162	 -0.015915	 0.000000
C	 0.258942	 -0.189971	 -1.209593
C	 0.184457	 0.231282	 1.149441
H	 0.838816	 -0.380891	 -2.090952
C	 -1.116238	 -0.114958	 -1.257862
H	 0.690485	 0.366381	 2.088235
C	 -1.195819	 0.303931	 1.086037
H	 -1.616322	 -0.250660	 -2.198022
C	 -1.855385	 0.132207	 -0.112885
H	 -1.752534	 0.496285	 1.983475
H	 -2.925239	 0.189173	 -0.158318

	symmetry c1
}
set optking {
	frozen_dihedral = ("
		4 3 2 1
	")
}

ee = optimize('scf')
oeprop('DIPOLE', 'QUADRUPOLE', 'MULLIKEN_CHARGES')
f=open( 'psi4out.xyz', 'w' )
f.write( "13  " )
f.write( str(ee) + "\n" )
f.write( MOL.save_string_xyz() )
f.close()
--------------------------------------------------------------------------

    Molecular point group: c1
  Charge       = 0
  Multiplicity = 1
  Basis Set: CC-PVTZ
  Basis Set:
  @DF-RHF Final Energy:  -305.66562970992260
    Total Energy =                       -305.6656297099226549
    Molecular point group: c1
  Basis Set: CC-PVTZ
  Basis Set:
  Basis Set: CC-PVTZ
  Basis Set:
  @DF-RHF Final Energy:  -305.66628196984419
    Total Energy =                       -305.6662819698443059
  Basis Set: CC-PVTZ
  Basis Set:
  Basis Set: CC-PVTZ
  Basis Set:
  @DF-RHF Final Energy:  -305.66633739171220
    Total Energy =                       -305.6663373917121476
  Basis Set: CC-PVTZ
  Basis Set:
  Basis Set: CC-PVTZ
  Basis Set:
  @DF-RHF Final Energy:  -305.66634338294671
    Total Energy =                       -305.6663433829467067
  Basis Set: CC-PVTZ
  Basis Set:
  Charge       = 0
  Multiplicity = 1
  Basis Set: CC-PVTZ
  Basis Set:

    Orbital Energies (a.u.)
    -----------------------

    Doubly Occupied:

       1A    -20.571152     2A    -11.288875     3A    -11.233525
       4A    -11.233184     5A    -11.225914     6A    -11.225748
       7A    -11.225046     8A     -1.397955     9A     -1.153352
      10A     -1.022395    11A     -1.008345    12A     -0.839883
      13A     -0.828588    14A     -0.738117    15A     -0.684269
      16A     -0.651630    17A     -0.632534    18A     -0.596866
      19A     -0.592092    20A     -0.526281    21A     -0.517844
      22A     -0.498492    23A     -0.471677    24A     -0.341902
      25A     -0.329467

  @DF-RHF Final Energy:  -305.66634441939897

   => Energetics <=

    Nuclear Repulsion Energy =            273.3113033882991090
    One-Electron Energy =                -956.2850296849416054
    Two-Electron Energy =                 377.3073818772434151
    DFT Exchange-Correlation Energy =       0.0000000000000000
    Empirical Dispersion Energy =           0.0000000000000000
    PCM Polarization Energy =               0.0000000000000000
    EFP Energy =                            0.0000000000000000
    Total Energy =                       -305.6663444193991381
    Molecular point group: c1
  Basis Set: CC-PVTZ
  Basis Set:

  -Total Gradient:
     Atom            X                  Y                   Z
    ------   -----------------  -----------------  -----------------
       1        0.000034094981     0.000001520222    -0.000718369228
       2        0.000161687534     0.000262241491     0.000812861900
       3       -0.000300018326    -0.000765419346     0.000196892667
       4        0.000016546638     0.000495284557    -0.000201554301
       5        0.000176997523     0.000003258378    -0.000051462047
       6       -0.000019147342    -0.000004085039     0.000023679411
       7        0.000082942158     0.000038614556    -0.000054734336
       8        0.000022251055    -0.000012668158     0.000000534432
       9       -0.000146795133     0.000012334479    -0.000100689630
      10       -0.000035361548    -0.000005205019     0.000010789226
      11        0.000000239309    -0.000012534310     0.000132392081
      12        0.000013303374    -0.000006467966    -0.000013083328
      13       -0.000006740222    -0.000006873845    -0.000037256846

  **** Optimization is complete! (in 5 steps) ****
    Final optimized geometry and variables:
    Molecular point group: c1

    Geometry (in Angstrom), charge = 0, multiplicity = 1:

    H            2.661319769112     0.708736375278     0.078054593350
    O            2.267032514676    -0.145702215444     0.081257690980
    C            0.903914652427    -0.044575844582     0.033446524839
    C            0.250510048994    -0.225270938984    -1.169959053913
    C            0.183915894415     0.196925038199     1.187454592460
    H            0.826659528058    -0.422890592852    -2.052773431846
    C           -1.129215031619    -0.160116320616    -1.216487159892
    H            0.706478187929     0.319064704035     2.116610404481
    C           -1.195512335614     0.264942142594     1.132436820738
    H           -1.635168076005    -0.303144169952    -2.152265004444
    C           -1.857180542016     0.087466337606    -0.067880305157
    H           -1.752734733142     0.452216345596     2.030486859444
    H           -2.928136977458     0.137094158515    -0.107278212005

  Mulliken Charges: (a.u.)
   Center  Symbol    Alpha    Beta     Spin     Total
       1     H     0.38810  0.38810  0.00000  0.22381
       2     O     4.19244  4.19244  0.00000 -0.38487
       3     C     2.87213  2.87213  0.00000  0.25574
       4     C     3.10844  3.10844  0.00000 -0.21688
       5     C     3.11265  3.11265  0.00000 -0.22529
       6     H     0.41660  0.41660  0.00000  0.16680
       7     C     3.06898  3.06898  0.00000 -0.13796
       8     H     0.41801  0.41801  0.00000  0.16398
       9     C     3.06964  3.06964  0.00000 -0.13928
      10     H     0.42158  0.42158  0.00000  0.15684
      11     C     3.08674  3.08674  0.00000 -0.17349
      12     H     0.42166  0.42166  0.00000  0.15669
      13     H     0.42303  0.42303  0.00000  0.15394

   Total alpha = 25.00000, Total beta = 25.00000, Total charge =  0.00000
