  ==> Input File <==

--------------------------------------------------------------------------
set {
	reference rhf
	basis cc-pvtz
}

set_num_threads( 4 )
memory 2 gb

molecule MOL {
0 1

O	 -2.071633	 -1.227563	 -0.223463
C	 -1.652164	 -0.152425	 0.058082
C	 -0.327811	 0.006324	 0.778296
C	 -2.402515	 1.108629	 -0.298924
C	 0.843231	 -0.001575	 -0.211665
H	 -0.319484	 0.928173	 1.350354
H	 -0.227804	 -0.823091	 1.466705
C	 2.197693	 0.138030	 0.476937
H	 0.722944	 0.805202	 -0.930230
H	 0.813976	 -0.926978	 -0.776588
C	 3.350256	 -0.394552	 -0.367526
H	 2.375857	 1.183470	 0.713235
H	 2.171036	 -0.389715	 1.425785
H	 3.424693	 0.138096	 -1.309747
H	 3.215669	 -1.446851	 -0.593187
H	 4.296452	 -0.285263	 0.149359
H	 -3.240910	 0.874416	 -0.936711
H	 -1.747554	 1.818823	 -0.790984
H	 -2.760419	 1.579708	 0.610998

	symmetry c1
}
set optking {
	frozen_dihedral = ("
		11 8 5 9
	")
}

ee = optimize('scf')
oeprop('DIPOLE', 'QUADRUPOLE', 'MULLIKEN_CHARGES')
f=open( 'psi4out.xyz', 'w' )
f.write( "19  " )
f.write( str(ee) + "\n" )
f.write( MOL.save_string_xyz() )
f.close()
--------------------------------------------------------------------------

    Molecular point group: c1
  Charge       = 0
  Multiplicity = 1
  Basis Set: CC-PVTZ
  Basis Set:
  @DF-RHF Final Energy:  -309.17563226783483
    Total Energy =                       -309.1756322678341462
    Molecular point group: c1
  Basis Set: CC-PVTZ
  Basis Set:
  Basis Set: CC-PVTZ
  Basis Set:
  @DF-RHF Final Energy:  -309.17570887887916
    Total Energy =                       -309.1757088788791634
  Basis Set: CC-PVTZ
  Basis Set:
  Basis Set: CC-PVTZ
  Basis Set:
  @DF-RHF Final Energy:  -309.17575320157624
    Total Energy =                       -309.1757532015757306
  Basis Set: CC-PVTZ
  Basis Set:
  Basis Set: CC-PVTZ
  Basis Set:
  @DF-RHF Final Energy:  -309.17580967458218
    Total Energy =                       -309.1758096745819557
  Basis Set: CC-PVTZ
  Basis Set:
  Basis Set: CC-PVTZ
  Basis Set:
  @DF-RHF Final Energy:  -309.17568973923949
    Total Energy =                       -309.1756897392395445
  Basis Set: CC-PVTZ
  Basis Set:
  Basis Set: CC-PVTZ
  Basis Set:
  @DF-RHF Final Energy:  -309.17582967747632
    Total Energy =                       -309.1758296774763721
  Basis Set: CC-PVTZ
  Basis Set:
  Charge       = 0
  Multiplicity = 1
  Basis Set: CC-PVTZ
  Basis Set:

    Orbital Energies (a.u.)
    -----------------------

    Doubly Occupied:

       1A    -20.536897     2A    -11.319310     3A    -11.228938
       4A    -11.227811     5A    -11.227033     6A    -11.223133
       7A    -11.212952     8A     -1.396970     9A     -1.092375
      10A     -1.030186    11A     -0.984580    12A     -0.890734
      13A     -0.807403    14A     -0.734782    15A     -0.663530
      16A     -0.649841    17A     -0.623083    18A     -0.615073
      19A     -0.582978    20A     -0.578494    21A     -0.550101
      22A     -0.537551    23A     -0.518242    24A     -0.498892
      25A     -0.482531    26A     -0.477390    27A     -0.468708
      28A     -0.399034

  @DF-RHF Final Energy:  -309.17582998891430

   => Energetics <=

    Nuclear Repulsion Energy =            301.8468105101503625
    One-Electron Energy =               -1016.9281849182875703
    Two-Electron Energy =                 405.9055444192231903
    DFT Exchange-Correlation Energy =       0.0000000000000000
    Empirical Dispersion Energy =           0.0000000000000000
    PCM Polarization Energy =               0.0000000000000000
    EFP Energy =                            0.0000000000000000
    Total Energy =                       -309.1758299889140176
    Molecular point group: c1
  Basis Set: CC-PVTZ
  Basis Set:

  -Total Gradient:
     Atom            X                  Y                   Z
    ------   -----------------  -----------------  -----------------
       1        0.000014746230     0.000005993476    -0.000017305725
       2       -0.000036093854    -0.000003470849     0.000048739627
       3        0.000031451661     0.000001887475    -0.000023805332
       4       -0.000001976899     0.000000545165     0.000001784961
       5        0.001925100051    -0.003592299639    -0.002863911019
       6       -0.000004950438     0.000000549515     0.000004458620
       7       -0.000007265155    -0.000003203333    -0.000005107351
       8       -0.000025192325     0.003959208994    -0.000969290181
       9       -0.001657224289     0.002134875133     0.002684547493
      10        0.000012574020     0.000003556228     0.000009277899
      11       -0.000255575240    -0.002502636740     0.001141934724
      12        0.000000465366    -0.000003568401    -0.000005113183
      13       -0.000009514746    -0.000003750241     0.000005631578
      14        0.000001936622    -0.000009249076    -0.000008210649
      15        0.000006376118    -0.000001422283     0.000015248896
      16       -0.000004654595     0.000012038894    -0.000003861989
      17        0.000002066163    -0.000000131011    -0.000002936161
      18        0.000001826056     0.000002123086    -0.000006071344
      19        0.000005905246    -0.000001046397    -0.000006010865

  **** Optimization is complete! (in 7 steps) ****
    Final optimized geometry and variables:
    Molecular point group: c1

    Geometry (in Angstrom), charge = 0, multiplicity = 1:

    O           -2.095344207591    -1.136877552702    -0.242387322333
    C           -1.654079554730    -0.070308876342     0.038812719081
    C           -0.325885225287     0.061084237471     0.756921264855
    C           -2.380089232171     1.205337769739    -0.316921029757
    C            0.844251793174     0.033751907236    -0.236515239340
    H           -0.298503285811     0.981748889070     1.330898147805
    H           -0.240041009956    -0.771283113726     1.443338068754
    C            2.198374633963     0.212088108383     0.453210100364
    H            0.703404941926     0.833497526808    -0.958484213520
    H            0.817094931221    -0.903986162703    -0.778537243205
    C            3.367086234948    -0.293511779670    -0.386196801459
    H            2.343499633511     1.258123998058     0.704582578667
    H            2.191259024411    -0.328661747708     1.395238897697
    H            3.413058068662     0.210804426992    -1.346101285525
    H            3.272750602148    -1.356631335642    -0.576762740518
    H            4.311811827181    -0.128210635226     0.118551605904
    H           -3.220823511690     0.988200313899    -0.957674756889
    H           -1.711484869909     1.905629719217    -0.804712137426
    H           -2.732327627765     1.679545286087     0.593612529203

  Mulliken Charges: (a.u.)
   Center  Symbol    Alpha    Beta     Spin     Total
       1     O     4.17743  4.17743  0.00000 -0.35485
       2     C     2.85838  2.85838  0.00000  0.28324
       3     C     3.09905  3.09905  0.00000 -0.19811
       4     C     3.15498  3.15498  0.00000 -0.30996
       5     C     3.09741  3.09741  0.00000 -0.19483
       6     H     0.44927  0.44927  0.00000  0.10146
       7     H     0.43919  0.43919  0.00000  0.12162
       8     C     3.08670  3.08670  0.00000 -0.17340
       9     H     0.45162  0.45162  0.00000  0.09677
      10     H     0.44147  0.44147  0.00000  0.11705
      11     C     3.14807  3.14807  0.00000 -0.29615
      12     H     0.45199  0.45199  0.00000  0.09602
      13     H     0.45389  0.45389  0.00000  0.09221
      14     H     0.45457  0.45457  0.00000  0.09085
      15     H     0.45253  0.45253  0.00000  0.09494
      16     H     0.44807  0.44807  0.00000  0.10386
      17     H     0.43602  0.43602  0.00000  0.12796
      18     H     0.45105  0.45105  0.00000  0.09789
      19     H     0.44829  0.44829  0.00000  0.10342

   Total alpha = 28.00000, Total beta = 28.00000, Total charge = -0.00000
