  ==> Input File <==

--------------------------------------------------------------------------
set {
	reference rhf
	basis 6-31G*
}

set_num_threads( 4 )
memory 2 gb

molecule MOL {
0 1

H	 -3.135461	 -1.215070	 0.001379
O	 -2.310168	 -0.871793	 -0.309793
C	 -2.026376	 0.340750	 0.341611
C	 -0.673256	 0.843270	 -0.132153
H	 -2.792215	 1.080697	 0.115987
H	 -2.013526	 0.200402	 1.421792
C	 0.486613	 -0.083066	 0.235839
H	 -0.715586	 0.970948	 -1.210718
H	 -0.508072	 1.829858	 0.297090
C	 1.840406	 0.433480	 -0.254303
H	 0.300215	 -1.068318	 -0.178947
H	 0.519509	 -0.203625	 1.318070
C	 1.808270	 1.910828	 -0.644281
H	 2.585613	 0.282848	 0.523961
H	 2.167426	 -0.157378	 -1.107760
H	 1.518114	 2.531463	 0.198638
H	 2.781697	 2.249867	 -0.985511
H	 1.096354	 2.089512	 -1.445379

	symmetry c1
}
set optking {
	frozen_dihedral = ("
		14 10 7 11
	")
}

ee = optimize('scf')
oeprop('DIPOLE', 'QUADRUPOLE', 'MULLIKEN_CHARGES')
f=open( 'psi4out.xyz', 'w' )
f.write( "18  " )
f.write( str(ee) + "\n" )
f.write( MOL.save_string_xyz() )
f.close()
--------------------------------------------------------------------------

    Molecular point group: c1
  Charge       = 0
  Multiplicity = 1
  Basis Set: 6-31G*
  Basis Set:
  @DF-RHF Final Energy:  -271.16771158955385
    Total Energy =                       -271.1677115895540169
    Molecular point group: c1
  Basis Set: 6-31G*
  Basis Set:
  Basis Set: 6-31G*
  Basis Set:
  @DF-RHF Final Energy:  -271.16796850801757
    Total Energy =                       -271.1679685080176796
  Basis Set: 6-31G*
  Basis Set:
  Basis Set: 6-31G*
  Basis Set:
  @DF-RHF Final Energy:  -271.17105196569656
    Total Energy =                       -271.1710519656969041
  Basis Set: 6-31G*
  Basis Set:
  Basis Set: 6-31G*
  Basis Set:
  @DF-RHF Final Energy:  -271.17142581258554
    Total Energy =                       -271.1714258125855395
  Basis Set: 6-31G*
  Basis Set:
  Basis Set: 6-31G*
  Basis Set:
  @DF-RHF Final Energy:  -271.17146080984435
    Total Energy =                       -271.1714608098443478
  Basis Set: 6-31G*
  Basis Set:
  Basis Set: 6-31G*
  Basis Set:
  @DF-RHF Final Energy:  -271.17147045330250
    Total Energy =                       -271.1714704533026179
  Basis Set: 6-31G*
  Basis Set:
  Charge       = 0
  Multiplicity = 1
  Basis Set: 6-31G*
  Basis Set:

    Orbital Energies (a.u.)
    -----------------------

    Doubly Occupied:

       1A    -20.553054     2A    -11.267760     3A    -11.211281
       4A    -11.211146     5A    -11.206554     6A    -11.204830
       7A     -1.359733     8A     -1.071387     9A     -1.004568
      10A     -0.914430    11A     -0.833022    12A     -0.764620
      13A     -0.705496    14A     -0.636470    15A     -0.624603
      16A     -0.599340    17A     -0.562234    18A     -0.548793
      19A     -0.526338    20A     -0.508093    21A     -0.490966
      22A     -0.461232    23A     -0.450090    24A     -0.446487
      25A     -0.426921

  @DF-RHF Final Energy:  -271.17147058035346

   => Energetics <=

    Nuclear Repulsion Energy =            252.0447922548996473
    One-Electron Energy =                -867.2536287148964220
    Two-Electron Energy =                 344.0373658796431755
    DFT Exchange-Correlation Energy =       0.0000000000000000
    Empirical Dispersion Energy =           0.0000000000000000
    PCM Polarization Energy =               0.0000000000000000
    EFP Energy =                            0.0000000000000000
    Total Energy =                       -271.1714705803535708
    Molecular point group: c1
  Basis Set: 6-31G*
  Basis Set:

  -Total Gradient:
     Atom            X                  Y                   Z
    ------   -----------------  -----------------  -----------------
       1        0.000001245432     0.000006023076     0.000000382144
       2        0.000020070182    -0.000015769238     0.000009860728
       3       -0.000024223824     0.000006492493    -0.000045458264
       4        0.000005514866    -0.000014772529     0.000026798204
       5        0.000002931213     0.000020661259     0.000009150556
       6        0.000021459932     0.000001066875    -0.000009737088
       7        0.002687590892    -0.001710314742     0.005565134129
       8       -0.000000699408     0.000010140671    -0.000004004652
       9       -0.000012668935    -0.000002438417     0.000011650859
      10        0.000590448614    -0.005372060272    -0.003352786428
      11       -0.002368494462     0.002262035142    -0.004185266616
      12        0.000016166803    -0.000006681574     0.000002467653
      13       -0.000001309446    -0.000005963718     0.000006785107
      14       -0.000922989212     0.004827662711     0.001963671939
      15       -0.000007055582    -0.000016426785     0.000001963371
      16       -0.000010182013     0.000011259292    -0.000002687717
      17       -0.000002177954     0.000002674147     0.000006318019
      18        0.000004372905    -0.000003588383    -0.000004241943

  **** Optimization is complete! (in 7 steps) ****
    Final optimized geometry and variables:
    Molecular point group: c1

    Geometry (in Angstrom), charge = 0, multiplicity = 1:

    H           -2.902449345510    -1.725404252457     0.159707417509
    O           -2.100544991130    -1.341074474072    -0.164315697350
    C           -1.863704845660    -0.119194617780     0.488785435676
    C           -0.543259828563     0.452068244630    -0.001501971430
    H           -2.666986133081     0.584392806748     0.277396063746
    H           -1.829064363202    -0.263199778972     1.568087384439
    C            0.655117323383    -0.431057393465     0.367961987922
    H           -0.608195512634     0.567412232535    -1.079726016258
    H           -0.434893105695     1.447949019536     0.419247603109
    C            2.035706354742     0.045779643272    -0.151781658510
    H            0.446563018386    -1.410865318331    -0.044438027222
    H            0.686116382247    -0.534262846482     1.449662323047
    C            2.149347110870     1.528172413521    -0.526516000244
    H            2.772888068314    -0.129753837439     0.626709314840
    H            2.329709800875    -0.551406791471    -1.009207879571
    H            1.913595988446     2.173552661987     0.314706424691
    H            3.165463179108     1.755373035064    -0.834906375678
    H            1.492656999212     1.798317958589    -1.346315936870

  Mulliken Charges: (a.u.)
   Center  Symbol    Alpha    Beta     Spin     Total
       1     H     0.28051  0.28051  0.00000  0.43898
       2     O     4.37005  4.37005  0.00000 -0.74011
       3     C     2.99696  2.99696  0.00000  0.00609
       4     C     3.16342  3.16342  0.00000 -0.32684
       5     H     0.42904  0.42904  0.00000  0.14192
       6     H     0.43283  0.43283  0.00000  0.13434
       7     C     3.15923  3.15923  0.00000 -0.31846
       8     H     0.41472  0.41472  0.00000  0.17056
       9     H     0.42220  0.42220  0.00000  0.15561
      10     C     3.15420  3.15420  0.00000 -0.30840
      11     H     0.40400  0.40400  0.00000  0.19200
      12     H     0.42556  0.42556  0.00000  0.14888
      13     C     3.24285  3.24285  0.00000 -0.48571
      14     H     0.42158  0.42158  0.00000  0.15684
      15     H     0.41962  0.41962  0.00000  0.16076
      16     H     0.42318  0.42318  0.00000  0.15364
      17     H     0.41986  0.41986  0.00000  0.16028
      18     H     0.42019  0.42019  0.00000  0.15962

   Total alpha = 25.00000, Total beta = 25.00000, Total charge =  0.00000
