  ==> Input File <==

--------------------------------------------------------------------------
set {
	reference rhf
	basis 6-31G*
}

set_num_threads( 4 )
memory 2 gb

molecule MOL {
0 1

H	 -0.614725	 -1.487730	 -0.561001
N	 -0.626943	 -0.667432	 -0.000092
C	 -1.814020	 -0.387047	 0.775118
C	 0.469286	 0.129090	 0.000148
H	 -2.680070	 -0.272768	 0.131765
H	 -1.654862	 0.532525	 1.314361
H	 -2.011138	 -1.182527	 1.486024
C	 1.788933	 -0.616240	 -0.000037
O	 0.411098	 1.327768	 -0.000049
H	 1.872803	 -1.245775	 -0.880381
H	 2.595421	 0.101576	 0.003713
H	 1.870096	 -1.252171	 0.875943

	symmetry c1
}
set optking {
	frozen_dihedral = ("
		3 2 4 9
	")
}

ee = optimize('scf')
oeprop('DIPOLE', 'QUADRUPOLE', 'MULLIKEN_CHARGES')
f=open( 'psi4out.xyz', 'w' )
f.write( "12  " )
f.write( str(ee) + "\n" )
f.write( MOL.save_string_xyz() )
f.close()
--------------------------------------------------------------------------

    Molecular point group: c1
  Charge       = 0
  Multiplicity = 1
  Basis Set: 6-31G*
  Basis Set:
  @DF-RHF Final Energy:  -246.98931213396850
    Total Energy =                       -246.9893121339683830
    Molecular point group: c1
  Basis Set: 6-31G*
  Basis Set:
  Basis Set: 6-31G*
  Basis Set:
  @DF-RHF Final Energy:  -246.99325700026839
    Total Energy =                       -246.9932570002684429
  Basis Set: 6-31G*
  Basis Set:
  Basis Set: 6-31G*
  Basis Set:
  @DF-RHF Final Energy:  -246.99700620340931
    Total Energy =                       -246.9970062034095690
  Basis Set: 6-31G*
  Basis Set:
  Basis Set: 6-31G*
  Basis Set:
  @DF-RHF Final Energy:  -246.99905645690910
    Total Energy =                       -246.9990564569092157
  Basis Set: 6-31G*
  Basis Set:
  @DF-RHF Final Energy:  -246.99936661514158
    Total Energy =                       -246.9993666151417528
  @DF-RHF Final Energy:  -246.99950193734583
    Total Energy =                       -246.9995019373457694
  @DF-RHF Final Energy:  -246.99961083337055
    Total Energy =                       -246.9996108333708662
  Basis Set: 6-31G*
  Basis Set:
  @DF-RHF Final Energy:  -246.99970187812821
    Total Energy =                       -246.9997018781282350
  Basis Set: 6-31G*
  Basis Set:
  Basis Set: 6-31G*
  Basis Set:
  @DF-RHF Final Energy:  -246.99986570991067
    Total Energy =                       -246.9998657099108641
  Basis Set: 6-31G*
  Basis Set:
  Basis Set: 6-31G*
  Basis Set:
  @DF-RHF Final Energy:  -246.99988553500700
    Total Energy =                       -246.9998855350069675
  Basis Set: 6-31G*
  Basis Set:
  Charge       = 0
  Multiplicity = 1
  Basis Set: 6-31G*
  Basis Set:

    Orbital Energies (a.u.)
    -----------------------

    Doubly Occupied:

       1A    -20.526765     2A    -15.578784     3A    -11.345769
       4A    -11.256442     5A    -11.232971     6A     -1.392207
       7A     -1.228010     8A     -1.016239     9A     -0.930773
      10A     -0.777365    11A     -0.690525    12A     -0.649433
      13A     -0.632387    14A     -0.589836    15A     -0.584182
      16A     -0.555394    17A     -0.546421    18A     -0.507120
      19A     -0.420781    20A     -0.391068

  @DF-RHF Final Energy:  -246.99988568316374

   => Energetics <=

    Nuclear Repulsion Energy =            181.1116230217204190
    One-Electron Energy =                -694.5180724880428897
    Two-Electron Energy =                 266.4065637831587310
    DFT Exchange-Correlation Energy =       0.0000000000000000
    Empirical Dispersion Energy =           0.0000000000000000
    PCM Polarization Energy =               0.0000000000000000
    EFP Energy =                            0.0000000000000000
    Total Energy =                       -246.9998856831637113
    Molecular point group: c1
  Basis Set: 6-31G*
  Basis Set:

  -Total Gradient:
     Atom            X                  Y                   Z
    ------   -----------------  -----------------  -----------------
       1        0.000031919202     0.000044543074    -0.000188488801
       2       -0.002961462369     0.010651546486    -0.011298429201
       3        0.002188048488    -0.006149932985     0.004708640445
       4       -0.000115912002    -0.007535598923     0.016094320724
       5       -0.000024580919    -0.000000156196     0.000019003676
       6       -0.000008697973    -0.000004723638     0.000011847316
       7        0.000002471609     0.000004043794    -0.000003350578
       8        0.000015109016    -0.000096801808     0.000273316281
       9        0.000886240459     0.003080491248    -0.009561478298
      10       -0.000021284713     0.000020083190    -0.000020653508
      11       -0.000002894383     0.000001124239    -0.000005094464
      12        0.000011043584    -0.000014618479    -0.000029633592

  **** Optimization is complete! (in 11 steps) ****
    Final optimized geometry and variables:
    Molecular point group: c1

    Geometry (in Angstrom), charge = 0, multiplicity = 1:

    H           -0.562771004062    -1.462259009571    -0.627374139347
    N           -0.705454903173    -0.504158276540    -0.388850821993
    C           -1.891050373544    -0.298089874601     0.427862675146
    C            0.454840132972     0.159681640159    -0.065764140431
    H           -2.749800645643    -0.715700914900    -0.081698897997
    H           -2.047955361514     0.761191534085     0.559167682115
    H           -1.802289309946    -0.762795858099     1.406497644744
    C            1.730214494501    -0.615516439538    -0.321447340869
    O            0.462255191084     1.297280098514     0.302395108585
    H            1.709933177883    -1.086338864934    -1.299138708080
    H            2.573025961111     0.056829050983    -0.261329369164
    H            1.844711088740    -1.397898895544     0.423448693763

  Mulliken Charges: (a.u.)
   Center  Symbol    Alpha    Beta     Spin     Total
       1     H     0.31872  0.31872  0.00000  0.36255
       2     N     3.87250  3.87250  0.00000 -0.74500
       3     C     3.15233  3.15233  0.00000 -0.30466
       4     C     2.63977  2.63977  0.00000  0.72046
       5     H     0.41220  0.41220  0.00000  0.17560
       6     H     0.39117  0.39117  0.00000  0.21766
       7     H     0.42016  0.42016  0.00000  0.15968
       8     C     3.29814  3.29814  0.00000 -0.59627
       9     O     4.28881  4.28881  0.00000 -0.57761
      10     H     0.40700  0.40700  0.00000  0.18600
      11     H     0.39191  0.39191  0.00000  0.21618
      12     H     0.40729  0.40729  0.00000  0.18542

   Total alpha = 20.00000, Total beta = 20.00000, Total charge = -0.00000
