                              Psi4 1.0.54 Driver

  ==> Input File <==

--------------------------------------------------------------------------
set {
	reference rhf
	basis cc-pvtz
}

set_num_threads( 4 )
memory 2 gb

molecule MOL {
0 1

H	 3.883246	 0.350212	 0.202241
N	 3.077929	 -0.238488	 0.224910
C	 1.860978	 0.530248	 0.016256
H	 3.066863	 -0.688152	 1.116553
C	 0.644130	 -0.381765	 -0.031064
H	 1.955647	 1.049755	 -0.931403
H	 1.706540	 1.295286	 0.778372
C	 -0.678115	 0.376691	 0.025731
H	 0.693998	 -0.977147	 -0.936845
H	 0.693309	 -1.082142	 0.800523
C	 -1.900706	 -0.535531	 -0.022488
H	 -0.725296	 1.079516	 -0.802982
H	 -0.715474	 0.974884	 0.933278
C	 -3.220513	 0.226854	 0.028039
H	 -1.865036	 -1.134397	 -0.928236
H	 -1.857948	 -1.236381	 0.806820
H	 -3.309098	 0.911849	 -0.808725
H	 -4.066838	 -0.449485	 -0.008086
H	 -3.301685	 0.809374	 0.939860

	symmetry c1
}
set optking {
	frozen_dihedral = ("
		6 3 5 9
	")
}

ee,wfn = optimize('scf', return_wfn=True)
oeprop( wfn, 'DIPOLE', 'QUADRUPOLE', 'MULLIKEN_CHARGES')
f=open( 'psi4out.xyz', 'w' )
f.write( "19  " )
f.write( str(ee) + "\n" )
f.write( MOL.save_string_xyz() )
f.close()
--------------------------------------------------------------------------

    Molecular point group: c1
  Charge       = 0
  Multiplicity = 1
  Basis Set: CC-PVTZ
  Basis Set:
  @DF-RHF Final Energy:  -251.44751316360353
    Total Energy =                       -251.4475131636033325
    Molecular point group: c1
  Basis Set: CC-PVTZ
  Basis Set:
  Basis Set: CC-PVTZ
  Basis Set:
  @DF-RHF Final Energy:  -251.44758824685803
    Total Energy =                       -251.4475882468578902
  Basis Set: CC-PVTZ
  Basis Set:
  Basis Set: CC-PVTZ
  Basis Set:
  @DF-RHF Final Energy:  -251.44761424449752
    Total Energy =                       -251.4476142444974016
  Basis Set: CC-PVTZ
  Basis Set:
  Charge       = 0
  Multiplicity = 1
  Basis Set: CC-PVTZ
  Basis Set:

    Orbital Energies (a.u.)
    -----------------------

    Doubly Occupied:

       1A    -15.526128     2A    -11.238038     3A    -11.211831
       4A    -11.210309     5A    -11.207783     6A    -11.205481
       7A     -1.177780     8A     -1.074183     9A     -0.999400
      10A     -0.900807    11A     -0.813462    12A     -0.789263
      13A     -0.668182    14A     -0.640677    15A     -0.618954
      16A     -0.587629    17A     -0.567586    18A     -0.549424
      19A     -0.528798    20A     -0.500763    21A     -0.481322
      22A     -0.464986    23A     -0.461593    24A     -0.449966
      25A     -0.383678

  @DF-RHF Final Energy:  -251.44761454947275

   => Energetics <=

    Nuclear Repulsion Energy =            246.0665295473812648
    One-Electron Energy =                -826.5122341214998869
    Two-Electron Energy =                 328.9980900246461033
    DFT Exchange-Correlation Energy =       0.0000000000000000
    Empirical Dispersion Energy =           0.0000000000000000
    PCM Polarization Energy =               0.0000000000000000
    EFP Energy =                            0.0000000000000000
    Total Energy =                       -251.4476145494725188
    Molecular point group: c1
  Basis Set: CC-PVTZ
  Basis Set:

  -Total Gradient:
     Atom            X                  Y                   Z
    ------   -----------------  -----------------  -----------------
       1        0.000002989445    -0.000024001604     0.000015545051
       2        0.000024182832     0.000039386333    -0.000013506287
       3       -0.002033631825     0.002666729265     0.000803498985
       4       -0.000002449614     0.000015309697    -0.000017994867
       5        0.001896568772    -0.002558585886     0.001284658990
       6        0.001425556200    -0.001873051522    -0.000867027582
       7       -0.000002272494    -0.000016091876    -0.000010288416
       8        0.000011837418    -0.000026088619     0.000046459348
       9       -0.001279111921     0.001738913342    -0.001230402622
      10       -0.000011473690     0.000030604172    -0.000011538885
      11       -0.000018377862     0.000003977142     0.000003583835
      12       -0.000001604847    -0.000004710296     0.000010772228
      13       -0.000008746386     0.000008914204     0.000005862862
      14       -0.000004848293    -0.000006480780    -0.000016179268
      15        0.000002115371    -0.000008395070     0.000004551583
      16       -0.000001009291     0.000010946060     0.000000732017
      17       -0.000003427682     0.000003778130    -0.000000007690
      18       -0.000000416559     0.000006387113    -0.000005348946
      19        0.000004120423    -0.000007539804    -0.000003370338

  **** Optimization is complete! (in 4 steps) ****
    Final optimized geometry and variables:
    Molecular point group: c1

    Geometry (in Angstrom), charge = 0, multiplicity = 1:

    H            3.891135760431     0.345882307304     0.082887705926
    N            3.085337189039    -0.239136031448     0.146568235905
    C            1.862221596365     0.530114830254    -0.027989084832
    H            3.107642800503    -0.675444808333     1.044465203986
    C            0.647088342971    -0.387873193728    -0.048110682082
    H            1.939960800531     1.038298562227    -0.982972017043
    H            1.729374327878     1.295578812201     0.736856852156
    C           -0.675721915443     0.372613948429    -0.007864847516
    H            0.684809229893    -0.993984293466    -0.947178277553
    H            0.697886617241    -1.069962475317     0.797093445716
    C           -1.898787399124    -0.536944008940    -0.083648182028
    H           -0.708368156326     1.082295837327    -0.831833683371
    H           -0.726960939387     0.964120185062     0.903252600573
    C           -3.218134066375     0.226706473593    -0.041426169777
    H           -1.852152783871    -1.124968414034    -0.995959438492
    H           -1.867944023420    -1.247879662324     0.737629184533
    H           -3.294133338317     0.922615940481    -0.870402742411
    H           -4.064867437717    -0.447755636158    -0.097974776219
    H           -3.311049657216     0.797491365475     0.876656693495

  Mulliken Charges: (a.u.)
   Center  Symbol    Alpha    Beta     Spin     Total
       1     H     0.42995  0.42995  0.00000  0.14009
       2     N     3.69035  3.69035  0.00000 -0.38071
       3     C     3.02803  3.02803  0.00000 -0.05607
       4     H     0.43085  0.43085  0.00000  0.13831
       5     C     3.07941  3.07941  0.00000 -0.15883
       6     H     0.45611  0.45611  0.00000  0.08778
       7     H     0.46819  0.46819  0.00000  0.06363
       8     C     3.09383  3.09383  0.00000 -0.18766
       9     H     0.45038  0.45038  0.00000  0.09924
      10     H     0.45922  0.45922  0.00000  0.08156
      11     C     3.08367  3.08367  0.00000 -0.16733
      12     H     0.45554  0.45554  0.00000  0.08891
      13     H     0.45662  0.45662  0.00000  0.08675
      14     C     3.14968  3.14968  0.00000 -0.29936
      15     H     0.45384  0.45384  0.00000  0.09231
      16     H     0.45485  0.45485  0.00000  0.09031
      17     H     0.45529  0.45529  0.00000  0.08941
      18     H     0.44854  0.44854  0.00000  0.10292
      19     H     0.45564  0.45564  0.00000  0.08872

   Total alpha = 25.00000, Total beta = 25.00000, Total charge = -0.00000

*** Psi4 exiting successfully. Buy a developer a beer!
