  ==> Input File <==

--------------------------------------------------------------------------
set {
	reference rhf
	basis 6-31G*
}

set_num_threads( 4 )
memory 2 gb

molecule MOL {
0 1

H	 3.066681	 -2.195675	 2.713287
O	 3.802093	 -2.182941	 2.118242
C	 3.500498	 -2.943896	 0.976295
C	 2.498116	 -2.265290	 0.049229
H	 4.440883	 -3.083201	 0.458661
H	 3.138978	 -3.931348	 1.260939
C	 1.113937	 -2.062863	 0.670469
H	 2.905508	 -1.304727	 -0.255267
H	 2.405446	 -2.870400	 -0.851115
C	 0.115918	 -1.429151	 -0.302766
H	 1.206967	 -1.436861	 1.553550
H	 0.723932	 -3.023687	 1.006705
C	 -1.309753	 -1.282496	 0.241564
H	 0.486096	 -0.452649	 -0.609782
H	 0.079185	 -2.036217	 -1.204887
C	 -2.037799	 -0.007733	 -0.193645
H	 -1.890610	 -2.142323	 -0.085726
H	 -1.285946	 -1.330893	 1.329189
C	 -3.489788	 0.042957	 0.286558
H	 -2.017067	 0.064384	 -1.280144
H	 -1.513726	 0.868678	 0.179924
C	 -4.216917	 1.317354	 -0.141063
H	 -4.025645	 -0.823308	 -0.095450
H	 -3.513059	 -0.038752	 1.371301
H	 -4.239342	 1.411634	 -1.223113
H	 -5.243387	 1.322503	 0.212445
H	 -3.726170	 2.201406	 0.256408

	symmetry c1
}
set optking {
	frozen_dihedral = ("
		14 10 13 16
	")
}

ee = optimize('scf')
oeprop('DIPOLE', 'QUADRUPOLE', 'MULLIKEN_CHARGES')
f=open( 'psi4out.xyz', 'w' )
f.write( "27  " )
f.write( str(ee) + "\n" )
f.write( MOL.save_string_xyz() )
f.close()
--------------------------------------------------------------------------

    Molecular point group: c1
  Charge       = 0
  Multiplicity = 1
  Basis Set: 6-31G*
  Basis Set:
  @DF-RHF Final Energy:  -388.27929983206315
    Total Energy =                       -388.2792998320630886
    Molecular point group: c1
  Basis Set: 6-31G*
  Basis Set:
  Basis Set: 6-31G*
  Basis Set:
  @DF-RHF Final Energy:  -388.27976113648060
    Total Energy =                       -388.2797611364810564
  Basis Set: 6-31G*
  Basis Set:
  Basis Set: 6-31G*
  Basis Set:
  @DF-RHF Final Energy:  -388.27979277910515
    Total Energy =                       -388.2797927791051507
  Basis Set: 6-31G*
  Basis Set:
  Basis Set: 6-31G*
  Basis Set:
  @DF-RHF Final Energy:  -388.27982247836673
    Total Energy =                       -388.2798224783675778
  Basis Set: 6-31G*
  Basis Set:
  Basis Set: 6-31G*
  Basis Set:
  @DF-RHF Final Energy:  -388.27982950404868
    Total Energy =                       -388.2798295040488483
  Basis Set: 6-31G*
  Basis Set:
  Charge       = 0
  Multiplicity = 1
  Basis Set: 6-31G*
  Basis Set:

    Orbital Energies (a.u.)
    -----------------------

    Doubly Occupied:

       1A    -20.552245     2A    -11.267134     3A    -11.220846
       4A    -11.216684     5A    -11.215549     6A    -11.215253
       7A    -11.215225     8A    -11.214197     9A    -11.208930
      10A     -1.359045    11A     -1.093983    12A     -1.062594
      13A     -1.011089    14A     -0.950533    15A     -0.882564
      16A     -0.820497    17A     -0.792667    18A     -0.790221
      19A     -0.694176    20A     -0.654034    21A     -0.637346
      22A     -0.613041    23A     -0.598790    24A     -0.587548
      25A     -0.575263    26A     -0.552919    27A     -0.541407
      28A     -0.520512    29A     -0.511680    30A     -0.487629
      31A     -0.485450    32A     -0.476128    33A     -0.468559
      34A     -0.462268    35A     -0.456932    36A     -0.442490
      37A     -0.420194

  @DF-RHF Final Energy:  -388.27982915588160

   => Energetics <=

    Nuclear Repulsion Energy =            451.9947119203363286
    One-Electron Energy =               -1421.9978338467526555
    Two-Electron Energy =                 581.7232927705344991
    DFT Exchange-Correlation Energy =       0.0000000000000000
    Empirical Dispersion Energy =           0.0000000000000000
    PCM Polarization Energy =               0.0000000000000000
    EFP Energy =                            0.0000000000000000
    Total Energy =                       -388.2798291558817709
    Molecular point group: c1
  Basis Set: 6-31G*
  Basis Set:

  -Total Gradient:
     Atom            X                  Y                   Z
    ------   -----------------  -----------------  -----------------
       1       -0.000017796540     0.000010000238     0.000009021789
       2       -0.000028831886    -0.000005002119     0.000012717493
       3        0.000028454769     0.000039173907    -0.000036161223
       4       -0.000002800595    -0.000039330816    -0.000020461111
       5        0.000000728264     0.000001347001    -0.000006722516
       6       -0.000002821804     0.000005282285    -0.000002543108
       7       -0.000002214204     0.000042279402    -0.000010048629
       8        0.000007014412    -0.000016039860    -0.000005549106
       9        0.000009402068    -0.000013958495    -0.000001519098
      10        0.002253909339     0.001338189014     0.005426993411
      11        0.000025465728    -0.000013257035    -0.000005151629
      12       -0.000025505503    -0.000008075194    -0.000004979148
      13       -0.001840716759    -0.002064483124    -0.004147956794
      14       -0.001401014029    -0.000580937735    -0.003611335814
      15        0.000021493064    -0.000023451424     0.000048421603
      16        0.001052726627     0.001381774188     0.002369981023
      17       -0.000061628018    -0.000000184914    -0.000001348060
      18       -0.000025071136     0.000025390006    -0.000021332595
      19       -0.000017535488    -0.000044774936    -0.000003872941
      20        0.000025433065    -0.000063093740     0.000014620928
      21       -0.000014926224     0.000026497504    -0.000016103371
      22        0.000030899911     0.000013454226     0.000025051127
      23       -0.000008923468     0.000001022943    -0.000009580423
      24       -0.000011140089    -0.000013617887    -0.000006656091
      25       -0.000005306762    -0.000008664675     0.000002464726
      26        0.000009238134    -0.000001353980     0.000011151832
      27        0.000001467123     0.000011815219    -0.000009102278

  **** Optimization is complete! (in 6 steps) ****
    Final optimized geometry and variables:
    Molecular point group: c1

    Geometry (in Angstrom), charge = 0, multiplicity = 1:

    H            2.960467428684    -0.991470268174     2.283901285221
    O            3.711954286709    -0.954986862632     1.710236893104
    C            3.457432490025    -1.703081216653     0.548627936975
    C            2.463302070098    -1.031791862803    -0.392589461665
    H            4.413729419488    -1.811787785872     0.053380499535
    H            3.111936805456    -2.703292915724     0.807472906988
    C            1.060955469387    -0.869547818023     0.197003600024
    H            2.856398808695    -0.057857384924    -0.672435285287
    H            2.405633897261    -1.624546754241    -1.303991071592
    C            0.069368507068    -0.231155617346    -0.775758955945
    H            1.110885630892    -0.256543509887     1.094661313486
    H            0.681539156371    -1.843506781399     0.506152255233
    C           -1.360870102847    -0.111171817613    -0.217755146739
    H            0.429354342667     0.748099403708    -1.083864583984
    H            0.045834870235    -0.819900877486    -1.690842653139
    C           -2.083747422685     1.162420225240    -0.660882995324
    H           -1.942525927137    -0.984629410646    -0.502163459042
    H           -1.325606148067    -0.118288449386     0.870472021242
    C           -3.517639889409     1.259347352851    -0.137979984702
    H           -2.094367562439     1.215212578183    -1.748842826580
    H           -1.516519675566     2.026932996241    -0.320692578050
    C           -4.224007751923     2.545525247587    -0.565304796853
    H           -4.087522174529     0.401378575266    -0.488421952175
    H           -3.509577125915     1.196337954663     0.948288467480
    H           -4.280173311205     2.620861331375    -1.647614300980
    H           -5.237517834726     2.585470622125    -0.178232162670
    H           -3.696181910607     3.422416757940    -0.201025736102

  Mulliken Charges: (a.u.)
   Center  Symbol    Alpha    Beta     Spin     Total
       1     H     0.27989  0.27989  0.00000  0.44022
       2     O     4.37095  4.37095  0.00000 -0.74190
       3     C     2.99734  2.99734  0.00000  0.00531
       4     C     3.16192  3.16192  0.00000 -0.32384
       5     H     0.41439  0.41439  0.00000  0.17123
       6     H     0.43201  0.43201  0.00000  0.13598
       7     C     3.16261  3.16261  0.00000 -0.32522
       8     H     0.41484  0.41484  0.00000  0.17031
       9     H     0.42406  0.42406  0.00000  0.15188
      10     C     3.15323  3.15323  0.00000 -0.30645
      11     H     0.42492  0.42492  0.00000  0.15016
      12     H     0.42429  0.42429  0.00000  0.15142
      13     C     3.15365  3.15365  0.00000 -0.30730
      14     H     0.41941  0.41941  0.00000  0.16119
      15     H     0.42180  0.42180  0.00000  0.15640
      16     C     3.15245  3.15245  0.00000 -0.30489
      17     H     0.42116  0.42116  0.00000  0.15769
      18     H     0.42380  0.42380  0.00000  0.15240
      19     C     3.15199  3.15199  0.00000 -0.30397
      20     H     0.42372  0.42372  0.00000  0.15255
      21     H     0.42316  0.42316  0.00000  0.15368
      22     C     3.23923  3.23923  0.00000 -0.47846
      23     H     0.42311  0.42311  0.00000  0.15377
      24     H     0.42334  0.42334  0.00000  0.15331
      25     H     0.42170  0.42170  0.00000  0.15659
      26     H     0.41936  0.41936  0.00000  0.16128
      27     H     0.42168  0.42168  0.00000  0.15665

   Total alpha = 37.00000, Total beta = 37.00000, Total charge = -0.00000
