  ==> Input File <==

--------------------------------------------------------------------------
set {
	reference rhf
	basis cc-pvtz
}

set_num_threads( 4 )
memory 2 gb

molecule MOL {
0 1

H	 2.517698	 2.286503	 1.729224
O	 1.584475	 2.216501	 1.816514
C	 1.069906	 1.365311	 0.907580
C	 1.861810	 0.702157	 -0.017512
C	 -0.294986	 1.162837	 0.917360
H	 2.924892	 0.861056	 -0.023719
C	 1.288106	 -0.160623	 -0.929340
H	 -0.909295	 1.673520	 1.630572
C	 -0.861704	 0.296439	 0.000000
H	 1.910720	 -0.668174	 -1.640372
C	 -0.076488	 -0.368693	 -0.926206
C	 -2.330689	 0.069587	 0.000000
H	 -0.525448	 -1.038999	 -1.634028
O	 -2.848621	 -0.993976	 0.000000
H	 -2.934306	 0.982410	 0.000000

	symmetry c1
}
set optking {
	frozen_dihedral = ("
		11 9 12 14
	")
}

ee = optimize('scf')
oeprop('DIPOLE', 'QUADRUPOLE', 'MULLIKEN_CHARGES')
f=open( 'psi4out.xyz', 'w' )
f.write( "15  " )
f.write( str(ee) + "\n" )
f.write( MOL.save_string_xyz() )
f.close()
--------------------------------------------------------------------------

    Molecular point group: c1
  Charge       = 0
  Multiplicity = 1
  Basis Set: CC-PVTZ
  Basis Set:
  @DF-RHF Final Energy:  -418.43211278119804
    Total Energy =                       -418.4321127811979295
    Molecular point group: c1
  Basis Set: CC-PVTZ
  Basis Set:
  Basis Set: CC-PVTZ
  Basis Set:
  @DF-RHF Final Energy:  -418.43124362403165
    Total Energy =                       -418.4312436240318220
  Basis Set: CC-PVTZ
  Basis Set:
  Basis Set: CC-PVTZ
  Basis Set:
  @DF-RHF Final Energy:  -418.43239887077846
    Total Energy =                       -418.4323988707784565
  Basis Set: CC-PVTZ
  Basis Set:
  Basis Set: CC-PVTZ
  Basis Set:
  @DF-RHF Final Energy:  -418.43278915133169
    Total Energy =                       -418.4327891513319173
  Basis Set: CC-PVTZ
  Basis Set:
  Basis Set: CC-PVTZ
  Basis Set:
  @DF-RHF Final Energy:  -418.43279278693831
    Total Energy =                       -418.4327927869381938
  Basis Set: CC-PVTZ
  Basis Set:
  Charge       = 0
  Multiplicity = 1
  Basis Set: CC-PVTZ
  Basis Set:

    Orbital Energies (a.u.)
    -----------------------

    Doubly Occupied:

       1A    -20.597863     2A    -20.559725     3A    -11.330520
       4A    -11.313200     5A    -11.254029     6A    -11.249103
       7A    -11.242754     8A    -11.240992     9A    -11.236567
      10A     -1.429473    11A     -1.414605    12A     -1.173298
      13A     -1.053031    14A     -1.027702    15A     -0.903265
      16A     -0.847805    17A     -0.819369    18A     -0.742542
      19A     -0.704080    20A     -0.677523    21A     -0.670396
      22A     -0.637828    23A     -0.616031    24A     -0.609406
      25A     -0.586466    26A     -0.544645    27A     -0.542808
      28A     -0.517753    29A     -0.495122    30A     -0.427249
      31A     -0.358946    32A     -0.329078

  @DF-RHF Final Energy:  -418.43279350655894

   => Energetics <=

    Nuclear Repulsion Energy =            402.9381548955016115
    One-Electron Energy =               -1368.4355488669245915
    Two-Electron Energy =                 547.0646004648638154
    DFT Exchange-Correlation Energy =       0.0000000000000000
    Empirical Dispersion Energy =           0.0000000000000000
    PCM Polarization Energy =               0.0000000000000000
    EFP Energy =                            0.0000000000000000
    Total Energy =                       -418.4327935065591646
    Molecular point group: c1
  Basis Set: CC-PVTZ
  Basis Set:

  -Total Gradient:
     Atom            X                  Y                   Z
    ------   -----------------  -----------------  -----------------
       1        0.000001555206     0.000002099192     0.000001986879
       2        0.000011284710     0.000003537076    -0.000019855729
       3       -0.000115392976    -0.000000431427     0.000074949765
       4        0.000011227439    -0.000062084502    -0.000113191964
       5        0.000045804872     0.000030966580     0.000021443200
       6       -0.000002657286     0.000008046954    -0.000002060580
       7        0.000112194824     0.000034827145     0.000097230212
       8        0.000007540416     0.000005957458    -0.000000221638
       9        0.000707163992    -0.006184594533     0.007531866502
      10       -0.000005897822     0.000000328856    -0.000011844644
      11       -0.000584229699     0.004146487021    -0.003216489730
      12       -0.000231540329     0.002202462537    -0.010787824671
      13       -0.000001608210     0.000003702966    -0.000001005811
      14        0.000002444294    -0.000190791275     0.006426965155
      15        0.000042110576    -0.000000514045    -0.000001946942

  **** Optimization is complete! (in 6 steps) ****
    Final optimized geometry and variables:
    Molecular point group: c1

    Geometry (in Angstrom), charge = 0, multiplicity = 1:

    H            2.582773902734     1.795078000571     1.512306943764
    O            1.648443660576     1.723451317745     1.588587697188
    C            1.150177089509     0.866348071166     0.676605485343
    C            1.946645880835     0.211528359234    -0.244512423683
    C           -0.218247772974     0.661926163571     0.672487245421
    H            3.008044896061     0.380400219319    -0.253343183649
    C            1.373623891292    -0.652955428383    -1.159265342438
    H           -0.826071004051     1.198015878074     1.376319779401
    C           -0.774179932810    -0.233084678522    -0.219700946405
    H            1.998483320499    -1.146237092075    -1.878701574330
    C            0.014623121325    -0.883606240380    -1.155049412070
    C           -2.255994088204    -0.414060991859    -0.230269696937
    H           -0.432433775931    -1.562695782246    -1.853082087103
    O           -2.796316936163    -1.464412321473    -0.264776848487
    H           -2.837773592741     0.509799678222    -0.151514531575

  Mulliken Charges: (a.u.)
   Center  Symbol    Alpha    Beta     Spin     Total
       1     H     0.38621  0.38621  0.00000  0.22759
       2     O     4.17183  4.17183  0.00000 -0.34365
       3     C     2.83890  2.83890  0.00000  0.32219
       4     C     3.13561  3.13561  0.00000 -0.27123
       5     C     3.13382  3.13382  0.00000 -0.26764
       6     H     0.43207  0.43207  0.00000  0.13587
       7     C     3.05565  3.05565  0.00000 -0.11131
       8     H     0.41925  0.41925  0.00000  0.16150
       9     C     2.93437  2.93437  0.00000  0.13125
      10     H     0.41926  0.41926  0.00000  0.16148
      11     C     3.11496  3.11496  0.00000 -0.22992
      12     C     2.92261  2.92261  0.00000  0.15478
      13     H     0.41505  0.41505  0.00000  0.16989
      14     O     4.16235  4.16235  0.00000 -0.32470
      15     H     0.45805  0.45805  0.00000  0.08390

   Total alpha = 32.00000, Total beta = 32.00000, Total charge = -0.00000
