  ==> Input File <==

--------------------------------------------------------------------------
set {
	reference rhf
	basis 6-31G*
}

set_num_threads( 4 )
memory 2 gb

molecule MOL {
0 1

O	 1.512326	 -0.180025	 0.662969
C	 0.576249	 0.131685	 -0.000108
C	 -0.766779	 -0.556801	 -0.000461
O	 0.593615	 1.152685	 -0.847410
C	 -1.945214	 0.412366	 0.000161
H	 -0.796911	 -1.211249	 -0.867467
H	 -0.796854	 -1.212390	 0.865687
C	 -3.287791	 -0.317055	 0.000105
H	 -1.876087	 1.060580	 -0.866812
H	 -1.875822	 1.059691	 0.867761
H	 -3.394745	 -0.949193	 -0.877058
H	 -4.111778	 0.388953	 0.000015
H	 -3.394954	 -0.949187	 0.877259
C	 1.800426	 1.887173	 -0.944063
H	 2.057519	 2.322908	 0.010704
H	 1.616535	 2.662308	 -1.671535
H	 2.608314	 1.249251	 -1.272518

	symmetry c1
}
set optking {
	frozen_dihedral = ("
		1 2 3 6
	")
}

ee = optimize('scf')
oeprop('DIPOLE', 'QUADRUPOLE', 'MULLIKEN_CHARGES')
f=open( 'psi4out.xyz', 'w' )
f.write( "17  " )
f.write( str(ee) + "\n" )
f.write( MOL.save_string_xyz() )
f.close()
--------------------------------------------------------------------------

    Molecular point group: c1
  Charge       = 0
  Multiplicity = 1
  Basis Set: 6-31G*
  Basis Set:
  @DF-RHF Final Energy:  -344.90470162148154
    Total Energy =                       -344.9047016214817631
    Molecular point group: c1
  Basis Set: 6-31G*
  Basis Set:
  Basis Set: 6-31G*
  Basis Set:
  @DF-RHF Final Energy:  -344.90340116327621
    Total Energy =                       -344.9034011632759871
  Basis Set: 6-31G*
  Basis Set:
  Basis Set: 6-31G*
  Basis Set:
  @DF-RHF Final Energy:  -344.90495350835880
    Total Energy =                       -344.9049535083588580
  Basis Set: 6-31G*
  Basis Set:
  Basis Set: 6-31G*
  Basis Set:
  @DF-RHF Final Energy:  -344.90516920365127
    Total Energy =                       -344.9051692036512122
  Basis Set: 6-31G*
  Basis Set:
  Basis Set: 6-31G*
  Basis Set:
  @DF-RHF Final Energy:  -344.90517198180936
    Total Energy =                       -344.9051719818094739
  Basis Set: 6-31G*
  Basis Set:
  Charge       = 0
  Multiplicity = 1
  Basis Set: 6-31G*
  Basis Set:

    Orbital Energies (a.u.)
    -----------------------

    Doubly Occupied:

       1A    -20.605291     2A    -20.543464     3A    -11.371967
       4A    -11.281505     5A    -11.235547     6A    -11.228859
       7A    -11.217732     8A     -1.469761     9A     -1.361752
      10A     -1.083776    11A     -0.998201    12A     -0.942407
      13A     -0.831557    14A     -0.774697    15A     -0.696799
      16A     -0.681425    17A     -0.672150    18A     -0.637601
      19A     -0.596075    20A     -0.575560    21A     -0.553618
      22A     -0.539763    23A     -0.524725    24A     -0.511819
      25A     -0.489879    26A     -0.481733    27A     -0.455230
      28A     -0.431322

  @DF-RHF Final Energy:  -344.90517278193039

   => Energetics <=

    Nuclear Repulsion Energy =            314.2178183519218351
    One-Electron Energy =               -1092.6575553065913482
    Two-Electron Energy =                 433.5345641727392376
    DFT Exchange-Correlation Energy =       0.0000000000000000
    Empirical Dispersion Energy =           0.0000000000000000
    PCM Polarization Energy =               0.0000000000000000
    EFP Energy =                            0.0000000000000000
    Total Energy =                       -344.9051727819303323
    Molecular point group: c1
  Basis Set: 6-31G*
  Basis Set:

  -Total Gradient:
     Atom            X                  Y                   Z
    ------   -----------------  -----------------  -----------------
       1        0.000234223368    -0.000459589932    -0.000635203238
       2       -0.000272619474     0.000492671803     0.001023061857
       3       -0.000246821138     0.000514044745    -0.000777005473
       4        0.000018618004     0.000042966799    -0.000035898136
       5        0.000007994013    -0.000014953197     0.000001030548
       6        0.000301728448    -0.000592818697     0.000408968416
       7       -0.000003130545     0.000005235182    -0.000008366400
       8       -0.000013149560     0.000013427580     0.000006070467
       9       -0.000001737462     0.000001516947     0.000004534821
      10       -0.000008431688    -0.000004007126    -0.000000119048
      11        0.000011964530     0.000001667701     0.000004059092
      12       -0.000008328871    -0.000003949758    -0.000004303901
      13       -0.000005904762     0.000002445964     0.000003953893
      14       -0.000029378209    -0.000000008292     0.000023082042
      15        0.000009183553     0.000005113722    -0.000005538180
      16        0.000002512061    -0.000000032924    -0.000004836748
      17        0.000003277728    -0.000003730513    -0.000003490011

  **** Optimization is complete! (in 6 steps) ****
    Final optimized geometry and variables:
    Molecular point group: c1

    Geometry (in Angstrom), charge = 0, multiplicity = 1:

    O            1.689399756461    -0.569464767942     0.824018576606
    C            0.762496682765    -0.222860373119     0.164722188440
    C           -0.581980127084    -0.910393589616     0.152361059489
    O            0.817160260674     0.800508825810    -0.677472445920
    C           -1.789992355566     0.031166001781     0.158357904196
    H           -0.606315314443    -1.539532479974    -0.734892222036
    H           -0.598860587593    -1.571763849704     1.009544406839
    C           -3.109522978033    -0.738132074572     0.197012452998
    H           -1.758472667141     0.665844263382    -0.719151763411
    H           -1.729410560585     0.689480171141     1.021125373395
    H           -3.210913064840    -1.387210529707    -0.668180753879
    H           -3.954712996370    -0.057606733576     0.200380081682
    H           -3.179713520389    -1.358040707696     1.085974576583
    C            2.049129514527     1.493398151118    -0.766897801421
    H            2.320346465766     1.910671004105     0.191997687519
    H            1.892935388089     2.280955663695    -1.487521183469
    H            2.833866346832     0.829915096819    -1.100538777644

  Mulliken Charges: (a.u.)
   Center  Symbol    Alpha    Beta     Spin     Total
       1     O     4.28710  4.28710  0.00000 -0.57420
       2     C     2.61012  2.61012  0.00000  0.77977
       3     C     3.20211  3.20211  0.00000 -0.40421
       4     O     4.30267  4.30267  0.00000 -0.60534
       5     C     3.15873  3.15873  0.00000 -0.31746
       6     H     0.40276  0.40276  0.00000  0.19448
       7     H     0.39827  0.39827  0.00000  0.20346
       8     C     3.24214  3.24214  0.00000 -0.48428
       9     H     0.40693  0.40693  0.00000  0.18614
      10     H     0.41654  0.41654  0.00000  0.16692
      11     H     0.42001  0.42001  0.00000  0.15998
      12     H     0.41541  0.41541  0.00000  0.16918
      13     H     0.41897  0.41897  0.00000  0.16205
      14     C     3.09236  3.09236  0.00000 -0.18472
      15     H     0.40847  0.40847  0.00000  0.18306
      16     H     0.40875  0.40875  0.00000  0.18249
      17     H     0.40867  0.40867  0.00000  0.18267

   Total alpha = 28.00000, Total beta = 28.00000, Total charge =  0.00000
