  ==> Input File <==

--------------------------------------------------------------------------
set {
	reference rhf
	basis 6-31G*
}

set_num_threads( 1 )
memory 2 gb

molecule MOL {
0 1

O	 0.625848	 1.349995	 -0.000749
C	 0.486307	 0.169203	 0.000779
C	 1.608116	 -0.841643	 0.000302
O	 -0.698257	 -0.426125	 0.001050
C	 2.990107	 -0.200498	 -0.000684
H	 1.468623	 -1.481519	 -0.865924
H	 1.469683	 -1.481289	 0.866878
H	 3.129736	 0.423364	 -0.875135
H	 3.757882	 -0.966877	 -0.001197
H	 3.130964	 0.423383	 0.873533
C	 -1.187950	 -0.917286	 -1.242478
C	 -2.539618	 -1.547309	 -0.980986
H	 -0.482985	 -1.634357	 -1.640494
H	 -1.258269	 -0.096226	 -1.942839
H	 -2.452978	 -2.364180	 -0.273616
H	 -2.951003	 -1.936675	 -1.906623
H	 -3.232612	 -0.817689	 -0.577662

	symmetry c1
}
set optking {
	frozen_dihedral = ("
		2 4 11 13,
		4 2 3 6
	")
}

ee = energy('scf')
oeprop('DIPOLE', 'QUADRUPOLE', 'MULLIKEN_CHARGES')
f=open( 'psi4out.xyz', 'w' )
f.write( "17  " )
f.write( str(ee) + "\n" )
f.write( MOL.save_string_xyz() )
f.close()
--------------------------------------------------------------------------

    Molecular point group: c1

    Geometry (in Angstrom), charge = 0, multiplicity = 1:

       Center              X                  Y                   Z               Mass
    ------------   -----------------  -----------------  -----------------  -----------------
           O          0.452193411981     1.695675629142     0.323198540405    15.994914619560
           C          0.312652411981     0.514883629142     0.324726540405    12.000000000000
           C          1.434461411981    -0.495962370858     0.324249540405    12.000000000000
           O         -0.871911588019    -0.080444370858     0.324997540405    15.994914619560
           C          2.816452411981     0.145182629142     0.323263540405    12.000000000000
           H          1.294968411981    -1.135838370858    -0.541976459595     1.007825032070
           H          1.296028411981    -1.135608370858     1.190825540405     1.007825032070
           H          2.956081411981     0.769044629142    -0.551187459595     1.007825032070
           H          3.584227411981    -0.621196370858     0.322750540405     1.007825032070
           H          2.957309411981     0.769063629142     1.197480540405     1.007825032070
           C         -1.361604588019    -0.571605370858    -0.918530459595    12.000000000000
           C         -2.713272588019    -1.201628370858    -0.657038459595    12.000000000000
           H         -0.656639588019    -1.288676370858    -1.316546459595     1.007825032070
           H         -1.431923588019     0.249454629142    -1.618891459595     1.007825032070
           H         -2.626632588019    -2.018499370858     0.050331540405     1.007825032070
           H         -3.124657588019    -1.590994370858    -1.582675459595     1.007825032070
           H         -3.406266588019    -0.472008370858    -0.253714459595     1.007825032070

  Charge       = 0
  Multiplicity = 1
  Basis Set: 6-31G*
  Basis Set:

    Orbital Energies (a.u.)
    -----------------------

    Doubly Occupied:

       1A    -20.585168     2A    -20.553641     3A    -11.372493
       4A    -11.300234     5A    -11.239041     6A    -11.228161
       7A    -11.216726     8A     -1.462176     9A     -1.366930
      10A     -1.065280    11A     -1.041258    12A     -0.903735
      13A     -0.872319    14A     -0.773327    15A     -0.700019
      16A     -0.687410    17A     -0.658524    18A     -0.637515
      19A     -0.603931    20A     -0.565475    21A     -0.556699
      22A     -0.534195    23A     -0.528118    24A     -0.519315
      25A     -0.507446    26A     -0.483168    27A     -0.453547
      28A     -0.433082

  @DF-RHF Final Energy:  -344.88957614648319

   => Energetics <=

    Nuclear Repulsion Energy =            315.9957176021968621
    One-Electron Energy =               -1096.0726308085593246
    Two-Electron Energy =                 435.1873370598794963
    DFT Exchange-Correlation Energy =       0.0000000000000000
    Empirical Dispersion Energy =           0.0000000000000000
    PCM Polarization Energy =               0.0000000000000000
    EFP Energy =                            0.0000000000000000
    Total Energy =                       -344.8895761464829093

  Mulliken Charges: (a.u.)
   Center  Symbol    Alpha    Beta     Spin     Total
       1     O     4.25833  4.25833  0.00000 -0.51665
       2     C     2.61403  2.61403  0.00000  0.77194
       3     C     3.21257  3.21257  0.00000 -0.42513
       4     O     4.31482  4.31482  0.00000 -0.62963
       5     C     3.23881  3.23881  0.00000 -0.47761
       6     H     0.40776  0.40776  0.00000  0.18449
       7     H     0.39899  0.39899  0.00000  0.20202
       8     H     0.41113  0.41113  0.00000  0.17774
       9     H     0.41920  0.41920  0.00000  0.16159
      10     H     0.40849  0.40849  0.00000  0.18302
      11     C     3.00507  3.00507  0.00000 -0.01015
      12     C     3.24645  3.24645  0.00000 -0.49290
      13     H     0.42203  0.42203  0.00000  0.15595
      14     H     0.41021  0.41021  0.00000  0.17957
      15     H     0.40999  0.40999  0.00000  0.18001
      16     H     0.41707  0.41707  0.00000  0.16586
      17     H     0.40506  0.40506  0.00000  0.18988

   Total alpha = 28.00000, Total beta = 28.00000, Total charge =  0.00000
