  ==> Input File <==

--------------------------------------------------------------------------
set {
	reference rhf
	basis cc-pvtz
}

set_num_threads( 4 )
memory 2 gb

molecule MOL {
0 1

H	 -1.208110	 -2.144060	 -0.982231
N	 -0.498863	 -1.447291	 -1.066221
C	 -0.561396	 -0.500007	 0.035200
H	 -0.640327	 -0.986726	 -1.940980
C	 0.575129	 0.507849	 -0.048832
H	 -0.473567	 -1.060000	 0.960356
H	 -1.511009	 0.035162	 0.082573
C	 1.951750	 -0.141983	 0.035101
H	 0.478254	 1.061643	 -0.975981
H	 0.467676	 1.231891	 0.755499
H	 2.101550	 -0.848142	 -0.774949
H	 2.738260	 0.600794	 -0.026526
H	 2.078939	 -0.679792	 0.968824

	symmetry c1
}
set optking {
	frozen_dihedral = ("
		6 3 5 9
	")
}

ee = optimize('scf')
oeprop('DIPOLE', 'QUADRUPOLE', 'MULLIKEN_CHARGES')
f=open( 'psi4out.xyz', 'w' )
f.write( "13  " )
f.write( str(ee) + "\n" )
f.write( MOL.save_string_xyz() )
f.close()
--------------------------------------------------------------------------

    Molecular point group: c1
  Charge       = 0
  Multiplicity = 1
  Basis Set: CC-PVTZ
  Basis Set:
  @DF-RHF Final Energy:  -173.35184983562908
    Total Energy =                       -173.3518498356291104
    Molecular point group: c1
  Basis Set: CC-PVTZ
  Basis Set:
  Basis Set: CC-PVTZ
  Basis Set:
  @DF-RHF Final Energy:  -173.35202617386543
    Total Energy =                       -173.3520261738653971
  Basis Set: CC-PVTZ
  Basis Set:
  Basis Set: CC-PVTZ
  Basis Set:
  @DF-RHF Final Energy:  -173.35205943469677
    Total Energy =                       -173.3520594346967414
  Basis Set: CC-PVTZ
  Basis Set:
  Basis Set: CC-PVTZ
  Basis Set:
  @DF-RHF Final Energy:  -173.35206132062501
    Total Energy =                       -173.3520613206250687
  Basis Set: CC-PVTZ
  Basis Set:
  Charge       = 0
  Multiplicity = 1
  Basis Set: CC-PVTZ
  Basis Set:

    Orbital Energies (a.u.)
    -----------------------

    Doubly Occupied:

       1A    -15.527318     2A    -11.238981     3A    -11.210980
       4A    -11.197512     5A     -1.179116     6A     -1.030225
       7A     -0.902852     8A     -0.791966     9A     -0.665387
      10A     -0.627165    11A     -0.604799    12A     -0.559294
      13A     -0.530196    14A     -0.491267    15A     -0.473661
      16A     -0.467080    17A     -0.383508

  @DF-RHF Final Energy:  -173.35206153616107

   => Energetics <=

    Nuclear Repulsion Energy =            133.8136403393433795
    One-Electron Energy =                -498.5687881219117799
    Two-Electron Energy =                 191.4030862464072982
    DFT Exchange-Correlation Energy =       0.0000000000000000
    Empirical Dispersion Energy =           0.0000000000000000
    PCM Polarization Energy =               0.0000000000000000
    EFP Energy =                            0.0000000000000000
    Total Energy =                       -173.3520615361611306
    Molecular point group: c1
  Basis Set: CC-PVTZ
  Basis Set:

  -Total Gradient:
     Atom            X                  Y                   Z
    ------   -----------------  -----------------  -----------------
       1       -0.000009044126    -0.000004190877    -0.000006294894
       2        0.000004231880     0.000003910958     0.000025397446
       3        0.000306687908    -0.000358489980    -0.000269312540
       4        0.000001243411     0.000000313168    -0.000007368834
       5        0.000303148616    -0.000386689466    -0.000248811371
       6       -0.000306010792     0.000368226903     0.000256779886
       7       -0.000006118140    -0.000012456956    -0.000010616862
       8        0.000012763647     0.000017794510     0.000010380368
       9       -0.000311944587     0.000372646381     0.000253286009
      10        0.000008674319     0.000015243981     0.000006589188
      11       -0.000005407074    -0.000005045509    -0.000009759578
      12       -0.000006241253    -0.000008137195     0.000001548507
      13        0.000008016194    -0.000003125918    -0.000001817324

  **** Optimization is complete! (in 5 steps) ****
    Final optimized geometry and variables:
    Molecular point group: c1

    Geometry (in Angstrom), charge = 0, multiplicity = 1:

    H           -1.571659578385    -1.734583277924    -0.690518201333
    N           -0.875288336549    -1.028236019524    -0.796826580123
    C           -0.909754294859    -0.086344228813     0.311463135658
    H           -1.054658360288    -0.564562598117    -1.663132739936
    C            0.236099794420     0.915866502490     0.234821836442
    H           -0.827538479550    -0.652258737862     1.233720555425
    H           -1.849962760559     0.462528469651     0.366341777095
    C            1.621559879350     0.285836315682     0.327889218973
    H            0.149793100066     1.480773572085    -0.690875373558
    H            0.109073791125     1.636320174488     1.037714299773
    H            1.780383191975    -0.427828429243    -0.468705776743
    H            2.394773560412     1.043568379767     0.267568662557
    H            1.744811313960    -0.237669783436     1.270632071250

  Mulliken Charges: (a.u.)
   Center  Symbol    Alpha    Beta     Spin     Total
       1     H     0.42877  0.42877  0.00000  0.14246
       2     N     3.69074  3.69074  0.00000 -0.38148
       3     C     3.03273  3.03273  0.00000 -0.06546
       4     H     0.43045  0.43045  0.00000  0.13909
       5     C     3.08502  3.08502  0.00000 -0.17004
       6     H     0.45769  0.45769  0.00000  0.08463
       7     H     0.46105  0.46105  0.00000  0.07790
       8     C     3.14363  3.14363  0.00000 -0.28727
       9     H     0.45848  0.45848  0.00000  0.08304
      10     H     0.45291  0.45291  0.00000  0.09419
      11     H     0.44751  0.44751  0.00000  0.10498
      12     H     0.45223  0.45223  0.00000  0.09554
      13     H     0.45879  0.45879  0.00000  0.08242

   Total alpha = 17.00000, Total beta = 17.00000, Total charge = -0.00000
