  ==> Input File <==

--------------------------------------------------------------------------
set {
	reference rhf
	basis cc-pvtz
}

set_num_threads( 4 )
memory 2 gb

molecule MOL {
0 1

O	 -1.278239	 1.034789	 -0.784693
C	 -1.204115	 0.062668	 -0.112312
C	 -2.386398	 -0.667698	 0.460323
O	 -0.068058	 -0.518372	 0.226882
H	 -2.382952	 -1.693172	 0.114333
H	 -3.296656	 -0.175702	 0.158400
H	 -2.312537	 -0.685191	 1.540100
C	 1.169086	 0.037484	 -0.230612
C	 1.979331	 0.348789	 1.011847
C	 0.899036	 1.262410	 -1.085735
H	 1.671003	 -0.713013	 -0.822154
H	 2.144775	 -0.547839	 1.595316
H	 2.942680	 0.758867	 0.733446
H	 1.465751	 1.071931	 1.634131
H	 1.835242	 1.691724	 -1.422942
H	 0.314166	 1.001412	 -1.956629
H	 0.364679	 2.013634	 -0.515289

	symmetry c1
}
set optking {
	frozen_dihedral = ("
		11 8 4 2
	")
}

ee = optimize('scf')
oeprop('DIPOLE', 'QUADRUPOLE', 'MULLIKEN_CHARGES')
f=open( 'psi4out.xyz', 'w' )
f.write( "17  " )
f.write( str(ee) + "\n" )
f.write( MOL.save_string_xyz() )
f.close()
--------------------------------------------------------------------------

    Molecular point group: c1
  Charge       = 0
  Multiplicity = 1
  Basis Set: CC-PVTZ
  Basis Set:
  @DF-RHF Final Energy:  -344.99760270018515
    Total Energy =                       -344.9976027001849275
    Molecular point group: c1
  Basis Set: CC-PVTZ
  Basis Set:
  Basis Set: CC-PVTZ
  Basis Set:
  @DF-RHF Final Energy:  -345.02361635549278
    Total Energy =                       -345.0236163554925497
  Basis Set: CC-PVTZ
  Basis Set:
  Basis Set: CC-PVTZ
  Basis Set:
  @DF-RHF Final Energy:  -345.02909154943933
    Total Energy =                       -345.0290915494391015
  Basis Set: CC-PVTZ
  Basis Set:
  Basis Set: CC-PVTZ
  Basis Set:
  @DF-RHF Final Energy:  -345.02839089691776
    Total Energy =                       -345.0283908969172444
  Basis Set: CC-PVTZ
  Basis Set:
  @DF-RHF Final Energy:  -345.03082986758494
    Total Energy =                       -345.0308298675846572
  @DF-RHF Final Energy:  -345.03148456364460
    Total Energy =                       -345.0314845636448808
  Basis Set: CC-PVTZ
  Basis Set:
  @DF-RHF Final Energy:  -345.03150416849553
    Total Energy =                       -345.0315041684954736
  Basis Set: CC-PVTZ
  Basis Set:
  Basis Set: CC-PVTZ
  Basis Set:
  @DF-RHF Final Energy:  -345.03150535153310
    Total Energy =                       -345.0315053515330419
  Basis Set: CC-PVTZ
  Basis Set:
  Basis Set: CC-PVTZ
  Basis Set:
  @DF-RHF Final Energy:  -345.03150662766137
    Total Energy =                       -345.0315066276612015
  Basis Set: CC-PVTZ
  Basis Set:
  Charge       = 0
  Multiplicity = 1
  Basis Set: CC-PVTZ
  Basis Set:

    Orbital Energies (a.u.)
    -----------------------

    Doubly Occupied:

       1A    -20.587871     2A    -20.526696     3A    -11.367057
       4A    -11.295862     5A    -11.227320     6A    -11.218150
       7A    -11.210665     8A     -1.460727     9A     -1.363563
      10A     -1.081163    11A     -1.002292    12A     -0.946576
      13A     -0.866519    14A     -0.740939    15A     -0.689456
      16A     -0.679656    17A     -0.659457    18A     -0.615084
      19A     -0.585451    20A     -0.579900    21A     -0.562950
      22A     -0.548577    23A     -0.536495    24A     -0.516670
      25A     -0.509377    26A     -0.483677    27A     -0.440075
      28A     -0.431156

  @DF-RHF Final Energy:  -345.03150675272292

   => Energetics <=

    Nuclear Repulsion Energy =            323.9798474660651095
    One-Electron Energy =               -1112.5559491075059668
    Two-Electron Energy =                 443.5445948887183363
    DFT Exchange-Correlation Energy =       0.0000000000000000
    Empirical Dispersion Energy =           0.0000000000000000
    PCM Polarization Energy =               0.0000000000000000
    EFP Energy =                            0.0000000000000000
    Total Energy =                       -345.0315067527224642
    Molecular point group: c1
  Basis Set: CC-PVTZ
  Basis Set:

  -Total Gradient:
     Atom            X                  Y                   Z
    ------   -----------------  -----------------  -----------------
       1        0.000000367829     0.000004001723     0.000004176545
       2       -0.000014498942    -0.000238763591    -0.000334445466
       3        0.000003539557    -0.000020341883    -0.000036337189
       4       -0.000019344627     0.000399122349     0.000469430254
       5        0.000002789886    -0.000001340171     0.000014095049
       6        0.000002813028     0.000004504468     0.000003231899
       7       -0.000001380278     0.000013716298     0.000010179924
       8        0.000192566124    -0.000313427171     0.000216737243
       9        0.000007598987     0.000000414600    -0.000001602946
      10       -0.000009387781     0.000016491634     0.000005177465
      11       -0.000169052253     0.000141003620    -0.000348849536
      12        0.000000205480     0.000001459502     0.000000741005
      13        0.000001123159    -0.000000290438     0.000002658631
      14       -0.000000315406     0.000000294444     0.000001143311
      15       -0.000001806522    -0.000004350980    -0.000000603788
      16       -0.000001589556    -0.000000108426    -0.000002247174
      17        0.000006371312    -0.000002385975    -0.000003485229

  **** Optimization is complete! (in 10 steps) ****
    Final optimized geometry and variables:
    Molecular point group: c1

    Geometry (in Angstrom), charge = 0, multiplicity = 1:

    O           -1.413863708926     0.788159393692    -0.654061706772
    C           -1.163377393685    -0.178968748436    -0.020948501966
    C           -2.210589406791    -1.061669345096     0.605539747494
    O            0.042044040658    -0.642126251887     0.247541288566
    H           -2.114813791139    -2.068957766439     0.221333069068
    H           -3.190501292221    -0.670863844369     0.384246394839
    H           -2.058455559345    -1.103138854834     1.676294151210
    C            1.315234976117    -0.129860720795    -0.184027584022
    C            2.128052541727     0.095280200431     1.078518328841
    C            1.308201979046     1.093298295144    -1.086779907207
    H            1.745776089124    -0.953726893492    -0.738700635584
    H            2.130626656241    -0.794779920753     1.693834332469
    H            3.152113825740     0.341658013111     0.824822836246
    H            1.712960700272     0.912445972280     1.657191391926
    H            2.340600822831     1.293128104800    -1.353572143404
    H            0.746782463902     0.928619098322    -1.992592144776
    H            0.904756970916     1.964058226742    -0.592156906672

  Mulliken Charges: (a.u.)
   Center  Symbol    Alpha    Beta     Spin     Total
       1     O     4.19804  4.19804  0.00000 -0.39608
       2     C     2.80871  2.80871  0.00000  0.38258
       3     C     3.13510  3.13510  0.00000 -0.27020
       4     O     4.16336  4.16336  0.00000 -0.32671
       5     H     0.44681  0.44681  0.00000  0.10638
       6     H     0.43931  0.43931  0.00000  0.12138
       7     H     0.44679  0.44679  0.00000  0.10643
       8     C     2.93959  2.93959  0.00000  0.12082
       9     C     3.14046  3.14046  0.00000 -0.28092
      10     C     3.15256  3.15256  0.00000 -0.30513
      11     H     0.44596  0.44596  0.00000  0.10808
      12     H     0.44563  0.44563  0.00000  0.10873
      13     H     0.45357  0.45357  0.00000  0.09285
      14     H     0.45209  0.45209  0.00000  0.09581
      15     H     0.45249  0.45249  0.00000  0.09503
      16     H     0.43742  0.43742  0.00000  0.12515
      17     H     0.44210  0.44210  0.00000  0.11579

   Total alpha = 28.00000, Total beta = 28.00000, Total charge = -0.00000
