  ==> Input File <==

--------------------------------------------------------------------------
set {
	reference rhf
	basis 6-31G*
}

set_num_threads( 4 )
memory 2 gb

molecule MOL {
0 1

O	 2.467388	 1.969783	 -0.365900
C	 1.593885	 2.102481	 -1.167237
C	 0.331525	 1.259628	 -1.135847
C	 1.690264	 3.129650	 -2.276647
C	 0.291004	 0.242674	 0.000989
H	 -0.519728	 1.936626	 -1.077283
H	 0.238628	 0.762544	 -2.100565
C	 -0.994322	 -0.586602	 0.000262
H	 0.393999	 0.763278	 0.947822
H	 1.153052	 -0.412297	 -0.076687
C	 -2.259874	 0.272531	 0.000494
H	 -1.004862	 -1.240012	 -0.870939
H	 -1.005220	 -1.241071	 0.870675
C	 -3.549786	 -0.549746	 -0.000374
H	 -2.250389	 0.926680	 -0.869574
H	 -2.250838	 0.925513	 0.871430
C	 -4.809590	 0.315458	 -0.000369
H	 -3.560515	 -1.202009	 -0.871156
H	 -3.561123	 -1.202955	 0.869711
H	 -4.844746	 0.956611	 -0.876632
H	 -5.706986	 -0.295590	 -0.001609
H	 -4.845960	 0.954827	 0.877144
H	 0.863067	 3.830920	 -2.216780
H	 2.625201	 3.666586	 -2.196473
H	 1.632473	 2.645398	 -3.247108

	symmetry c1
}
set optking {
	frozen_dihedral = ("
		9 5 8 12
	")
}

ee = optimize('scf')
oeprop('DIPOLE', 'QUADRUPOLE', 'MULLIKEN_CHARGES')
f=open( 'psi4out.xyz', 'w' )
f.write( "25  " )
f.write( str(ee) + "\n" )
f.write( MOL.save_string_xyz() )
f.close()
--------------------------------------------------------------------------

    Molecular point group: c1
  Charge       = 0
  Multiplicity = 1
  Basis Set: 6-31G*
  Basis Set:
  @DF-RHF Final Energy:  -387.13280506481419
    Total Energy =                       -387.1328050648137378
    Molecular point group: c1
  Basis Set: 6-31G*
  Basis Set:
  Basis Set: 6-31G*
  Basis Set:
  @DF-RHF Final Energy:  -387.13362828854127
    Total Energy =                       -387.1336282885408764
  Basis Set: 6-31G*
  Basis Set:
  Basis Set: 6-31G*
  Basis Set:
  @DF-RHF Final Energy:  -387.13451108141231
    Total Energy =                       -387.1345110814122563
  Basis Set: 6-31G*
  Basis Set:
  Basis Set: 6-31G*
  Basis Set:
  @DF-RHF Final Energy:  -387.13449125260792
    Total Energy =                       -387.1344912526083135
  Basis Set: 6-31G*
  Basis Set:
  Basis Set: 6-31G*
  Basis Set:
  @DF-RHF Final Energy:  -387.13452394415413
    Total Energy =                       -387.1345239441545800
  Basis Set: 6-31G*
  Basis Set:
  Basis Set: 6-31G*
  Basis Set:
  @DF-RHF Final Energy:  -387.13460374095115
    Total Energy =                       -387.1346037409512064
  Basis Set: 6-31G*
  Basis Set:
  Charge       = 0
  Multiplicity = 1
  Basis Set: 6-31G*
  Basis Set:

    Orbital Energies (a.u.)
    -----------------------

    Doubly Occupied:

       1A    -20.550376     2A    -11.326261     3A    -11.231389
       4A    -11.228269     5A    -11.217480     6A    -11.217238
       7A    -11.216718     8A    -11.216303     9A    -11.210668
      10A     -1.395724    11A     -1.094587    12A     -1.055762
      13A     -1.014570    14A     -0.968062    15A     -0.898616
      16A     -0.816278    17A     -0.787251    18A     -0.730413
      19A     -0.657991    20A     -0.651671    21A     -0.636220
      22A     -0.621306    23A     -0.597181    24A     -0.581142
      25A     -0.567196    26A     -0.565659    27A     -0.543233
      28A     -0.529053    29A     -0.516870    30A     -0.493481
      31A     -0.487708    32A     -0.476892    33A     -0.461821
      34A     -0.459285    35A     -0.446802    36A     -0.400873

  @DF-RHF Final Energy:  -387.13460344139077

   => Energetics <=

    Nuclear Repulsion Energy =            444.7780855054858762
    One-Electron Energy =               -1406.0846754934630098
    Two-Electron Energy =                 574.1719865465856856
    DFT Exchange-Correlation Energy =       0.0000000000000000
    Empirical Dispersion Energy =           0.0000000000000000
    PCM Polarization Energy =               0.0000000000000000
    EFP Energy =                            0.0000000000000000
    Total Energy =                       -387.1346034413913912
    Molecular point group: c1
  Basis Set: 6-31G*
  Basis Set:

  -Total Gradient:
     Atom            X                  Y                   Z
    ------   -----------------  -----------------  -----------------
       1        0.000022773383    -0.000030472297    -0.000024289584
       2       -0.000059099564     0.000092503565     0.000077602387
       3        0.000030465399    -0.000037493987    -0.000037983911
       4        0.000007205017    -0.000022224343    -0.000017844925
       5       -0.001010554868     0.001579000265    -0.000559854232
       6        0.000008102249     0.000000482640     0.000001534057
       7        0.000001833342     0.000004897490    -0.000002848121
       8       -0.000833003300     0.001326129792    -0.001050527767
       9        0.000994038415    -0.001464040449     0.000717239923
      10       -0.000027650745    -0.000008910589    -0.000016362219
      11        0.000036586926    -0.000003003761    -0.000132894285
      12        0.000822623727    -0.001336081225     0.000968829867
      13       -0.000071301424    -0.000027160281     0.000014601204
      14        0.000030063986    -0.000027080972     0.000073729276
      15        0.000022624138    -0.000019744272    -0.000008778746
      16        0.000024096742    -0.000005843691    -0.000043818462
      17        0.000010620979     0.000004232569     0.000025153354
      18       -0.000013867184     0.000028713759     0.000003365422
      19       -0.000003987738    -0.000044468856     0.000007856928
      20        0.000013479156     0.000002879985     0.000007519501
      21        0.000001578032    -0.000002525902    -0.000003761258
      22       -0.000010564019    -0.000002034736     0.000004496395
      23        0.000001359097    -0.000005777202     0.000000510086
      24        0.000000383886    -0.000001938242     0.000000836693
      25        0.000002194358    -0.000000039263    -0.000004311583

  **** Optimization is complete! (in 7 steps) ****
    Final optimized geometry and variables:
    Molecular point group: c1

    Geometry (in Angstrom), charge = 0, multiplicity = 1:

    O            3.128864948664     0.964234356542     0.191501471689
    C            2.278279270892     1.176873467846    -0.617168907697
    C            0.946177754789     0.447668699794    -0.605842255049
    C            2.474809387248     2.199661210332    -1.717549546504
    C            0.815257938471    -0.573817150883     0.520957164039
    H            0.163347769947     1.200724983950    -0.552873059480
    H            0.821380934262    -0.032832134124    -1.575868175819
    C           -0.464362381326    -1.416195009657     0.467898944823
    H            0.885712012946    -0.070300314671     1.480377489891
    H            1.670854899363    -1.239574546587     0.481582948152
    C           -1.773874250039    -0.624979402956     0.505320173208
    H           -0.443745049471    -2.053182929880    -0.415299740297
    H           -0.446638723628    -2.095797411517     1.317442869162
    C           -3.008300889752    -1.521748641981     0.621026991002
    H           -1.868175272501    -0.013177316090    -0.389084021627
    H           -1.752625612173     0.065570157211     1.347506799679
    C           -4.318106028687    -0.735092361995     0.653373496926
    H           -3.026236266392    -2.218064672653    -0.214814997946
    H           -2.929323666792    -2.127962987934     1.520722920026
    H           -4.443860623806    -0.144539842359    -0.249885394510
    H           -5.173567619529    -1.398346847971     0.735823155895
    H           -4.345429698588    -0.053716327966     1.499079278310
    H            1.713131051332     2.971609918237    -1.657861069296
    H            3.453176041471     2.650447200145    -1.625901559470
    H            2.381889287174     1.729985389651    -2.692431466561

  Mulliken Charges: (a.u.)
   Center  Symbol    Alpha    Beta     Spin     Total
       1     O     4.26104  4.26104  0.00000 -0.52207
       2     C     2.73576  2.73576  0.00000  0.52848
       3     C     3.21247  3.21247  0.00000 -0.42495
       4     C     3.28651  3.28651  0.00000 -0.57301
       5     C     3.14956  3.14956  0.00000 -0.29911
       6     H     0.40769  0.40769  0.00000  0.18463
       7     H     0.41061  0.41061  0.00000  0.17878
       8     C     3.15590  3.15590  0.00000 -0.31181
       9     H     0.41354  0.41354  0.00000  0.17291
      10     H     0.40929  0.40929  0.00000  0.18142
      11     C     3.15387  3.15387  0.00000 -0.30774
      12     H     0.42427  0.42427  0.00000  0.15145
      13     H     0.41908  0.41908  0.00000  0.16183
      14     C     3.15111  3.15111  0.00000 -0.30222
      15     H     0.42482  0.42482  0.00000  0.15037
      16     H     0.42339  0.42339  0.00000  0.15321
      17     C     3.23928  3.23928  0.00000 -0.47856
      18     H     0.42298  0.42298  0.00000  0.15405
      19     H     0.42195  0.42195  0.00000  0.15609
      20     H     0.42257  0.42257  0.00000  0.15486
      21     H     0.41880  0.41880  0.00000  0.16240
      22     H     0.42146  0.42146  0.00000  0.15709
      23     H     0.40873  0.40873  0.00000  0.18254
      24     H     0.39649  0.39649  0.00000  0.20701
      25     H     0.40882  0.40882  0.00000  0.18236

   Total alpha = 36.00000, Total beta = 36.00000, Total charge = -0.00000
