                              Psi4 1.0.54 Driver

  ==> Input File <==

--------------------------------------------------------------------------
set {
	reference rhf
	basis cc-pvtz
}

set_num_threads( 4 )
memory 2 gb

molecule MOL {
0 1

O	 -1.510770	 1.240811	 -0.054933
C	 -1.081510	 0.147522	 0.122720
C	 0.327029	 -0.064006	 0.641890
C	 -1.903028	 -1.084121	 -0.174656
C	 1.349460	 -0.017068	 -0.500215
H	 0.399029	 -1.014606	 1.159950
H	 0.538021	 0.726928	 1.350471
C	 2.695225	 0.542896	 -0.054009
H	 1.491490	 -1.014417	 -0.906370
H	 0.945526	 0.590385	 -1.301567
H	 3.394454	 0.575703	 -0.881072
H	 3.135030	 -0.066500	 0.728269
H	 2.589080	 1.550953	 0.331249
H	 -1.341891	 -1.779207	 -0.789259
H	 -2.820449	 -0.808163	 -0.671328
H	 -2.133314	 -1.593056	 0.755831

	symmetry c1
}
set optking {
	frozen_dihedral = ("
		9 5 3 2
	")
}

ee,wfn = optimize('scf', return_wfn=True)
oeprop( wfn, 'DIPOLE', 'QUADRUPOLE', 'MULLIKEN_CHARGES')
f=open( 'psi4out.xyz', 'w' )
f.write( "16  " )
f.write( str(ee) + "\n" )
f.write( MOL.save_string_xyz() )
f.close()
--------------------------------------------------------------------------

    Molecular point group: c1
  Charge       = 0
  Multiplicity = 1
  Basis Set: CC-PVTZ
  Basis Set:
  @DF-RHF Final Energy:  -270.12629090642042
    Total Energy =                       -270.1262909064204223
    Molecular point group: c1
  Basis Set: CC-PVTZ
  Basis Set:
  Basis Set: CC-PVTZ
  Basis Set:
  @DF-RHF Final Energy:  -270.12655958299717
    Total Energy =                       -270.1265595829971744
  Basis Set: CC-PVTZ
  Basis Set:
  Basis Set: CC-PVTZ
  Basis Set:
  @DF-RHF Final Energy:  -270.12513532070193
    Total Energy =                       -270.1251353207019292
  Basis Set: CC-PVTZ
  Basis Set:
  Basis Set: CC-PVTZ
  Basis Set:
  @DF-RHF Final Energy:  -270.12669860414735
    Total Energy =                       -270.1266986041474638
  Basis Set: CC-PVTZ
  Basis Set:
  @DF-RHF Final Energy:  -270.12676144958743
    Total Energy =                       -270.1267614495869793
  Basis Set: CC-PVTZ
  Basis Set:
  @DF-RHF Final Energy:  -270.12680615049510
    Total Energy =                       -270.1268061504949856
  Basis Set: CC-PVTZ
  Basis Set:
  Basis Set: CC-PVTZ
  Basis Set:
  @DF-RHF Final Energy:  -270.12682460521626
    Total Energy =                       -270.1268246052164841
  Basis Set: CC-PVTZ
  Basis Set:
  Basis Set: CC-PVTZ
  Basis Set:
  @DF-RHF Final Energy:  -270.12683674344640
    Total Energy =                       -270.1268367434466313
  Basis Set: CC-PVTZ
  Basis Set:
  Charge       = 0
  Multiplicity = 1
  Basis Set: CC-PVTZ
  Basis Set:

    Orbital Energies (a.u.)
    -----------------------

    Doubly Occupied:

       1A    -20.537552     2A    -11.319544     3A    -11.233736
       4A    -11.228205     5A    -11.226693     6A    -11.217680
       7A     -1.397439     8A     -1.083812     9A     -1.012949
      10A     -0.950242    11A     -0.831669    12A     -0.736646
      13A     -0.662295    14A     -0.647198    15A     -0.620882
      16A     -0.605980    17A     -0.577865    18A     -0.555146
      19A     -0.542129    20A     -0.517953    21A     -0.502358
      22A     -0.485398    23A     -0.476742    24A     -0.400500

  @DF-RHF Final Energy:  -270.12683770640831

   => Energetics <=

    Nuclear Repulsion Energy =            237.6626892501436430
    One-Electron Energy =                -836.8378245731510106
    Two-Electron Energy =                 329.0482976165992000
    DFT Exchange-Correlation Energy =       0.0000000000000000
    Empirical Dispersion Energy =           0.0000000000000000
    PCM Polarization Energy =               0.0000000000000000
    EFP Energy =                            0.0000000000000000
    Total Energy =                       -270.1268377064081392
    Molecular point group: c1
  Basis Set: CC-PVTZ
  Basis Set:

  -Total Gradient:
     Atom            X                  Y                   Z
    ------   -----------------  -----------------  -----------------
       1       -0.000047074976     0.000068402197    -0.000004870481
       2        0.000388086839     0.002789471210     0.000041797727
       3        0.000238124077    -0.003965288381     0.000664061726
       4        0.000023272374    -0.000010672392    -0.000022198532
       5       -0.003546725583     0.001492190188    -0.003107679467
       6       -0.000003123138     0.000007618302    -0.000009562588
       7        0.000006339011    -0.000020453666    -0.000024716057
       8       -0.000016285373    -0.000013299899     0.000008022378
       9        0.002988892762    -0.000341733644     0.002475018341
      10       -0.000010387806     0.000008218431    -0.000013362787
      11        0.000002105748    -0.000012162402    -0.000010888263
      12        0.000005909185    -0.000005135329     0.000016585156
      13       -0.000002351050     0.000021261037    -0.000010646087
      14       -0.000005917065    -0.000012265023    -0.000004959615
      15       -0.000020992919     0.000001745189    -0.000013528373
      16        0.000000127916    -0.000007895818     0.000016926921

  **** Optimization is complete! (in 9 steps) ****
    Final optimized geometry and variables:
    Molecular point group: c1

    Geometry (in Angstrom), charge = 0, multiplicity = 1:

    O           -1.610038777120     1.102208013867     0.230397304074
    C           -1.070273997204     0.044458457836     0.200889326242
    C            0.367734181380    -0.115131149671     0.649870955198
    C           -1.781177435174    -1.191195172382    -0.300213597272
    C            1.338967073194    -0.208225041084    -0.544358133631
    H            0.470221362968    -0.992050109077     1.279962825328
    H            0.601419382911     0.757084694248     1.244970672264
    C            2.717510036955     0.351800382616    -0.204230214667
    H            1.459886831128    -1.245211185649    -0.837670614513
    H            0.935614997783     0.328862105453    -1.395532805613
    H            3.399034484919     0.237522811219    -1.039043632952
    H            3.147911775863    -0.162682677493     0.648510406823
    H            2.659796727780     1.406438431398     0.038933474635
    H           -1.189348184777    -1.695129414209    -1.055754308169
    H           -2.745583656138    -0.925220641745    -0.704912718646
    H           -1.913052156683    -1.887137561000     0.522012457003

  Mulliken Charges: (a.u.)
   Center  Symbol    Alpha    Beta     Spin     Total
       1     O     4.17435  4.17435  0.00000 -0.34870
       2     C     2.86018  2.86018  0.00000  0.27965
       3     C     3.09759  3.09759  0.00000 -0.19519
       4     C     3.15463  3.15463  0.00000 -0.30925
       5     C     3.09434  3.09434  0.00000 -0.18867
       6     H     0.44791  0.44791  0.00000  0.10418
       7     H     0.44038  0.44038  0.00000  0.11924
       8     C     3.14655  3.14655  0.00000 -0.29310
       9     H     0.45196  0.45196  0.00000  0.09608
      10     H     0.44597  0.44597  0.00000  0.10806
      11     H     0.44748  0.44748  0.00000  0.10505
      12     H     0.45406  0.45406  0.00000  0.09188
      13     H     0.45008  0.45008  0.00000  0.09985
      14     H     0.44977  0.44977  0.00000  0.10045
      15     H     0.43555  0.43555  0.00000  0.12890
      16     H     0.44921  0.44921  0.00000  0.10158

   Total alpha = 24.00000, Total beta = 24.00000, Total charge = -0.00000

*** Psi4 exiting successfully. Buy a developer a beer!
