                              Psi4 1.0.54 Driver

  ==> Input File <==

--------------------------------------------------------------------------
set {
	reference rhf
	basis cc-pvtz
}

set_num_threads( 4 )
memory 2 gb

molecule MOL {
0 1

O	 -0.244714	 -2.230279	 -0.428007
C	 -1.303689	 -1.739693	 -0.227208
C	 -2.591585	 -2.517189	 -0.193923
O	 -1.481217	 -0.452708	 0.001092
H	 -2.511792	 -3.282802	 0.566044
H	 -3.439927	 -1.883312	 0.008942
H	 -2.719228	 -3.011971	 -1.147324
C	 -0.332055	 0.384012	 -0.000250
C	 0.892252	 -0.506059	 -0.000295
H	 -0.360822	 1.020205	 -0.874146
H	 -0.359817	 1.021310	 0.872861
C	 2.188199	 0.299473	 -0.001416
H	 0.857046	 -1.152781	 -0.871031
H	 0.857910	 -1.151798	 0.871202
C	 3.437151	 -0.577593	 -0.000991
H	 2.209565	 0.950707	 -0.871712
H	 2.210062	 0.952234	 0.867721
C	 4.732399	 0.226982	 -0.000914
H	 3.417321	 -1.229122	 -0.869998
H	 3.416993	 -1.228707	 0.868337
H	 4.797903	 0.863451	 -0.876963
H	 5.598517	 -0.424436	 -0.000420
H	 4.797415	 0.864118	 0.874691

	symmetry c1
}
set optking {
	frozen_dihedral = ("
		2 4 8 10
	")
}

ee,wfn = optimize('scf', return_wfn=True)
oeprop( wfn, 'DIPOLE', 'QUADRUPOLE', 'MULLIKEN_CHARGES')
f=open( 'psi4out.xyz', 'w' )
f.write( "23  " )
f.write( str(ee) + "\n" )
f.write( MOL.save_string_xyz() )
f.close()
--------------------------------------------------------------------------

    Molecular point group: c1
  Charge       = 0
  Multiplicity = 1
  Basis Set: CC-PVTZ
  Basis Set:
  @DF-RHF Final Energy:  -423.05615631024318
    Total Energy =                       -423.0561563102429545
    Molecular point group: c1
  Basis Set: CC-PVTZ
  Basis Set:
  Basis Set: CC-PVTZ
  Basis Set:
  @DF-RHF Final Energy:  -423.09412881382002
    Total Energy =                       -423.0941288138201344
  Basis Set: CC-PVTZ
  Basis Set:
  Basis Set: CC-PVTZ
  Basis Set:
  @DF-RHF Final Energy:  -422.98522597610406
    Total Energy =                       -422.9852259761036066
  Basis Set: CC-PVTZ
  Basis Set:
  Basis Set: CC-PVTZ
  Basis Set:
  @DF-RHF Final Energy:  -423.08906070532350
    Total Energy =                       -423.0890607053236181
  Basis Set: CC-PVTZ
  Basis Set:
  @DF-RHF Final Energy:  -423.11558881097193
    Total Energy =                       -423.1155888109716443
  @DF-RHF Final Energy:  -423.11904106651912
    Total Energy =                       -423.1190410665190029
  @DF-RHF Final Energy:  -423.11743192046384
    Total Energy =                       -423.1174319204634457
  @DF-RHF Final Energy:  -423.12203584676024
    Total Energy =                       -423.1220358467603546
  @DF-RHF Final Energy:  -423.12247304029887
    Total Energy =                       -423.1224730402987007
  @DF-RHF Final Energy:  -423.12254394978868
    Total Energy =                       -423.1225439497886782
  @DF-RHF Final Energy:  -423.12255895239480
    Total Energy =                       -423.1225589523945700
  @DF-RHF Final Energy:  -423.12256429600910
    Total Energy =                       -423.1225642960089317
  @DF-RHF Final Energy:  -423.12256651036074
    Total Energy =                       -423.1225665103605706
  @DF-RHF Final Energy:  -423.12257448833236
    Total Energy =                       -423.1225744883321340
  @DF-RHF Final Energy:  -423.12179488833749
    Total Energy =                       -423.1217948883374902
  @DF-RHF Final Energy:  -423.12263941359237
    Total Energy =                       -423.1226394135926512
  @DF-RHF Final Energy:  -422.90338199524820
    Total Energy =                       -422.9033819952477415
  @DF-RHF Final Energy:  -423.03846535776233
    Total Energy =                       -423.0384653577622203
  @DF-RHF Final Energy:  -422.98566635705498
    Total Energy =                       -422.9856663570550381
  @DF-RHF Final Energy:  -423.08865601647602
    Total Energy =                       -423.0886560164757384
  @DF-RHF Final Energy:  -423.10955696134869
    Total Energy =                       -423.1095569613491989
  @DF-RHF Final Energy:  -423.11409038004899
    Total Energy =                       -423.1140903800488786
  @DF-RHF Final Energy:  -423.02824838648110
    Total Energy =                       -423.0282483864813230
  @DF-RHF Final Energy:  -423.10787019782055
    Total Energy =                       -423.1078701978208301
  @DF-RHF Final Energy:  -423.11817007970637
    Total Energy =                       -423.1181700797066014
  @DF-RHF Final Energy:  -423.11965716122774
    Total Energy =                       -423.1196571612277921
  @DF-RHF Final Energy:  -423.12220920887563
    Total Energy =                       -423.1222092088748923
  @DF-RHF Final Energy:  -423.12244434308229
    Total Energy =                       -423.1224443430820656
  @DF-RHF Final Energy:  -423.12331990447177
    Total Energy =                       -423.1233199044722824
  @DF-RHF Final Energy:  -423.12324553815904
    Total Energy =                       -423.1232455381591535
  @DF-RHF Final Energy:  -423.12346805763411
    Total Energy =                       -423.1234680576335450
  @DF-RHF Final Energy:  -423.12344796313107
    Total Energy =                       -423.1234479631307295
  Basis Set: CC-PVTZ
  Basis Set:
  @DF-RHF Final Energy:  -423.12345842092742
    Total Energy =                       -423.1234584209274772
  Basis Set: CC-PVTZ
  Basis Set:
  Basis Set: CC-PVTZ
  Basis Set:
  @DF-RHF Final Energy:  -423.12347300713412
    Total Energy =                       -423.1234730071339527
  Basis Set: CC-PVTZ
  Basis Set:
  Basis Set: CC-PVTZ
  Basis Set:
  @DF-RHF Final Energy:  -423.12349816105643
    Total Energy =                       -423.1234981610566592
  Basis Set: CC-PVTZ
  Basis Set:
  Charge       = 0
  Multiplicity = 1
  Basis Set: CC-PVTZ
  Basis Set:

    Orbital Energies (a.u.)
    -----------------------

    Doubly Occupied:

       1A    -20.590511     2A    -20.528028     3A    -11.367274
       4A    -11.285873     5A    -11.228241     6A    -11.218277
       7A    -11.215730     8A    -11.215644     9A    -11.208445
      10A     -1.462801    11A     -1.364013    12A     -1.092141
      13A     -1.041372    14A     -1.000986    15A     -0.933400
      16A     -0.858599    17A     -0.798302    18A     -0.748974
      19A     -0.692463    20A     -0.679422    21A     -0.673781
      22A     -0.644853    23A     -0.606078    24A     -0.590168
      25A     -0.581349    26A     -0.564263    27A     -0.557493
      28A     -0.536043    29A     -0.524936    30A     -0.513208
      31A     -0.497126    32A     -0.475644    33A     -0.468845
      34A     -0.456529    35A     -0.443188    36A     -0.430225

  @DF-RHF Final Energy:  -423.12350087094939

   => Energetics <=

    Nuclear Repulsion Energy =            458.2119496050528937
    One-Electron Energy =               -1484.4824473066069004
    Two-Electron Energy =                 603.1469968306053033
    DFT Exchange-Correlation Energy =       0.0000000000000000
    Empirical Dispersion Energy =           0.0000000000000000
    PCM Polarization Energy =               0.0000000000000000
    EFP Energy =                            0.0000000000000000
    Total Energy =                       -423.1235008709486465
    Molecular point group: c1
  Basis Set: CC-PVTZ
  Basis Set:

  -Total Gradient:
     Atom            X                  Y                   Z
    ------   -----------------  -----------------  -----------------
       1       -0.000006604618    -0.000013193838    -0.000099339398
       2        0.003279997462    -0.001033130618     0.000268692685
       3       -0.000018986166     0.000102669658    -0.000047844376
       4       -0.004679041317     0.002123777415     0.000070722809
       5        0.000131364636     0.000014623736     0.000052319223
       6       -0.000041965500     0.000053821508     0.000038651241
       7       -0.000059999459    -0.000155872845     0.000006146398
       8       -0.000521801735    -0.003456401320    -0.002121920940
       9        0.000022344799     0.000010678346     0.000020996290
      10        0.001887506517     0.002348089872     0.001836948120
      11        0.000013139405     0.000006618748    -0.000004022676
      12       -0.000012757454     0.000014337776    -0.000017016763
      13       -0.000025744623    -0.000011322773     0.000002653563
      14        0.000011319570    -0.000020545643     0.000019103718
      15        0.000034537294     0.000009713940     0.000002372198
      16       -0.000010472161     0.000016022468    -0.000007283928
      17        0.000015852058    -0.000003166549     0.000001349035
      18       -0.000023644420     0.000000079264    -0.000002757308
      19       -0.000019668448     0.000000209213    -0.000009071816
      20        0.000015780480    -0.000017851201     0.000010425260
      21       -0.000014784763     0.000020464735    -0.000009540878
      22        0.000002589575    -0.000010374801    -0.000024008886
      23        0.000021038871     0.000000752911     0.000012426432

  **** Optimization is complete! (in 36 steps) ****
    Final optimized geometry and variables:
    Molecular point group: c1

    Geometry (in Angstrom), charge = 0, multiplicity = 1:

    O           -1.099605306142    -1.702043077990     1.111036438559
    C           -0.799153368669    -0.998663786318     2.013233330174
    C           -0.857872826753    -1.414743705608     3.458776258132
    O           -0.386352689961     0.250045599353     1.911283530908
    H            0.134612940507    -1.368164444545     3.889110625100
    H           -1.487414445971    -0.729483371633     4.011181160690
    H           -1.245577836242    -2.418225170293     3.529862257391
    C           -0.071473080336     0.949051359373     0.705467420088
    C            0.169813241757     0.161357576770    -0.571767622326
    H           -0.849815977557     1.689136494135     0.568812103222
    H            0.829454713965     1.491937077861     0.958241991205
    C            0.692350950866     1.096787907798    -1.661739329986
    H           -0.737202135265    -0.320961285183    -0.901075506892
    H            0.892272607177    -0.624970987485    -0.387616103426
    C            0.929063749739     0.383328902046    -2.990057519064
    H           -0.015297298849     1.908530016795    -1.816226703763
    H            1.620785013525     1.559899833964    -1.335610576496
    C            1.452775489748     1.310559752671    -4.081500323574
    H            0.001533715184    -0.075136389765    -3.319936351428
    H            1.633140237246    -0.429890187710    -2.838680967864
    H            0.753786518070     2.116418680770    -4.279778643785
    H            1.609243272039     0.773544759092    -5.009873715570
    H            2.398862048360     1.758091485897    -3.795168759642

  Mulliken Charges: (a.u.)
   Center  Symbol    Alpha    Beta     Spin     Total
       1     O     4.19722  4.19722  0.00000 -0.39444
       2     C     2.80967  2.80967  0.00000  0.38067
       3     C     3.13635  3.13635  0.00000 -0.27270
       4     O     4.15537  4.15537  0.00000 -0.31074
       5     H     0.44729  0.44729  0.00000  0.10541
       6     H     0.44530  0.44530  0.00000  0.10940
       7     H     0.43921  0.43921  0.00000  0.12157
       8     C     2.97883  2.97883  0.00000  0.04235
       9     C     3.10219  3.10219  0.00000 -0.20438
      10     H     0.45405  0.45405  0.00000  0.09191
      11     H     0.45179  0.45179  0.00000  0.09642
      12     C     3.09373  3.09373  0.00000 -0.18745
      13     H     0.43464  0.43464  0.00000  0.13071
      14     H     0.44634  0.44634  0.00000  0.10732
      15     C     3.08273  3.08273  0.00000 -0.16545
      16     H     0.45560  0.45560  0.00000  0.08880
      17     H     0.45608  0.45608  0.00000  0.08784
      18     C     3.15083  3.15083  0.00000 -0.30166
      19     H     0.45166  0.45166  0.00000  0.09668
      20     H     0.45283  0.45283  0.00000  0.09433
      21     H     0.45523  0.45523  0.00000  0.08954
      22     H     0.44755  0.44755  0.00000  0.10491
      23     H     0.45552  0.45552  0.00000  0.08896

   Total alpha = 36.00000, Total beta = 36.00000, Total charge =  0.00000

*** Psi4 exiting successfully. Buy a developer a beer!
