  ==> Input File <==

--------------------------------------------------------------------------
set {
	reference rhf
	basis 6-31G*
}

set_num_threads( 4 )
memory 2 gb

molecule MOL {
0 1

H	 1.244419	 -2.264759	 -0.354766
C	 0.280727	 -1.787228	 -0.427687
O	 0.464886	 -0.454746	 -0.000158
H	 -0.425326	 -2.306582	 0.209327
H	 -0.059689	 -1.822928	 -1.455746
C	 -0.590998	 0.343045	 0.000118
O	 -1.699443	 -0.054298	 0.000227
H	 -0.340329	 1.404368	 0.000207

	symmetry c1
}
set optking {
	frozen_dihedral = ("
		2 3 6 7
	")
}

ee = optimize('scf')
oeprop('DIPOLE', 'QUADRUPOLE', 'MULLIKEN_CHARGES')
f=open( 'psi4out.xyz', 'w' )
f.write( "8  " )
f.write( str(ee) + "\n" )
f.write( MOL.save_string_xyz() )
f.close()
--------------------------------------------------------------------------

    Molecular point group: c1
  Charge       = 0
  Multiplicity = 1
  Basis Set: 6-31G*
  Basis Set:
  @DF-RHF Final Energy:  -227.78532142606258
    Total Energy =                       -227.7853214260624100
    Molecular point group: c1
  Basis Set: 6-31G*
  Basis Set:
  Basis Set: 6-31G*
  Basis Set:
  @DF-RHF Final Energy:  -227.78239168027119
    Total Energy =                       -227.7823916802713029
  Basis Set: 6-31G*
  Basis Set:
  Basis Set: 6-31G*
  Basis Set:
  @DF-RHF Final Energy:  -227.78536914978815
    Total Energy =                       -227.7853691497881243
  Basis Set: 6-31G*
  Basis Set:
  Basis Set: 6-31G*
  Basis Set:
  @DF-RHF Final Energy:  -227.78664090369088
    Total Energy =                       -227.7866409036909090
  Basis Set: 6-31G*
  Basis Set:
  Basis Set: 6-31G*
  Basis Set:
  @DF-RHF Final Energy:  -227.78664897090866
    Total Energy =                       -227.7866489709086295
  Basis Set: 6-31G*
  Basis Set:
  Charge       = 0
  Multiplicity = 1
  Basis Set: 6-31G*
  Basis Set:

    Orbital Energies (a.u.)
    -----------------------

    Doubly Occupied:

       1A    -20.614983     2A    -20.560909     3A    -11.380802
       4A    -11.290023     5A     -1.478224     6A     -1.376882
       7A     -0.997205     8A     -0.820121     9A     -0.744117
      10A     -0.681418    11A     -0.678818    12A     -0.602980
      13A     -0.557959    14A     -0.532205    15A     -0.465755
      16A     -0.457802

  @DF-RHF Final Energy:  -227.78665002641634

   => Energetics <=

    Nuclear Repulsion Energy =            123.5695299067924253
    One-Electron Energy =                -556.2319568361913298
    Two-Electron Energy =                 204.8757769029824658
    DFT Exchange-Correlation Energy =       0.0000000000000000
    Empirical Dispersion Energy =           0.0000000000000000
    PCM Polarization Energy =               0.0000000000000000
    EFP Energy =                            0.0000000000000000
    Total Energy =                       -227.7866500264164529
    Molecular point group: c1
  Basis Set: 6-31G*
  Basis Set:

  -Total Gradient:
     Atom            X                  Y                   Z
    ------   -----------------  -----------------  -----------------
       1       -0.000000104334    -0.000022132676    -0.000018264616
       2        0.001422709869     0.001549639562    -0.005070798475
       3       -0.002267027019    -0.002273523734     0.011428775986
       4        0.000002744473     0.000000294886    -0.000018317248
       5       -0.000001893742    -0.000002693174    -0.000008782108
       6        0.001119935137     0.000760349968    -0.013583398428
       7       -0.000301775628     0.000023664766     0.007272998294
       8        0.000025411242    -0.000035599597    -0.000002213406

  **** Optimization is complete! (in 6 steps) ****
    Final optimized geometry and variables:
    Molecular point group: c1

    Geometry (in Angstrom), charge = 0, multiplicity = 1:

    H            1.661809891109    -1.733256706316    -0.266120157890
    C            0.679318041219    -1.289478375257    -0.283449911517
    O            0.849706410788     0.049821584230     0.154874729815
    H            0.013837495421    -1.826159423463     0.376586890880
    H            0.279044445845    -1.305139562431    -1.287409523756
    C           -0.207222471946     0.836895056537     0.100525874136
    O           -1.333086582917     0.478045085592     0.045494791368
    H            0.095741213993     1.875760619821     0.174978260255

  Mulliken Charges: (a.u.)
   Center  Symbol    Alpha    Beta     Spin     Total
       1     H     0.40552  0.40552  0.00000  0.18896
       2     C     3.09556  3.09556  0.00000 -0.19112
       3     O     4.28583  4.28583  0.00000 -0.57167
       4     H     0.40457  0.40457  0.00000  0.19086
       5     H     0.40977  0.40977  0.00000  0.18045
       6     C     2.72940  2.72940  0.00000  0.54120
       7     O     4.25871  4.25871  0.00000 -0.51742
       8     H     0.41063  0.41063  0.00000  0.17873

   Total alpha = 16.00000, Total beta = 16.00000, Total charge = -0.00000
