                              Psi4 1.0.54 Driver

  ==> Input File <==

--------------------------------------------------------------------------
set {
	reference rhf
	basis cc-pvtz
}

set_num_threads( 4 )
memory 2 gb

molecule MOL {
0 1

H	 -2.071965	 1.183497	 0.348795
C	 -2.006569	 0.211706	 -0.129732
O	 -0.775228	 0.000056	 -0.739966
H	 -2.752439	 0.170807	 -0.910858
H	 -2.243794	 -0.552053	 0.603772
C	 0.406133	 -0.000384	 0.036994
C	 1.526415	 -0.003194	 -0.997339
C	 0.498772	 1.259027	 0.900673
C	 0.495883	 -1.257378	 0.904465
H	 1.452279	 0.872071	 -1.630204
H	 1.451276	 -0.881020	 -1.626529
H	 2.497919	 -0.002741	 -0.517601
H	 0.368981	 2.144239	 0.289753
H	 1.470064	 1.313479	 1.377660
H	 -0.248448	 1.271586	 1.684297
H	 0.363971	 -2.144195	 0.296316
H	 1.467114	 -1.312636	 1.381470
H	 -0.251246	 -1.265768	 1.688235

	symmetry c1
}
set optking {
	frozen_dihedral = ("
		2 3 6 7
	")
}

ee,wfn = optimize('scf', return_wfn=True)
oeprop( wfn, 'DIPOLE', 'QUADRUPOLE', 'MULLIKEN_CHARGES')
f=open( 'psi4out.xyz', 'w' )
f.write( "18  " )
f.write( str(ee) + "\n" )
f.write( MOL.save_string_xyz() )
f.close()
--------------------------------------------------------------------------

    Molecular point group: c1
  Charge       = 0
  Multiplicity = 1
  Basis Set: CC-PVTZ
  Basis Set:
  @DF-RHF Final Energy:  -271.27645024526606
    Total Energy =                       -271.2764502452661191
    Molecular point group: c1
  Basis Set: CC-PVTZ
  Basis Set:
  Basis Set: CC-PVTZ
  Basis Set:
  @DF-RHF Final Energy:  -271.27650602918584
    Total Energy =                       -271.2765060291857822
  Basis Set: CC-PVTZ
  Basis Set:
  Basis Set: CC-PVTZ
  Basis Set:
  @DF-RHF Final Energy:  -271.27663870985481
    Total Energy =                       -271.2766387098552627
  Basis Set: CC-PVTZ
  Basis Set:
  Basis Set: CC-PVTZ
  Basis Set:
  @DF-RHF Final Energy:  -271.27663611899749
    Total Energy =                       -271.2766361189975441
  Basis Set: CC-PVTZ
  Basis Set:
  Basis Set: CC-PVTZ
  Basis Set:
  @DF-RHF Final Energy:  -271.27665737896405
    Total Energy =                       -271.2766573789639324
  Basis Set: CC-PVTZ
  Basis Set:
  Basis Set: CC-PVTZ
  Basis Set:
  @DF-RHF Final Energy:  -271.27665873383711
    Total Energy =                       -271.2766587338373938
  Basis Set: CC-PVTZ
  Basis Set:
  Charge       = 0
  Multiplicity = 1
  Basis Set: CC-PVTZ
  Basis Set:

    Orbital Energies (a.u.)
    -----------------------

    Doubly Occupied:

       1A    -20.540478     2A    -11.280134     3A    -11.258272
       4A    -11.208305     5A    -11.205940     6A    -11.201855
       7A     -1.373536     8A     -1.074643     9A     -0.947410
      10A     -0.940277    11A     -0.913137    12A     -0.753465
      13A     -0.656802    14A     -0.646919    15A     -0.639602
      16A     -0.592966    17A     -0.575442    18A     -0.553227
      19A     -0.534584    20A     -0.525220    21A     -0.515190
      22A     -0.489694    23A     -0.487433    24A     -0.441078
      25A     -0.406940

  @DF-RHF Final Energy:  -271.27665963629221

   => Energetics <=

    Nuclear Repulsion Energy =            272.6990510118449151
    One-Electron Energy =                -908.4263227287201516
    Two-Electron Energy =                 364.4506120805834257
    DFT Exchange-Correlation Energy =       0.0000000000000000
    Empirical Dispersion Energy =           0.0000000000000000
    PCM Polarization Energy =               0.0000000000000000
    EFP Energy =                            0.0000000000000000
    Total Energy =                       -271.2766596362918676
    Molecular point group: c1
  Basis Set: CC-PVTZ
  Basis Set:

  -Total Gradient:
     Atom            X                  Y                   Z
    ------   -----------------  -----------------  -----------------
       1        0.000000068090    -0.000004645013    -0.000001823891
       2        0.000073896703     0.000625462680    -0.000088632373
       3       -0.000068417053    -0.000802763773     0.000155928236
       4        0.000005070024     0.000004702417     0.000007310662
       5       -0.000009637684     0.000002369208     0.000002276123
       6        0.000047607903    -0.000334200105    -0.000056979347
       7        0.000000664333     0.000518018611    -0.000014183811
       8       -0.000019383242    -0.000005855935    -0.000009050264
       9       -0.000016381657    -0.000006386125     0.000006595575
      10       -0.000004602340    -0.000001882007     0.000010235720
      11        0.000009036681    -0.000001476882    -0.000016731671
      12       -0.000002322786    -0.000006448003    -0.000001312953
      13       -0.000004756282     0.000011135425    -0.000004857278
      14        0.000006988902    -0.000004943827     0.000000251050
      15       -0.000010303240     0.000001130671     0.000008876652
      16        0.000005166119     0.000005741304     0.000001492078
      17       -0.000009815127     0.000005106956    -0.000004774665
      18       -0.000002879343    -0.000005065599     0.000005380159

  **** Optimization is complete! (in 7 steps) ****
    Final optimized geometry and variables:
    Molecular point group: c1

    Geometry (in Angstrom), charge = 0, multiplicity = 1:

    H           -2.114772734971     1.186777988381     0.237494070472
    C           -2.007168061103     0.172613221124    -0.132876753243
    O           -0.774445847365    -0.039228265453    -0.740439621551
    H           -2.761081048065     0.007682684105    -0.889576862834
    H           -2.194723311308    -0.515599567948     0.685455738196
    C            0.404925015782    -0.034369279816     0.040257808725
    C            1.531125496079    -0.039018831532    -0.987552526834
    C            0.502663661518     1.220865646661     0.909034603091
    C            0.477655640000    -1.295332503561     0.903294993515
    H            1.480347619046     0.850740402368    -1.602271030567
    H            1.440646666324    -0.901591148410    -1.635523116947
    H            2.499523905658    -0.070861163641    -0.502453632267
    H            0.377735460204     2.111670272851     0.304900228046
    H            1.475630469384     1.266699298403     1.382967986917
    H           -0.242796814284     1.232449069722     1.694514834490
    H            0.378848912440    -2.177894209992     0.283414020063
    H            1.428554053398    -1.344918169921     1.420762769721
    H           -0.302605081906    -1.317366691445     1.653947745752

  Mulliken Charges: (a.u.)
   Center  Symbol    Alpha    Beta     Spin     Total
       1     H     0.46789  0.46789  0.00000  0.06423
       2     C     3.04445  3.04445  0.00000 -0.08890
       3     O     4.19061  4.19061  0.00000 -0.38122
       4     H     0.44103  0.44103  0.00000  0.11793
       5     H     0.47034  0.47034  0.00000  0.05931
       6     C     2.87390  2.87390  0.00000  0.25220
       7     C     3.14145  3.14145  0.00000 -0.28289
       8     C     3.16891  3.16891  0.00000 -0.33781
       9     C     3.15846  3.15846  0.00000 -0.31692
      10     H     0.44971  0.44971  0.00000  0.10057
      11     H     0.44810  0.44810  0.00000  0.10381
      12     H     0.45934  0.45934  0.00000  0.08133
      13     H     0.44480  0.44480  0.00000  0.11039
      14     H     0.44659  0.44659  0.00000  0.10683
      15     H     0.44816  0.44816  0.00000  0.10367
      16     H     0.44644  0.44644  0.00000  0.10712
      17     H     0.45032  0.45032  0.00000  0.09937
      18     H     0.44951  0.44951  0.00000  0.10098

   Total alpha = 25.00000, Total beta = 25.00000, Total charge = -0.00000

*** Psi4 exiting successfully. Buy a developer a beer!
