  ==> Input File <==

--------------------------------------------------------------------------
set {
	reference rhf
	basis cc-pvtz
}

set_num_threads( 4 )
memory 2 gb

molecule MOL {
0 1

H	 -1.940810	 1.756629	 1.094432
C	 -2.164397	 0.700898	 1.169665
C	 -0.888387	 -0.125095	 1.218114
H	 -2.767448	 0.433730	 0.312247
H	 -2.751617	 0.538141	 2.065537
C	 0.000000	 0.039916	 0.000014
H	 -1.116491	 -1.182831	 1.318410
H	 -0.297026	 0.128530	 2.093819
C	 1.286532	 -0.763243	 0.000268
O	 -0.294381	 0.755676	 -0.900767
C	 2.547023	 0.087626	 -0.000114
H	 1.264245	 -1.421103	 -0.864380
H	 1.264290	 -1.420353	 0.865489
H	 2.584452	 0.725630	 -0.872909
H	 3.427035	 -0.544422	 0.000125
H	 2.584484	 0.726356	 0.872143

	symmetry c1
}
set optking {
	frozen_dihedral = ("
		3 6 9 12
	")
}

ee = optimize('scf')
oeprop('DIPOLE', 'QUADRUPOLE', 'MULLIKEN_CHARGES')
f=open( 'psi4out.xyz', 'w' )
f.write( "16  " )
f.write( str(ee) + "\n" )
f.write( MOL.save_string_xyz() )
f.close()
--------------------------------------------------------------------------

    Molecular point group: c1
  Charge       = 0
  Multiplicity = 1
  Basis Set: CC-PVTZ
  Basis Set:
  @DF-RHF Final Energy:  -270.12929359488891
    Total Energy =                       -270.1292935948889635
    Molecular point group: c1
  Basis Set: CC-PVTZ
  Basis Set:
  Basis Set: CC-PVTZ
  Basis Set:
  @DF-RHF Final Energy:  -270.12996890196564
    Total Energy =                       -270.1299689019657535
  Basis Set: CC-PVTZ
  Basis Set:
  Basis Set: CC-PVTZ
  Basis Set:
  @DF-RHF Final Energy:  -270.12817015488696
    Total Energy =                       -270.1281701548869023
  Basis Set: CC-PVTZ
  Basis Set:
  Basis Set: CC-PVTZ
  Basis Set:
  @DF-RHF Final Energy:  -270.13003130128914
    Total Energy =                       -270.1300313012893071
  Basis Set: CC-PVTZ
  Basis Set:
  Charge       = 0
  Multiplicity = 1
  Basis Set: CC-PVTZ
  Basis Set:

    Orbital Energies (a.u.)
    -----------------------

    Doubly Occupied:

       1A    -20.537274     2A    -11.317703     3A    -11.233220
       4A    -11.230552     5A    -11.219939     6A    -11.211847
       7A     -1.398168     8A     -1.070172     9A     -1.037976
      10A     -0.914665    11A     -0.851814    12A     -0.727128
      13A     -0.667592    14A     -0.644134    15A     -0.624789
      16A     -0.602901    17A     -0.566669    18A     -0.537584
      19A     -0.529683    20A     -0.512814    21A     -0.503177
      22A     -0.497909    23A     -0.480093    24A     -0.398543

  @DF-RHF Final Energy:  -270.13005308423266

   => Energetics <=

    Nuclear Repulsion Energy =            240.5775505219178854
    One-Electron Energy =                -842.7825077708935169
    Two-Electron Energy =                 332.0749041647430886
    DFT Exchange-Correlation Energy =       0.0000000000000000
    Empirical Dispersion Energy =           0.0000000000000000
    PCM Polarization Energy =               0.0000000000000000
    EFP Energy =                            0.0000000000000000
    Total Energy =                       -270.1300530842325998
    Molecular point group: c1
  Basis Set: CC-PVTZ
  Basis Set:

  -Total Gradient:
     Atom            X                  Y                   Z
    ------   -----------------  -----------------  -----------------
       1        0.000006811798     0.000011640111     0.000004532366
       2       -0.000002672672    -0.000029413478    -0.000063859425
       3        0.000154636266     0.000293627927     0.000311094015
       4        0.000000091148     0.000004508915     0.000004508373
       5        0.000014978737    -0.000004909009     0.000005937168
       6       -0.000293622030    -0.000261176540    -0.000325978256
       7       -0.000000140198    -0.000029538930    -0.000036616710
       8       -0.000018280344    -0.000010836486    -0.000025804166
       9       -0.000030560175    -0.000143086805     0.000347793294
      10        0.000130435006    -0.000113625356     0.000078834822
      11       -0.000160679848    -0.000110852778     0.000012710044
      12        0.000151842193     0.000285407985    -0.000285978104
      13       -0.000028715281     0.000055113269    -0.000010195291
      14        0.000027339902     0.000023233490    -0.000028246417
      15        0.000021005302     0.000010632685    -0.000003757163
      16        0.000027530198     0.000019274999     0.000015025451

  **** Optimization is complete! (in 5 steps) ****
    Final optimized geometry and variables:
    Molecular point group: c1

    Geometry (in Angstrom), charge = 0, multiplicity = 1:

    H           -2.002729910237     1.643393112579     0.851350032657
    C           -2.252946884909     0.592071895697     0.902002199215
    C           -0.998484700161    -0.263645238587     0.964331614489
    H           -2.840519716653     0.354721249790     0.025246358678
    H           -2.865734035112     0.427570017302     1.780246646711
    C           -0.075793390772    -0.102509107163    -0.223818327636
    H           -1.248051540159    -1.319612678449     1.038307263316
    H           -0.416959126108    -0.043292872536     1.856639237739
    C            1.206114559456    -0.918626947376    -0.220330582077
    O           -0.325341927689     0.629669984709    -1.125428306241
    C            2.444420481143    -0.024214512674    -0.277267241290
    H            1.177159485185    -1.553116487409    -1.099567716728
    H            1.243328397773    -1.563650542316     0.649087837148
    H            2.412786832960     0.610064716156    -1.152044413998
    H            3.344360238836    -0.625168007378    -0.318878924014
    H            2.510174307987     0.612062071526     0.598639135015

  Mulliken Charges: (a.u.)
   Center  Symbol    Alpha    Beta     Spin     Total
       1     H     0.44790  0.44790  0.00000  0.10419
       2     C     3.14104  3.14104  0.00000 -0.28207
       3     C     3.10302  3.10302  0.00000 -0.20605
       4     H     0.44757  0.44757  0.00000  0.10486
       5     H     0.45080  0.45080  0.00000  0.09840
       6     C     2.86577  2.86577  0.00000  0.26847
       7     H     0.44506  0.44506  0.00000  0.10987
       8     H     0.44564  0.44564  0.00000  0.10872
       9     C     3.09490  3.09490  0.00000 -0.18980
      10     O     4.17756  4.17756  0.00000 -0.35512
      11     C     3.14512  3.14512  0.00000 -0.29023
      12     H     0.44297  0.44297  0.00000  0.11405
      13     H     0.44784  0.44784  0.00000  0.10431
      14     H     0.44054  0.44054  0.00000  0.11892
      15     H     0.44856  0.44856  0.00000  0.10289
      16     H     0.45571  0.45571  0.00000  0.08859

   Total alpha = 24.00000, Total beta = 24.00000, Total charge =  0.00000
