  ==> Input File <==

--------------------------------------------------------------------------
set {
	reference rhf
	basis 6-31G*
}

set_num_threads( 1 )
memory 2 gb

molecule MOL {
0 1

O	 0.598798	 1.319843	 0.278479
C	 0.486307	 0.169203	 0.000779
C	 1.608116	 -0.841643	 0.000302
O	 -0.663426	 -0.387303	 -0.354214
C	 2.990107	 -0.200498	 -0.000684
H	 1.468623	 -1.481519	 -0.865924
H	 1.469683	 -1.481289	 0.866878
H	 3.129736	 0.423364	 -0.875135
H	 3.757882	 -0.966877	 -0.001197
H	 3.130964	 0.423383	 0.873533
C	 -1.813730	 0.450664	 -0.399090
C	 -2.984526	 -0.408353	 -0.827619
H	 -1.634513	 1.258360	 -1.095576
H	 -1.972627	 0.884080	 0.578915
H	 -2.807551	 -0.839391	 -1.806417
H	 -3.886332	 0.193415	 -0.875263
H	 -3.147645	 -1.215730	 -0.122785

	symmetry c1
}
set optking {
	frozen_dihedral = ("
		2 4 11 13,
		11 4 2 3
	")
}

ee = energy('scf')
oeprop('DIPOLE', 'QUADRUPOLE', 'MULLIKEN_CHARGES')
f=open( 'psi4out.xyz', 'w' )
f.write( "17  " )
f.write( str(ee) + "\n" )
f.write( MOL.save_string_xyz() )
f.close()
--------------------------------------------------------------------------

    Molecular point group: c1

    Geometry (in Angstrom), charge = 0, multiplicity = 1:

       Center              X                  Y                   Z               Mass
    ------------   -----------------  -----------------  -----------------  -----------------
           O          0.580124772563     1.299030985585     0.467334245406    15.994914619560
           C          0.467633772563     0.148390985585     0.189634245406    12.000000000000
           C          1.589442772563    -0.862455014415     0.189157245406    12.000000000000
           O         -0.682099227437    -0.408115014415    -0.165358754594    15.994914619560
           C          2.971433772563    -0.221310014415     0.188171245406    12.000000000000
           H          1.449949772563    -1.502331014415    -0.677068754594     1.007825032070
           H          1.451009772563    -1.502101014415     1.055733245406     1.007825032070
           H          3.111062772563     0.402551985585    -0.686279754594     1.007825032070
           H          3.739208772563    -0.987689014415     0.187658245406     1.007825032070
           H          3.112290772563     0.402570985585     1.062388245406     1.007825032070
           C         -1.832403227437     0.429851985585    -0.210234754594    12.000000000000
           C         -3.003199227437    -0.429165014415    -0.638763754594    12.000000000000
           H         -1.653186227437     1.237547985585    -0.906720754594     1.007825032070
           H         -1.991300227437     0.863267985585     0.767770245406     1.007825032070
           H         -2.826224227437    -0.860203014415    -1.617561754594     1.007825032070
           H         -3.905005227437     0.172602985585    -0.686407754594     1.007825032070
           H         -3.166318227437    -1.236542014415     0.066070245406     1.007825032070

  Charge       = 0
  Multiplicity = 1
  Basis Set: 6-31G*
  Basis Set:

    Orbital Energies (a.u.)
    -----------------------

    Doubly Occupied:

       1A    -20.601198     2A    -20.543981     3A    -11.371274
       4A    -11.284756     5A    -11.237292     6A    -11.222343
       7A    -11.216506     8A     -1.467581     9A     -1.361813
      10A     -1.070133    11A     -1.031862    12A     -0.910811
      13A     -0.847636    14A     -0.773120    15A     -0.695221
      16A     -0.689344    17A     -0.664576    18A     -0.628686
      19A     -0.583392    20A     -0.572641    21A     -0.558092
      22A     -0.524228    23A     -0.521588    24A     -0.512752
      25A     -0.504561    26A     -0.492120    27A     -0.452605
      28A     -0.435648

  @DF-RHF Final Energy:  -344.91165258578133

   => Energetics <=

    Nuclear Repulsion Energy =            314.7058259646477154
    One-Electron Energy =               -1093.6835204121730385
    Two-Electron Energy =                 434.0660418617430878
    DFT Exchange-Correlation Energy =       0.0000000000000000
    Empirical Dispersion Energy =           0.0000000000000000
    PCM Polarization Energy =               0.0000000000000000
    EFP Energy =                            0.0000000000000000
    Total Energy =                       -344.9116525857822353

  Mulliken Charges: (a.u.)
   Center  Symbol    Alpha    Beta     Spin     Total
       1     O     4.28636  4.28636  0.00000 -0.57273
       2     C     2.60503  2.60503  0.00000  0.78994
       3     C     3.20583  3.20583  0.00000 -0.41166
       4     O     4.31306  4.31306  0.00000 -0.62613
       5     C     3.23986  3.23986  0.00000 -0.47973
       6     H     0.40136  0.40136  0.00000  0.19729
       7     H     0.39986  0.39986  0.00000  0.20028
       8     H     0.41275  0.41275  0.00000  0.17450
       9     H     0.41771  0.41771  0.00000  0.16458
      10     H     0.40684  0.40684  0.00000  0.18632
      11     C     3.00235  3.00235  0.00000 -0.00470
      12     C     3.24844  3.24844  0.00000 -0.49687
      13     H     0.41014  0.41014  0.00000  0.17971
      14     H     0.41037  0.41037  0.00000  0.17926
      15     H     0.41190  0.41190  0.00000  0.17621
      16     H     0.41629  0.41629  0.00000  0.16743
      17     H     0.41185  0.41185  0.00000  0.17630

   Total alpha = 28.00000, Total beta = 28.00000, Total charge =  0.00000
