                              Psi4 1.0.54 Driver

  ==> Input File <==

--------------------------------------------------------------------------
set {
	reference rhf
	basis cc-pvtz
}

set_num_threads( 4 )
memory 2 gb

molecule MOL {
0 1

H	 -3.258660	 -0.290394	 1.471450
C	 -3.307964	 -0.275695	 0.374072
C	 -2.653809	 0.914422	 -0.273689
O	 -3.855140	 -1.148880	 -0.205112
C	 -2.672623	 0.841595	 -1.803400
H	 -3.136512	 1.812622	 0.089036
H	 -1.622058	 0.926989	 0.070747
C	 -4.071331	 0.958104	 -2.405252
H	 -2.045614	 1.636594	 -2.192212
H	 -2.212917	 -0.089772	 -2.124991
C	 -4.072898	 0.894842	 -3.930302
H	 -4.519940	 1.893578	 -2.081611
H	 -4.707644	 0.168884	 -2.013250
C	 -5.471875	 1.023717	 -4.529887
H	 -3.429388	 1.679649	 -4.315423
H	 -3.632285	 -0.046698	 -4.250711
C	 -5.533558	 0.884202	 -6.051936
H	 -5.899023	 1.981308	 -4.241188
H	 -6.109866	 0.263182	 -4.088460
C	 -4.838125	 2.002511	 -6.824491
H	 -6.576805	 0.852783	 -6.350331
H	 -5.107758	 -0.072890	 -6.341720
H	 -5.239204	 2.972988	 -6.550072
H	 -3.770851	 2.021487	 -6.639422
H	 -4.980152	 1.877689	 -7.891830

	symmetry c1
}
set optking {
	frozen_dihedral = ("
		6 3 2 4
	")
}

ee,wfn = optimize('scf', return_wfn=True)
oeprop( wfn, 'DIPOLE', 'QUADRUPOLE', 'MULLIKEN_CHARGES')
f=open( 'psi4out.xyz', 'w' )
f.write( "25  " )
f.write( str(ee) + "\n" )
f.write( MOL.save_string_xyz() )
f.close()
--------------------------------------------------------------------------

    Molecular point group: c1
  Charge       = 0
  Multiplicity = 1
  Basis Set: CC-PVTZ
  Basis Set:
  @DF-RHF Final Energy:  -387.25945364992384
    Total Energy =                       -387.2594536499238984
    Molecular point group: c1
  Basis Set: CC-PVTZ
  Basis Set:
  Basis Set: CC-PVTZ
  Basis Set:
  @DF-RHF Final Energy:  -387.25495626132175
    Total Energy =                       -387.2549562613220360
  Basis Set: CC-PVTZ
  Basis Set:
  Basis Set: CC-PVTZ
  Basis Set:
  @DF-RHF Final Energy:  -387.26088091106226
    Total Energy =                       -387.2608809110618040
  Basis Set: CC-PVTZ
  Basis Set:
  Basis Set: CC-PVTZ
  Basis Set:
  @DF-RHF Final Energy:  -387.26024020301531
    Total Energy =                       -387.2602402030150870
  Basis Set: CC-PVTZ
  Basis Set:
  Basis Set: CC-PVTZ
  Basis Set:
  @DF-RHF Final Energy:  -387.26099780258011
    Total Energy =                       -387.2609978025798227
  Basis Set: CC-PVTZ
  Basis Set:
  Basis Set: CC-PVTZ
  Basis Set:
  @DF-RHF Final Energy:  -387.26106831552346
    Total Energy =                       -387.2610683155236302
  Basis Set: CC-PVTZ
  Basis Set:
  Charge       = 0
  Multiplicity = 1
  Basis Set: CC-PVTZ
  Basis Set:

    Orbital Energies (a.u.)
    -----------------------

    Doubly Occupied:

       1A    -20.553233     2A    -11.323423     3A    -11.236592
       4A    -11.220628     5A    -11.211025     6A    -11.210460
       7A    -11.209181     8A    -11.208560     9A    -11.204552
      10A     -1.408918    11A     -1.096341    12A     -1.064995
      13A     -1.010786    14A     -0.942589    15A     -0.876690
      16A     -0.815858    17A     -0.776803    18A     -0.765234
      19A     -0.689264    20A     -0.650900    21A     -0.631225
      22A     -0.622697    23A     -0.607127    24A     -0.589787
      25A     -0.562390    26A     -0.548132    27A     -0.536020
      28A     -0.518433    29A     -0.503799    30A     -0.498012
      31A     -0.480182    32A     -0.472746    33A     -0.458198
      34A     -0.452787    35A     -0.437622    36A     -0.412721

  @DF-RHF Final Energy:  -387.26106820842864

   => Energetics <=

    Nuclear Repulsion Energy =            444.2112599941359008
    One-Electron Energy =               -1405.3288419335585786
    Two-Electron Energy =                 573.8565137309939246
    DFT Exchange-Correlation Energy =       0.0000000000000000
    Empirical Dispersion Energy =           0.0000000000000000
    PCM Polarization Energy =               0.0000000000000000
    EFP Energy =                            0.0000000000000000
    Total Energy =                       -387.2610682084288101
    Molecular point group: c1
  Basis Set: CC-PVTZ
  Basis Set:

  -Total Gradient:
     Atom            X                  Y                   Z
    ------   -----------------  -----------------  -----------------
       1        0.000016999752     0.000001543198    -0.000135761934
       2        0.001655943757    -0.000641714252     0.000004719558
       3        0.000275728464     0.000297794865     0.001124663892
       4       -0.001252900535     0.000477343695    -0.000054146223
       5       -0.000038275385     0.000002544234     0.000033340326
       6       -0.000690713952    -0.000140711073    -0.001022420012
       7        0.000016541200     0.000005432268     0.000023278718
       8       -0.000008878957    -0.000003567899     0.000053955555
       9       -0.000012221511     0.000007411747    -0.000018050294
      10        0.000043013015    -0.000030800290     0.000021062640
      11       -0.000012536755     0.000026603506    -0.000041347119
      12       -0.000018810955     0.000020800765    -0.000006185953
      13        0.000017863623     0.000016306707    -0.000012414368
      14        0.000014748291    -0.000073506242     0.000010125417
      15        0.000045184248     0.000066297000    -0.000055291944
      16       -0.000011522564    -0.000003651717     0.000016858929
      17       -0.000080917476     0.000031502045    -0.000007583436
      18       -0.000015468052    -0.000009609716    -0.000004059384
      19        0.000002968581    -0.000039327054     0.000013456596
      20        0.000022454784    -0.000017263707     0.000036618274
      21       -0.000006676254     0.000023056343    -0.000011918284
      22       -0.000022115969    -0.000012042225    -0.000007940370
      23       -0.000011336175    -0.000004543990    -0.000000805932
      24        0.000047021015     0.000012277639     0.000059626664
      25        0.000023907810    -0.000012175846    -0.000019781315

  **** Optimization is complete! (in 7 steps) ****
    Final optimized geometry and variables:
    Molecular point group: c1

    Geometry (in Angstrom), charge = 0, multiplicity = 1:

    H            0.535000472924    -1.421584420834     4.308836674896
    C            0.583225373620    -1.326572867915     3.216967925319
    C            1.009343002128     0.032513173992     2.728771282525
    O            0.307447356544    -2.249114361671     2.530864921284
    C            1.166143993590     0.169173764564     1.217044019885
    H            0.279235228044     0.745231353915     3.108851785587
    H            1.939443824655     0.265417588712     3.242106405166
    C           -0.158000543903     0.251058684381     0.459917225195
    H            1.745418130518     1.065015843183     1.015517696177
    H            1.746481772406    -0.667957709006     0.845453806304
    C            0.029640221036     0.381016664759    -1.049290631585
    H           -0.723261350811     1.106599101746     0.824455106298
    H           -0.751363559016    -0.629864422207     0.673897916286
    C           -1.293408233954     0.478468454180    -1.806373729858
    H            0.642126838965     1.253376302376    -1.256990680566
    H            0.586481528024    -0.478965591651    -1.413695443620
    C           -1.160575385154     0.522026199868    -3.329625986456
    H           -1.835798096898     1.359664119302    -1.470400419259
    H           -1.908814647256    -0.375877134965    -1.538895867516
    C           -0.467966273782     1.768840881612    -3.874580283916
    H           -2.154311368366     0.459535637223    -3.762516178162
    H           -0.627692302872    -0.362749433307    -3.667721309492
    H           -0.976495012440     2.670668980177    -3.548374937399
    H            0.563356937647     1.835034099571    -3.549539674304
    H           -0.467215451086     1.765340108969    -4.958679991530

  Mulliken Charges: (a.u.)
   Center  Symbol    Alpha    Beta     Spin     Total
       1     H     0.44931  0.44931  0.00000  0.10137
       2     C     2.91882  2.91882  0.00000  0.16235
       3     C     3.10675  3.10675  0.00000 -0.21350
       4     O     4.16778  4.16778  0.00000 -0.33555
       5     C     3.09082  3.09082  0.00000 -0.18165
       6     H     0.44539  0.44539  0.00000  0.10922
       7     H     0.43688  0.43688  0.00000  0.12625
       8     C     3.09088  3.09088  0.00000 -0.18177
       9     H     0.44647  0.44647  0.00000  0.10706
      10     H     0.44669  0.44669  0.00000  0.10661
      11     C     3.09375  3.09375  0.00000 -0.18750
      12     H     0.45810  0.45810  0.00000  0.08379
      13     H     0.44144  0.44144  0.00000  0.11713
      14     C     3.09484  3.09484  0.00000 -0.18969
      15     H     0.45433  0.45433  0.00000  0.09134
      16     H     0.45229  0.45229  0.00000  0.09541
      17     C     3.09046  3.09046  0.00000 -0.18092
      18     H     0.45539  0.45539  0.00000  0.08923
      19     H     0.44792  0.44792  0.00000  0.10417
      20     C     3.15282  3.15282  0.00000 -0.30564
      21     H     0.44869  0.44869  0.00000  0.10262
      22     H     0.45416  0.45416  0.00000  0.09168
      23     H     0.45550  0.45550  0.00000  0.08900
      24     H     0.45403  0.45403  0.00000  0.09195
      25     H     0.44648  0.44648  0.00000  0.10704

   Total alpha = 36.00000, Total beta = 36.00000, Total charge = -0.00000

*** Psi4 exiting successfully. Buy a developer a beer!
