  ==> Input File <==

--------------------------------------------------------------------------
set {
	reference rhf
	basis 6-31G*
}

set_num_threads( 4 )
memory 2 gb

molecule MOL {
0 1

H	 -2.946125	 1.693039	 1.139187
O	 -2.217733	 1.637110	 1.742653
C	 -1.022312	 1.729388	 1.024032
C	 -0.793441	 0.596080	 0.058728
H	 -0.227186	 1.746432	 1.760704
H	 -0.966896	 2.674477	 0.484809
C	 -1.530462	 -0.493172	 -0.025500
H	 0.053657	 0.721604	 -0.597893
H	 -1.092586	 -1.461565	 -0.186463
H	 -2.602122	 -0.450675	 0.050101

	symmetry c1
}
set optking {
	frozen_dihedral = ("
		3 4 7 9
	")
}

ee = optimize('scf')
oeprop('DIPOLE', 'QUADRUPOLE', 'MULLIKEN_CHARGES')
f=open( 'psi4out.xyz', 'w' )
f.write( "10  " )
f.write( str(ee) + "\n" )
f.write( MOL.save_string_xyz() )
f.close()
--------------------------------------------------------------------------

    Molecular point group: c1
  Charge       = 0
  Multiplicity = 1
  Basis Set: 6-31G*
  Basis Set:
  @DF-RHF Final Energy:  -191.87844828859528
    Total Energy =                       -191.8784482885954219
    Molecular point group: c1
  Basis Set: 6-31G*
  Basis Set:
  Basis Set: 6-31G*
  Basis Set:
  @DF-RHF Final Energy:  -191.89490920475262
    Total Energy =                       -191.8949092047526506
  Basis Set: 6-31G*
  Basis Set:
  Basis Set: 6-31G*
  Basis Set:
  @DF-RHF Final Energy:  -191.90149664362031
    Total Energy =                       -191.9014966436202201
  Basis Set: 6-31G*
  Basis Set:
  Basis Set: 6-31G*
  Basis Set:
  @DF-RHF Final Energy:  -191.90165478736992
    Total Energy =                       -191.9016547873699210
  Basis Set: 6-31G*
  Basis Set:
  Basis Set: 6-31G*
  Basis Set:
  @DF-RHF Final Energy:  -191.90166243402598
    Total Energy =                       -191.9016624340259227
  Basis Set: 6-31G*
  Basis Set:
  Charge       = 0
  Multiplicity = 1
  Basis Set: 6-31G*
  Basis Set:

    Orbital Energies (a.u.)
    -----------------------

    Doubly Occupied:

       1A    -20.561630     2A    -11.281675     3A    -11.231627
       4A    -11.218084     5A     -1.369940     6A     -1.058025
       7A     -0.928400     8A     -0.768325     9A     -0.688216
      10A     -0.656547    11A     -0.617117    12A     -0.572694
      13A     -0.537965    14A     -0.487621    15A     -0.449885
      16A     -0.356582

  @DF-RHF Final Energy:  -191.90166263729736

   => Energetics <=

    Nuclear Repulsion Energy =            119.0446587441272044
    One-Electron Energy =                -496.3239799753159787
    Two-Electron Energy =                 185.3776585938914536
    DFT Exchange-Correlation Energy =       0.0000000000000000
    Empirical Dispersion Energy =           0.0000000000000000
    PCM Polarization Energy =               0.0000000000000000
    EFP Energy =                            0.0000000000000000
    Total Energy =                       -191.9016626372973064
    Molecular point group: c1
  Basis Set: 6-31G*
  Basis Set:

  -Total Gradient:
     Atom            X                  Y                   Z
    ------   -----------------  -----------------  -----------------
       1       -0.000010519600     0.000003325157     0.000007791323
       2       -0.000009797429     0.000026444328    -0.000032153040
       3        0.013041630703    -0.008245207746     0.011082958327
       4       -0.019600751804     0.011814380791    -0.007617473709
       5        0.000006913279     0.000002533273    -0.000007142474
       6       -0.000026749709     0.000001359077     0.000003959056
       7        0.001814059142     0.000587065789    -0.028180686933
       8        0.000006795680     0.000093629425    -0.000025353189
       9        0.004762027512    -0.004276621131     0.024719935996
      10        0.000016392228    -0.000006908963     0.000048164641

  **** Optimization is complete! (in 6 steps) ****
    Final optimized geometry and variables:
    Molecular point group: c1

    Geometry (in Angstrom), charge = 0, multiplicity = 1:

    H           -1.505602512190     0.962099762535     0.374196054185
    O           -0.810333690182     0.745160428601     0.979898280834
    C            0.415164638914     0.790960851509     0.308725434408
    C            0.609834125612    -0.290476990944    -0.723874662866
    H            1.181476158291     0.636689202486     1.058466062260
    H            0.584503980540     1.779901611493    -0.115869168851
    C           -0.052208034854    -1.431001371609    -0.790989061463
    H            1.566603791005    -0.221055485086    -1.223187516077
    H            0.422588925764    -2.362679640514    -1.043534318805
    H           -0.971839198847    -1.541679611232    -0.240485937286

  Mulliken Charges: (a.u.)
   Center  Symbol    Alpha    Beta     Spin     Total
       1     H     0.27985  0.27985  0.00000  0.44030
       2     O     4.36660  4.36660  0.00000 -0.73320
       3     C     2.99997  2.99997  0.00000  0.00005
       4     C     3.09587  3.09587  0.00000 -0.19174
       5     H     0.40541  0.40541  0.00000  0.18918
       6     H     0.42672  0.42672  0.00000  0.14656
       7     C     3.19199  3.19199  0.00000 -0.38398
       8     H     0.41483  0.41483  0.00000  0.17033
       9     H     0.40811  0.40811  0.00000  0.18378
      10     H     0.41065  0.41065  0.00000  0.17871

   Total alpha = 16.00000, Total beta = 16.00000, Total charge = -0.00000
