  ==> Input File <==

--------------------------------------------------------------------------
set {
	reference rhf
	basis 6-31G*
}

set_num_threads( 4 )
memory 2 gb

molecule MOL {
0 1

O	 -0.682937	 1.318834	 -0.186099
C	 -0.860635	 0.152188	 -0.042321
C	 -2.173363	 -0.477127	 0.338347
O	 0.083258	 -0.765189	 -0.202595
H	 -2.477673	 -1.180929	 -0.427595
H	 -2.923125	 0.290956	 0.455536
H	 -2.058825	 -1.029004	 1.264191
C	 0.129700	 -1.857503	 0.712550
C	 -0.829399	 -2.962211	 0.309567
H	 -0.083367	 -1.496414	 1.707215
H	 1.153648	 -2.200300	 0.673578
H	 -0.716633	 -3.808928	 0.979704
H	 -1.855536	 -2.620788	 0.362861
H	 -0.622159	 -3.297485	 -0.700907

	symmetry c1
}
set optking {
	frozen_dihedral = ("
		8 4 2 1
	")
}

ee = optimize('scf')
oeprop('DIPOLE', 'QUADRUPOLE', 'MULLIKEN_CHARGES')
f=open( 'psi4out.xyz', 'w' )
f.write( "14  " )
f.write( str(ee) + "\n" )
f.write( MOL.save_string_xyz() )
f.close()
--------------------------------------------------------------------------

    Molecular point group: c1
  Charge       = 0
  Multiplicity = 1
  Basis Set: 6-31G*
  Basis Set:
  @DF-RHF Final Energy:  -305.83715615990218
    Total Energy =                       -305.8371561599020652
    Molecular point group: c1
  Basis Set: 6-31G*
  Basis Set:
  Basis Set: 6-31G*
  Basis Set:
  @DF-RHF Final Energy:  -305.85172021767380
    Total Energy =                       -305.8517202176738010
  Basis Set: 6-31G*
  Basis Set:
  Basis Set: 6-31G*
  Basis Set:
  @DF-RHF Final Energy:  -305.85374202565509
    Total Energy =                       -305.8537420256547534
  Basis Set: 6-31G*
  Basis Set:
  Basis Set: 6-31G*
  Basis Set:
  @DF-RHF Final Energy:  -305.85343827804678
    Total Energy =                       -305.8534382780467240
  Basis Set: 6-31G*
  Basis Set:
  @DF-RHF Final Energy:  -305.85567526578154
    Total Energy =                       -305.8556752657815991
  @DF-RHF Final Energy:  -305.85593814151093
    Total Energy =                       -305.8559381415109897
  @DF-RHF Final Energy:  -305.85605336713695
    Total Energy =                       -305.8560533671369512
  @DF-RHF Final Energy:  -305.85607144470657
    Total Energy =                       -305.8560714447066289
  Basis Set: 6-31G*
  Basis Set:
  @DF-RHF Final Energy:  -305.85607723775524
    Total Energy =                       -305.8560772377553008
  Basis Set: 6-31G*
  Basis Set:
  Basis Set: 6-31G*
  Basis Set:
  @DF-RHF Final Energy:  -305.85607898074545
    Total Energy =                       -305.8560789807456217
  Basis Set: 6-31G*
  Basis Set:
  Basis Set: 6-31G*
  Basis Set:
  @DF-RHF Final Energy:  -305.85608057739654
    Total Energy =                       -305.8560805773963693
  Basis Set: 6-31G*
  Basis Set:
  Charge       = 0
  Multiplicity = 1
  Basis Set: 6-31G*
  Basis Set:

    Orbital Energies (a.u.)
    -----------------------

    Doubly Occupied:

       1A    -20.593169     2A    -20.544977     3A    -11.377339
       4A    -11.301240     5A    -11.241575     6A    -11.231701
       7A     -1.459363     8A     -1.365428     9A     -1.049853
      10A     -1.016844    11A     -0.892424    12A     -0.777876
      13A     -0.699093    14A     -0.687111    15A     -0.654169
      16A     -0.619852    17A     -0.594837    18A     -0.584730
      19A     -0.562585    20A     -0.543469    21A     -0.526344
      22A     -0.488188    23A     -0.448114    24A     -0.435587

  @DF-RHF Final Energy:  -305.85608148588068

   => Energetics <=

    Nuclear Repulsion Energy =            246.8957020521820027
    One-Electron Energy =                -906.1118290252918541
    Two-Electron Energy =                 353.3600454872292858
    DFT Exchange-Correlation Energy =       0.0000000000000000
    Empirical Dispersion Energy =           0.0000000000000000
    PCM Polarization Energy =               0.0000000000000000
    EFP Energy =                            0.0000000000000000
    Total Energy =                       -305.8560814858805088
    Molecular point group: c1
  Basis Set: 6-31G*
  Basis Set:

  -Total Gradient:
     Atom            X                  Y                   Z
    ------   -----------------  -----------------  -----------------
       1        0.001042229448     0.000451187598     0.002482863801
       2       -0.000402041462     0.000036001650    -0.002845821361
       3       -0.000047536593     0.000032871841    -0.000036269752
       4       -0.002356116670    -0.001754543233    -0.000689062922
       5        0.000005667255     0.000013924147     0.000008791770
       6       -0.000000561545    -0.000000131084    -0.000017680757
       7       -0.000001308093    -0.000044095174    -0.000014483479
       8        0.001768013309     0.001271054417     0.001102516881
       9       -0.000049185195     0.000010024563    -0.000007720916
      10        0.000001702133     0.000006094216     0.000010145984
      11       -0.000004192611    -0.000002852467    -0.000006454631
      12        0.000005552234     0.000002153834     0.000007159068
      13        0.000030672035    -0.000024945785     0.000004543150
      14        0.000007105753     0.000003255476     0.000001473167

  **** Optimization is complete! (in 12 steps) ****
    Final optimized geometry and variables:
    Molecular point group: c1

    Geometry (in Angstrom), charge = 0, multiplicity = 1:

    O            0.158361765922     2.043997970998    -0.518597149230
    C           -0.177341983304     0.956706681578    -0.197027322506
    C           -1.561663515381     0.651542438108     0.329422467077
    O            0.660296266719    -0.076579344547    -0.357571515135
    H           -2.065607973930    -0.024286435678    -0.352790811498
    H           -2.115115303887     1.575788566880     0.396098255537
    H           -1.537843745973     0.180179958390     1.304304937308
    C            0.800111181799    -1.115715591662     0.598568650549
    C            0.141011835135    -2.400178491815     0.129892749317
    H            0.416092748766    -0.802608376294     1.561363040035
    H            1.865868987775    -1.258944649735     0.706962350899
    H            0.356476595247    -3.203627856618     0.827454739910
    H           -0.935543484098    -2.295989369408     0.056616634739
    H            0.523225132532    -2.680871386655    -0.844648019370

  Mulliken Charges: (a.u.)
   Center  Symbol    Alpha    Beta     Spin     Total
       1     O     4.25687  4.25687  0.00000 -0.51374
       2     C     2.62157  2.62157  0.00000  0.75686
       3     C     3.30225  3.30225  0.00000 -0.60450
       4     O     4.30722  4.30722  0.00000 -0.61444
       5     H     0.39973  0.39973  0.00000  0.20053
       6     H     0.39016  0.39016  0.00000  0.21968
       7     H     0.40627  0.40627  0.00000  0.18746
       8     C     3.00599  3.00599  0.00000 -0.01198
       9     C     3.24934  3.24934  0.00000 -0.49868
      10     H     0.41982  0.41982  0.00000  0.16036
      11     H     0.40212  0.40212  0.00000  0.19576
      12     H     0.41659  0.41659  0.00000  0.16681
      13     H     0.41622  0.41622  0.00000  0.16755
      14     H     0.40584  0.40584  0.00000  0.18833

   Total alpha = 24.00000, Total beta = 24.00000, Total charge = -0.00000
