                              Psi4 1.0.54 Driver

  ==> Input File <==

--------------------------------------------------------------------------
set {
	reference rhf
	basis cc-pvtz
}

set_num_threads( 4 )
memory 2 gb

molecule MOL {
0 1

H	 1.469050	 0.585297	 -2.052717
O	 0.631143	 0.432660	 -1.657421
C	 0.700177	 0.619554	 -0.266242
C	 -0.713111	 0.588314	 0.266177
H	 1.155466	 1.576656	 -0.030459
H	 1.284206	 -0.168032	 0.202796
O	 -1.421673	 -0.521378	 -0.196983
H	 -1.244794	 1.469161	 -0.069059
H	 -0.685100	 0.604721	 1.352683
H	 -0.933408	 -1.297830	 0.014544

	symmetry c1
}
set optking {
	frozen_dihedral = ("
		5 3 4 7
	")
}

ee,wfn = optimize('scf', return_wfn=True)
oeprop( wfn, 'DIPOLE', 'QUADRUPOLE', 'MULLIKEN_CHARGES')
f=open( 'psi4out.xyz', 'w' )
f.write( "10  " )
f.write( str(ee) + "\n" )
f.write( MOL.save_string_xyz() )
f.close()
--------------------------------------------------------------------------

    Molecular point group: c1
  Charge       = 0
  Multiplicity = 1
  Basis Set: CC-PVTZ
  Basis Set:
  @DF-RHF Final Energy:  -229.02150770392171
    Total Energy =                       -229.0215077039217135
    Molecular point group: c1
  Basis Set: CC-PVTZ
  Basis Set:
  Basis Set: CC-PVTZ
  Basis Set:
  @DF-RHF Final Energy:  -229.02216874740384
    Total Energy =                       -229.0221687474037253
  Basis Set: CC-PVTZ
  Basis Set:
  Basis Set: CC-PVTZ
  Basis Set:
  @DF-RHF Final Energy:  -229.02228748806183
    Total Energy =                       -229.0222874880617780
  Basis Set: CC-PVTZ
  Basis Set:
  Basis Set: CC-PVTZ
  Basis Set:
  @DF-RHF Final Energy:  -229.02230418387691
    Total Energy =                       -229.0223041838769973
  Basis Set: CC-PVTZ
  Basis Set:
  @DF-RHF Final Energy:  -229.02231172462675
    Total Energy =                       -229.0223117246266895
  @DF-RHF Final Energy:  -229.02231618125046
    Total Energy =                       -229.0223161812503463
  Basis Set: CC-PVTZ
  Basis Set:
  @DF-RHF Final Energy:  -229.02232031943893
    Total Energy =                       -229.0223203194390180
  Basis Set: CC-PVTZ
  Basis Set:
  Basis Set: CC-PVTZ
  Basis Set:
  @DF-RHF Final Energy:  -229.02232323075458
    Total Energy =                       -229.0223232307545800
  Basis Set: CC-PVTZ
  Basis Set:
  Basis Set: CC-PVTZ
  Basis Set:
  @DF-RHF Final Energy:  -229.02232557934641
    Total Energy =                       -229.0223255793465000
  Basis Set: CC-PVTZ
  Basis Set:
  Charge       = 0
  Multiplicity = 1
  Basis Set: CC-PVTZ
  Basis Set:

    Orbital Energies (a.u.)
    -----------------------

    Doubly Occupied:

       1A    -20.554327     2A    -20.543903     3A    -11.277026
       4A    -11.268364     5A     -1.381433     6A     -1.356012
       7A     -1.004095     8A     -0.848411     9A     -0.720843
      10A     -0.678722    11A     -0.661445    12A     -0.599386
      13A     -0.574339    14A     -0.549910    15A     -0.474755
      16A     -0.451259    17A     -0.440754

  @DF-RHF Final Energy:  -229.02232548782570

   => Energetics <=

    Nuclear Repulsion Energy =            134.0753817079298642
    One-Electron Energy =                -579.4254425688473020
    Two-Electron Energy =                 216.3277353730917127
    DFT Exchange-Correlation Energy =       0.0000000000000000
    Empirical Dispersion Energy =           0.0000000000000000
    PCM Polarization Energy =               0.0000000000000000
    EFP Energy =                            0.0000000000000000
    Total Energy =                       -229.0223254878257251
    Molecular point group: c1
  Basis Set: CC-PVTZ
  Basis Set:

  -Total Gradient:
     Atom            X                  Y                   Z
    ------   -----------------  -----------------  -----------------
       1       -0.000002126817     0.000002000807    -0.000001664895
       2        0.000030509782     0.000039219373    -0.000011450767
       3        0.001051316069    -0.001039594846     0.002866700151
       4        0.000995984278    -0.001786665762     0.002536312008
       5       -0.001171681739     0.001269249022    -0.003086709496
       6       -0.000007302686     0.000017513421     0.000026404790
       7       -0.000884774692     0.001466150453    -0.002365134661
       8       -0.000017858773    -0.000014836089    -0.000004415980
       9        0.000034755104     0.000023473371    -0.000001699625
      10       -0.000028820527     0.000023490250     0.000041658476

  **** Optimization is complete! (in 10 steps) ****
    Final optimized geometry and variables:
    Molecular point group: c1

    Geometry (in Angstrom), charge = 0, multiplicity = 1:

    H            1.733808351153     0.240032045117    -1.524803573884
    O            0.864230548666     0.172177022395    -1.176366862519
    C            0.887010944103     0.365349248389     0.209235774231
    C           -0.529844362317     0.330856159568     0.746245216014
    H            1.312154306254     1.337199442052     0.448071811361
    H            1.490483372885    -0.401593532351     0.693438654528
    O           -1.273652686488    -0.770981220175     0.322891313446
    H           -1.064342638483     1.204350194556     0.397242716443
    H           -0.482143129855     0.381953259997     1.832302908975
    H           -0.744855125245    -1.548082770312     0.322275336943

  Mulliken Charges: (a.u.)
   Center  Symbol    Alpha    Beta     Spin     Total
       1     H     0.39483  0.39483  0.00000  0.21034
       2     O     4.19240  4.19240  0.00000 -0.38480
       3     C     2.98051  2.98051  0.00000  0.03897
       4     C     2.95751  2.95751  0.00000  0.08498
       5     H     0.47032  0.47032  0.00000  0.05937
       6     H     0.47553  0.47553  0.00000  0.04894
       7     O     4.19720  4.19720  0.00000 -0.39441
       8     H     0.46117  0.46117  0.00000  0.07767
       9     H     0.47640  0.47640  0.00000  0.04720
      10     H     0.39413  0.39413  0.00000  0.21174

   Total alpha = 17.00000, Total beta = 17.00000, Total charge = -0.00000

*** Psi4 exiting successfully. Buy a developer a beer!
