  ==> Input File <==

--------------------------------------------------------------------------
set {
	reference rhf
	basis 6-31G*
}

set_num_threads( 1 )
memory 2 gb

molecule MOL {
0 1

H	 -3.208842	 -1.119045	 -0.145395
O	 -2.310168	 -0.871793	 -0.309793
C	 -2.026376	 0.340750	 0.341611
C	 -0.673256	 0.843270	 -0.132153
H	 -2.792215	 1.080697	 0.115987
H	 -2.013526	 0.200402	 1.421792
C	 0.486613	 -0.083066	 0.235839
H	 -0.715586	 0.970948	 -1.210718
H	 -0.508072	 1.829858	 0.297090
C	 1.840406	 0.433480	 -0.254303
H	 0.300215	 -1.068318	 -0.178947
H	 0.519509	 -0.203625	 1.318070
C	 3.000220	 -0.489290	 0.118523
H	 1.809207	 0.553576	 -1.335192
H	 2.021860	 1.424500	 0.157276
H	 2.864959	 -1.479103	 -0.307933
H	 3.946603	 -0.099227	 -0.243630
H	 3.080049	 -0.602997	 1.196117

	symmetry c1
}
set optking {
	frozen_dihedral = ("
		14 10 7 11,
		10 7 4 8,
		2 3 4 8
	")
}

ee = energy('scf')
oeprop('DIPOLE', 'QUADRUPOLE', 'MULLIKEN_CHARGES')
f=open( 'psi4out.xyz', 'w' )
f.write( "18  " )
f.write( str(ee) + "\n" )
f.write( MOL.save_string_xyz() )
f.close()
--------------------------------------------------------------------------

    Molecular point group: c1

    Geometry (in Angstrom), charge = 0, multiplicity = 1:

       Center              X                  Y                   Z               Mass
    ------------   -----------------  -----------------  -----------------  -----------------
           H         -3.208002055827    -1.120143668806    -0.143715953637     1.007825032070
           O         -2.309328055827    -0.872891668806    -0.308113953637    15.994914619560
           C         -2.025536055827     0.339651331194     0.343290046363    12.000000000000
           C         -0.672416055827     0.842171331194    -0.130473953637    12.000000000000
           H         -2.791375055827     1.079598331194     0.117666046363     1.007825032070
           H         -2.012686055827     0.199303331194     1.423471046363     1.007825032070
           C          0.487452944173    -0.084164668806     0.237518046363    12.000000000000
           H         -0.714746055827     0.969849331194    -1.209038953637     1.007825032070
           H         -0.507232055827     1.828759331194     0.298769046363     1.007825032070
           C          1.841245944173     0.432381331194    -0.252623953637    12.000000000000
           H          0.301054944173    -1.069416668806    -0.177267953637     1.007825032070
           H          0.520348944173    -0.204723668806     1.319749046363     1.007825032070
           C          3.001059944173    -0.490388668806     0.120202046363    12.000000000000
           H          1.810046944173     0.552477331194    -1.333512953637     1.007825032070
           H          2.022699944173     1.423401331194     0.158955046363     1.007825032070
           H          2.865798944173    -1.480201668806    -0.306253953637     1.007825032070
           H          3.947442944173    -0.100325668806    -0.241950953637     1.007825032070
           H          3.080888944173    -0.604095668806     1.197796046363     1.007825032070

  Charge       = 0
  Multiplicity = 1
  Basis Set: 6-31G*
  Basis Set:

    Orbital Energies (a.u.)
    -----------------------

    Doubly Occupied:

       1A    -20.552875     2A    -11.268012     3A    -11.211807
       4A    -11.210550     5A    -11.206194     6A    -11.204314
       7A     -1.359692     8A     -1.074592     9A     -1.008564
      10A     -0.912844    11A     -0.817522    12A     -0.783880
      13A     -0.704354    14A     -0.644018    15A     -0.623056
      16A     -0.579046    17A     -0.571983    18A     -0.555898
      19A     -0.520938    20A     -0.504302    21A     -0.488484
      22A     -0.466754    23A     -0.458093    24A     -0.444303
      25A     -0.430387

  @DF-RHF Final Energy:  -271.17975450238055

   => Energetics <=

    Nuclear Repulsion Energy =            249.0229428718317024
    One-Electron Energy =                -861.2003590386416363
    Two-Electron Energy =                 340.9976616644296996
    DFT Exchange-Correlation Energy =       0.0000000000000000
    Empirical Dispersion Energy =           0.0000000000000000
    PCM Polarization Energy =               0.0000000000000000
    EFP Energy =                            0.0000000000000000
    Total Energy =                       -271.1797545023802627

  Mulliken Charges: (a.u.)
   Center  Symbol    Alpha    Beta     Spin     Total
       1     H     0.28047  0.28047  0.00000  0.43906
       2     O     4.36986  4.36986  0.00000 -0.73972
       3     C     2.99742  2.99742  0.00000  0.00516
       4     C     3.15964  3.15964  0.00000 -0.31928
       5     H     0.42996  0.42996  0.00000  0.14008
       6     H     0.43180  0.43180  0.00000  0.13640
       7     C     3.15325  3.15325  0.00000 -0.30649
       8     H     0.41576  0.41576  0.00000  0.16847
       9     H     0.42447  0.42447  0.00000  0.15106
      10     C     3.15177  3.15177  0.00000 -0.30354
      11     H     0.40770  0.40770  0.00000  0.18459
      12     H     0.42718  0.42718  0.00000  0.14565
      13     C     3.23892  3.23892  0.00000 -0.47784
      14     H     0.42260  0.42260  0.00000  0.15480
      15     H     0.42535  0.42535  0.00000  0.14929
      16     H     0.42082  0.42082  0.00000  0.15837
      17     H     0.42043  0.42043  0.00000  0.15913
      18     H     0.42260  0.42260  0.00000  0.15481

   Total alpha = 25.00000, Total beta = 25.00000, Total charge = -0.00000
