                              Psi4 1.0.54 Driver

  ==> Input File <==

--------------------------------------------------------------------------
set {
	reference rhf
	basis cc-pvtz
}

set_num_threads( 4 )
memory 2 gb

molecule MOL {
0 1

O	 0.725038	 0.265796	 -0.938773
C	 0.029490	 0.077183	 0.000078
C	 -1.232113	 -0.748027	 0.000015
O	 0.276599	 0.579018	 1.198548
C	 -2.501422	 0.088592	 -0.000052
H	 -1.188777	 -1.400384	 -0.865133
H	 -1.188857	 -1.400312	 0.865225
H	 -2.548170	 0.725504	 -0.873205
H	 -3.371613	 -0.556398	 -0.000040
H	 -2.548215	 0.725571	 0.873047
C	 1.434440	 1.376838	 1.341839
H	 2.321013	 0.808455	 1.102748
H	 1.457450	 1.685607	 2.374291
H	 1.384551	 2.240472	 0.695393

	symmetry c1
}
set optking {
	frozen_dihedral = ("
		4 2 3 6
	")
}

ee,wfn = optimize('scf', return_wfn=True)
oeprop( wfn, 'DIPOLE', 'QUADRUPOLE', 'MULLIKEN_CHARGES')
f=open( 'psi4out.xyz', 'w' )
f.write( "14  " )
f.write( str(ee) + "\n" )
f.write( MOL.save_string_xyz() )
f.close()
--------------------------------------------------------------------------

    Molecular point group: c1
  Charge       = 0
  Multiplicity = 1
  Basis Set: CC-PVTZ
  Basis Set:
  @DF-RHF Final Energy:  -305.98570691133352
    Total Energy =                       -305.9857069113336934
    Molecular point group: c1
  Basis Set: CC-PVTZ
  Basis Set:
  Basis Set: CC-PVTZ
  Basis Set:
  @DF-RHF Final Energy:  -305.98613409511870
    Total Energy =                       -305.9861340951184729
  Basis Set: CC-PVTZ
  Basis Set:
  Basis Set: CC-PVTZ
  Basis Set:
  @DF-RHF Final Energy:  -305.98592707145690
    Total Energy =                       -305.9859270714568993
  Basis Set: CC-PVTZ
  Basis Set:
  Basis Set: CC-PVTZ
  Basis Set:
  @DF-RHF Final Energy:  -305.98616552233983
    Total Energy =                       -305.9861655223397179
  Basis Set: CC-PVTZ
  Basis Set:
  Basis Set: CC-PVTZ
  Basis Set:
  @DF-RHF Final Energy:  -305.98619953253251
    Total Energy =                       -305.9861995325325665
  Basis Set: CC-PVTZ
  Basis Set:
  Charge       = 0
  Multiplicity = 1
  Basis Set: CC-PVTZ
  Basis Set:

    Orbital Energies (a.u.)
    -----------------------

    Doubly Occupied:

       1A    -20.598125     2A    -20.533344     3A    -11.364217
       4A    -11.279213     5A    -11.235891     6A    -11.225524
       7A     -1.472743     8A     -1.365495     9A     -1.068556
      10A     -0.977859    11A     -0.884659    12A     -0.776279
      13A     -0.699318    14A     -0.682845    15A     -0.676518
      16A     -0.619201    17A     -0.595301    18A     -0.570306
      19A     -0.544405    20A     -0.520119    21A     -0.511207
      22A     -0.507072    23A     -0.459882    24A     -0.437744

  @DF-RHF Final Energy:  -305.98619974285509

   => Energetics <=

    Nuclear Repulsion Energy =            248.5794796293999696
    One-Electron Energy =                -909.9197104865597794
    Two-Electron Energy =                 355.3540311143046893
    DFT Exchange-Correlation Energy =       0.0000000000000000
    Empirical Dispersion Energy =           0.0000000000000000
    PCM Polarization Energy =               0.0000000000000000
    EFP Energy =                            0.0000000000000000
    Total Energy =                       -305.9861997428550922
    Molecular point group: c1
  Basis Set: CC-PVTZ
  Basis Set:

  -Total Gradient:
     Atom            X                  Y                   Z
    ------   -----------------  -----------------  -----------------
       1       -0.000006223041    -0.000007646232    -0.000055432641
       2       -0.000069900188     0.000135318643     0.000051308380
       3       -0.000094768959     0.000172806157    -0.000155422975
       4        0.000017995310    -0.000118737293     0.000007444352
       5        0.000022621113    -0.000032574317     0.000022649651
       6        0.000100098890    -0.000135176785     0.000090376915
       7       -0.000005241352    -0.000011440319     0.000024335927
       8        0.000001627215    -0.000001562926    -0.000004991635
       9        0.000002796326     0.000003000288    -0.000000447968
      10       -0.000010128514     0.000010281856     0.000008497559
      11        0.000053572771    -0.000034413364     0.000017528349
      12        0.000020550728     0.000010231675     0.000000224105
      13       -0.000012172440     0.000003309977     0.000008804420
      14       -0.000020827857     0.000006602639    -0.000014874437

  **** Optimization is complete! (in 6 steps) ****
    Final optimized geometry and variables:
    Molecular point group: c1

    Geometry (in Angstrom), charge = 0, multiplicity = 1:

    O            0.883787811646    -0.004986881924    -1.220931500924
    C            0.219754380215    -0.228454781162    -0.266316373670
    C           -1.032822228727    -1.065288069004    -0.269405769909
    O            0.488622487011     0.257848243425     0.934011592397
    C           -2.288478604140    -0.189974894508    -0.293984044561
    H           -0.995169986955    -1.697312291062    -1.144437965430
    H           -1.036719351934    -1.690903744935     0.613792772994
    H           -2.301741664249     0.441376900529    -1.173974862369
    H           -3.174343580008    -0.811681598203    -0.313612004955
    H           -2.339783931953     0.442887069084     0.582653297402
    C            1.620447167866     1.095914361138     1.055750736312
    H            2.518748238154     0.564834614398     0.778241650956
    H            1.665021656899     1.387322420880     2.092566693440
    H            1.518036694225     1.967891776028     0.426923868971

  Mulliken Charges: (a.u.)
   Center  Symbol    Alpha    Beta     Spin     Total
       1     O     4.20133  4.20133  0.00000 -0.40265
       2     C     2.79747  2.79747  0.00000  0.40505
       3     C     3.08405  3.08405  0.00000 -0.16810
       4     O     4.15066  4.15066  0.00000 -0.30132
       5     C     3.15146  3.15146  0.00000 -0.30292
       6     H     0.43806  0.43806  0.00000  0.12387
       7     H     0.44568  0.44568  0.00000  0.10864
       8     H     0.44703  0.44703  0.00000  0.10594
       9     H     0.44735  0.44735  0.00000  0.10529
      10     H     0.44791  0.44791  0.00000  0.10418
      11     C     3.03596  3.03596  0.00000 -0.07192
      12     H     0.45285  0.45285  0.00000  0.09429
      13     H     0.44562  0.44562  0.00000  0.10876
      14     H     0.45455  0.45455  0.00000  0.09090

   Total alpha = 24.00000, Total beta = 24.00000, Total charge = -0.00000

*** Psi4 exiting successfully. Buy a developer a beer!
