                              Psi4 1.0.54 Driver

  ==> Input File <==

--------------------------------------------------------------------------
set {
	reference rhf
	basis cc-pvtz
}

set_num_threads( 4 )
memory 2 gb

molecule MOL {
0 1

H	 2.342730	 0.877684	 -1.045694
C	 2.360424	 0.000000	 -0.411793
C	 1.173749	 0.000000	 0.526870
H	 3.286567	 0.000000	 0.151574
H	 2.342730	 -0.877684	 -1.045694
O	 0.000000	 0.000000	 -0.223739
H	 1.203779	 0.876757	 1.172538
H	 1.203779	 -0.876757	 1.172538
C	 -1.173749	 0.000000	 0.526870
C	 -2.318650	 0.464507	 -0.346470
H	 -1.065772	 0.657797	 1.388342
H	 -1.372619	 -1.000643	 0.908518
H	 -2.132049	 1.464966	 -0.716247
H	 -3.244081	 0.472415	 0.218009
H	 -2.439220	 -0.195228	 -1.196578

	symmetry c1
}
set optking {
	frozen_dihedral = ("
		11 9 6 3
	")
}

ee,wfn = optimize('scf', return_wfn=True)
oeprop( wfn, 'DIPOLE', 'QUADRUPOLE', 'MULLIKEN_CHARGES')
f=open( 'psi4out.xyz', 'w' )
f.write( "15  " )
f.write( str(ee) + "\n" )
f.write( MOL.save_string_xyz() )
f.close()
--------------------------------------------------------------------------

    Molecular point group: c1
  Charge       = 0
  Multiplicity = 1
  Basis Set: CC-PVTZ
  Basis Set:
  @DF-RHF Final Energy:  -232.23279776919892
    Total Energy =                       -232.2327977691989531
    Molecular point group: c1
  Basis Set: CC-PVTZ
  Basis Set:
  Basis Set: CC-PVTZ
  Basis Set:
  @DF-RHF Final Energy:  -232.23284391845263
    Total Energy =                       -232.2328439184527724
  Basis Set: CC-PVTZ
  Basis Set:
  Basis Set: CC-PVTZ
  Basis Set:
  @DF-RHF Final Energy:  -232.23285481877190
    Total Energy =                       -232.2328548187717843
  Basis Set: CC-PVTZ
  Basis Set:
  Charge       = 0
  Multiplicity = 1
  Basis Set: CC-PVTZ
  Basis Set:

    Orbital Energies (a.u.)
    -----------------------

    Doubly Occupied:

       1A    -20.544838     2A    -11.266400     3A    -11.266084
       4A    -11.207435     5A    -11.207197     6A     -1.380607
       7A     -1.044991     8A     -0.983572     9A     -0.847575
      10A     -0.826519    11A     -0.678333    12A     -0.668791
      13A     -0.612980    14A     -0.594143    15A     -0.549937
      16A     -0.532477    17A     -0.523046    18A     -0.495244
      19A     -0.487015    20A     -0.466846    21A     -0.412352

  @DF-RHF Final Energy:  -232.23285498804253

   => Energetics <=

    Nuclear Repulsion Energy =            191.2892740097546209
    One-Electron Energy =                -693.8514960312692210
    Two-Electron Energy =                 270.3293670334722947
    DFT Exchange-Correlation Energy =       0.0000000000000000
    Empirical Dispersion Energy =           0.0000000000000000
    PCM Polarization Energy =               0.0000000000000000
    EFP Energy =                            0.0000000000000000
    Total Energy =                       -232.2328549880422770
    Molecular point group: c1
  Basis Set: CC-PVTZ
  Basis Set:

  -Total Gradient:
     Atom            X                  Y                   Z
    ------   -----------------  -----------------  -----------------
       1        0.000001705951    -0.000002611038    -0.000000744624
       2        0.000012143328     0.000010942128     0.000007119798
       3        0.000025641783     0.001877717851     0.000020434547
       4        0.000015851865     0.000001032746    -0.000002990824
       5       -0.000008603473     0.000003996076     0.000009739602
       6        0.000161773122    -0.003198257674     0.000296330904
       7       -0.000004240322    -0.000004168672    -0.000008433982
       8       -0.000001194780     0.000002985829     0.000002315780
       9       -0.000983906664     0.003143550367    -0.001587560249
      10       -0.000002022867    -0.000007120196    -0.000006198216
      11        0.000777269239    -0.001818032018     0.001255990391
      12       -0.000001360399    -0.000003770658    -0.000003820262
      13        0.000009097277    -0.000006454419     0.000006501186
      14       -0.000002605259    -0.000003325242     0.000006272737
      15        0.000000451200     0.000003514920     0.000005043211

  **** Optimization is complete! (in 4 steps) ****
    Final optimized geometry and variables:
    Molecular point group: c1

    Geometry (in Angstrom), charge = 0, multiplicity = 1:

    H            2.348160924961     0.752304549137    -1.057673143461
    C            2.354168657380    -0.122028519177    -0.418772827250
    C            1.166686126852    -0.100904131357     0.518631442200
    H            3.279786977692    -0.130740110681     0.145654435265
    H            2.325933924500    -1.002911641655    -1.047881434170
    O           -0.005717238562    -0.080383851364    -0.233828068474
    H            1.209738865607     0.776076096069     1.162605867465
    H            1.183897432231    -0.977378142252     1.165806551304
    C           -1.186577048325    -0.081696717301     0.507922214784
    C           -2.329500919988     0.380134223058    -0.368816867788
    H           -1.083466817183     0.561395532582     1.380086983223
    H           -1.383073650374    -1.085373475396     0.883694592463
    H           -2.159053952331     1.391582731777    -0.716135324757
    H           -3.262275914474     0.356066851168     0.183325241487
    H           -2.425787794547    -0.264295712407    -1.233765593767

  Mulliken Charges: (a.u.)
   Center  Symbol    Alpha    Beta     Spin     Total
       1     H     0.45163  0.45163  0.00000  0.09674
       2     C     3.13550  3.13550  0.00000 -0.27100
       3     C     2.96646  2.96646  0.00000  0.06708
       4     H     0.45896  0.45896  0.00000  0.08209
       5     H     0.45149  0.45149  0.00000  0.09702
       6     O     4.17982  4.17982  0.00000 -0.35963
       7     H     0.47251  0.47251  0.00000  0.05497
       8     H     0.47420  0.47420  0.00000  0.05160
       9     C     2.96810  2.96810  0.00000  0.06381
      10     C     3.13459  3.13459  0.00000 -0.26918
      11     H     0.47482  0.47482  0.00000  0.05037
      12     H     0.46940  0.46940  0.00000  0.06119
      13     H     0.45276  0.45276  0.00000  0.09449
      14     H     0.45896  0.45896  0.00000  0.08209
      15     H     0.45081  0.45081  0.00000  0.09837

   Total alpha = 21.00000, Total beta = 21.00000, Total charge =  0.00000

*** Psi4 exiting successfully. Buy a developer a beer!
