                              Psi4 1.0.54 Driver

  ==> Input File <==

--------------------------------------------------------------------------
set {
	reference rhf
	basis cc-pvtz
}

set_num_threads( 4 )
memory 2 gb

molecule MOL {
0 1

H	 2.420785	 1.722922	 -4.796411
C	 2.791450	 1.697266	 -3.778169
C	 1.647325	 1.773591	 -2.772945
H	 3.356250	 0.779661	 -3.654811
H	 3.478951	 2.527963	 -3.655354
C	 2.133254	 1.750840	 -1.325421
H	 0.969020	 0.944695	 -2.939595
H	 1.078260	 2.684236	 -2.945323
C	 1.009976	 1.832328	 -0.296590
H	 2.707283	 0.849419	 -1.150038
H	 2.804429	 2.589461	 -1.164104
C	 0.166485	 0.574257	 -0.177158
H	 1.427129	 2.011015	 0.691246
H	 0.358827	 2.677897	 -0.497926
C	 -1.180025	 0.697761	 0.509157
O	 0.549236	 -0.474819	 -0.584854
C	 -2.285431	 -0.137488	 -0.145671
H	 -1.447360	 1.745713	 0.496200
H	 -1.065514	 0.394096	 1.546399
C	 -3.646545	 0.082747	 0.508954
H	 -2.348635	 0.118247	 -1.199806
H	 -2.034895	 -1.192387	 -0.096473
C	 -4.757412	 -0.737227	 -0.138149
H	 -3.900211	 1.137405	 0.459735
H	 -3.580878	 -0.166775	 1.564416
H	 -4.867876	 -0.486707	 -1.187777
H	 -4.549650	 -1.800049	 -0.072540
H	 -5.709585	 -0.556397	 0.346597

	symmetry c1
}
set optking {
	frozen_dihedral = ("
		16 12 15 17
	")
}

ee,wfn = optimize('scf', return_wfn=True)
oeprop( wfn, 'DIPOLE', 'QUADRUPOLE', 'MULLIKEN_CHARGES')
f=open( 'psi4out.xyz', 'w' )
f.write( "28  " )
f.write( str(ee) + "\n" )
f.write( MOL.save_string_xyz() )
f.close()
--------------------------------------------------------------------------

    Molecular point group: c1
  Charge       = 0
  Multiplicity = 1
  Basis Set: CC-PVTZ
  Basis Set:
  @DF-RHF Final Energy:  -426.31944513339215
    Total Energy =                       -426.3194451333923780
    Molecular point group: c1
  Basis Set: CC-PVTZ
  Basis Set:
  Basis Set: CC-PVTZ
  Basis Set:
  @DF-RHF Final Energy:  -426.31835277158348
    Total Energy =                       -426.3183527715833634
  Basis Set: CC-PVTZ
  Basis Set:
  Basis Set: CC-PVTZ
  Basis Set:
  @DF-RHF Final Energy:  -426.32057025067490
    Total Energy =                       -426.3205702506746775
  Basis Set: CC-PVTZ
  Basis Set:
  Basis Set: CC-PVTZ
  Basis Set:
  @DF-RHF Final Energy:  -426.32073696249131
    Total Energy =                       -426.3207369624917646
  Basis Set: CC-PVTZ
  Basis Set:
  @DF-RHF Final Energy:  -426.32063698689683
    Total Energy =                       -426.3206369868973979
  @DF-RHF Final Energy:  -426.32086424310478
    Total Energy =                       -426.3208642431046655
  Basis Set: CC-PVTZ
  Basis Set:
  @DF-RHF Final Energy:  -426.32086452477620
    Total Energy =                       -426.3208645247755157
  Basis Set: CC-PVTZ
  Basis Set:
  Basis Set: CC-PVTZ
  Basis Set:
  @DF-RHF Final Energy:  -426.32087923571112
    Total Energy =                       -426.3208792357107768
  Basis Set: CC-PVTZ
  Basis Set:
  Basis Set: CC-PVTZ
  Basis Set:
  @DF-RHF Final Energy:  -426.32088091809862
    Total Energy =                       -426.3208809180982826
  Basis Set: CC-PVTZ
  Basis Set:
  Charge       = 0
  Multiplicity = 1
  Basis Set: CC-PVTZ
  Basis Set:

    Orbital Energies (a.u.)
    -----------------------

    Doubly Occupied:

       1A    -20.537131     2A    -11.318180     3A    -11.229797
       4A    -11.228011     5A    -11.218550     6A    -11.217928
       7A    -11.214880     8A    -11.209334     9A    -11.208963
      10A    -11.203218    11A     -1.398060    12A     -1.090071
      13A     -1.078697    14A     -1.023065    15A     -0.991567
      16A     -0.911064    17A     -0.866506    18A     -0.805728
      19A     -0.794256    20A     -0.725670    21A     -0.671235
      22A     -0.653354    23A     -0.629162    24A     -0.619049
      25A     -0.609653    26A     -0.585730    27A     -0.578200
      28A     -0.574266    29A     -0.537742    30A     -0.532310
      31A     -0.518937    32A     -0.509482    33A     -0.496017
      34A     -0.481312    35A     -0.476085    36A     -0.471109
      37A     -0.468485    38A     -0.465557    39A     -0.457896
      40A     -0.394674

  @DF-RHF Final Energy:  -426.32088104408433

   => Energetics <=

    Nuclear Repulsion Energy =            530.8081283900080507
    One-Electron Energy =               -1630.2561495779823417
    Two-Electron Energy =                 673.1271401438893918
    DFT Exchange-Correlation Energy =       0.0000000000000000
    Empirical Dispersion Energy =           0.0000000000000000
    PCM Polarization Energy =               0.0000000000000000
    EFP Energy =                            0.0000000000000000
    Total Energy =                       -426.3208810440848993
    Molecular point group: c1
  Basis Set: CC-PVTZ
  Basis Set:

  -Total Gradient:
     Atom            X                  Y                   Z
    ------   -----------------  -----------------  -----------------
       1       -0.000001170412    -0.000001946608     0.000013532323
       2       -0.000001100531     0.000005112752     0.000006711675
       3        0.000002242629    -0.000001830597     0.000001736229
       4       -0.000005911270     0.000006309490    -0.000001373055
       5       -0.000002616231    -0.000004372985    -0.000002166027
       6        0.000003004133     0.000010370127    -0.000005553946
       7        0.000003004847     0.000003198791     0.000007809202
       8        0.000005816661    -0.000005546905     0.000001681095
       9        0.000002851016    -0.000026931257    -0.000016634788
      10       -0.000010039508     0.000007415017    -0.000000973271
      11        0.000001357120    -0.000002123687    -0.000009648469
      12       -0.000752579689     0.000614514877    -0.001093577865
      13        0.000001090883     0.000002595001    -0.000001345575
      14        0.000003695930     0.000000691009    -0.000002132858
      15        0.000442282065    -0.000900053869     0.000692046912
      16        0.000471761318    -0.000265593196     0.000713742060
      17       -0.000193161110     0.000570268291    -0.000314740805
      18        0.000003622910    -0.000006784354    -0.000005210608
      19       -0.000004473019     0.000003904227    -0.000010421247
      20        0.000016610075    -0.000014482365     0.000008594050
      21        0.000014538902    -0.000012860886     0.000012427629
      22       -0.000005091797     0.000023269055     0.000008806148
      23       -0.000008556504     0.000000278735     0.000005033755
      24        0.000010641063    -0.000022686770    -0.000002779417
      25       -0.000021159280     0.000005249780    -0.000014031491
      26        0.000012889563    -0.000010613999     0.000019409249
      27       -0.000005766253     0.000021606271     0.000005255805
      28        0.000016216486     0.000001044054    -0.000016196707

  **** Optimization is complete! (in 10 steps) ****
    Final optimized geometry and variables:
    Molecular point group: c1

    Geometry (in Angstrom), charge = 0, multiplicity = 1:

    H            3.293475146396     1.077714388572    -3.858532562419
    C            3.516529623668     1.004523875931    -2.800367079136
    C            2.247720731543     1.111607616566    -1.961523499594
    H            4.014274960282     0.055624267744    -2.632565482476
    H            4.219056347621     1.794605899298    -2.554997432134
    C            2.526041409975     1.028592998966    -0.462050297513
    H            1.561343118941     0.323331781466    -2.244943300753
    H            1.752073460706     2.054734962427    -2.179942563007
    C            1.276998357854     1.130562150716     0.406363286553
    H            3.037059167129     0.099116529850    -0.239879451622
    H            3.201154851717     1.832842655581    -0.184122048922
    C            0.403734907753    -0.107503632600     0.438109124082
    H            1.544284518005     1.340949727545     1.439979444407
    H            0.655294870369     1.967222069643     0.096665620843
    C           -0.838233306450    -0.035082632968     1.310432195367
    O            0.689244525863    -1.104218312005    -0.142546079209
    C           -2.044239791595    -0.751662631268     0.708937797311
    H           -1.077964187040     1.000047322918     1.527077157923
    H           -0.568507442572    -0.493798417257     2.259147549593
    C           -3.260078625513    -0.736784656672     1.630536626000
    H           -2.302306406096    -0.282818800252    -0.236882677112
    H           -1.767340236166    -1.772321478819     0.477829538682
    C           -4.469869343184    -1.441865811928     1.026785824531
    H           -3.524150982730     0.290293912041     1.868465984360
    H           -3.000939160583    -1.210655427408     2.573495210842
    H           -4.775354480858    -0.969317905761     0.099305867461
    H           -4.247539946374    -2.480870709394     0.809188223086
    H           -5.315731678173    -1.418574170815     1.704025659447

  Mulliken Charges: (a.u.)
   Center  Symbol    Alpha    Beta     Spin     Total
       1     H     0.44871  0.44871  0.00000  0.10258
       2     C     3.15174  3.15174  0.00000 -0.30348
       3     C     3.08382  3.08382  0.00000 -0.16765
       4     H     0.45215  0.45215  0.00000  0.09569
       5     H     0.45730  0.45730  0.00000  0.08541
       6     C     3.08741  3.08741  0.00000 -0.17481
       7     H     0.44361  0.44361  0.00000  0.11277
       8     H     0.45891  0.45891  0.00000  0.08219
       9     C     3.12276  3.12276  0.00000 -0.24553
      10     H     0.44647  0.44647  0.00000  0.10705
      11     H     0.44789  0.44789  0.00000  0.10422
      12     C     2.87385  2.87385  0.00000  0.25230
      13     H     0.43469  0.43469  0.00000  0.13062
      14     H     0.44342  0.44342  0.00000  0.11316
      15     C     3.09664  3.09664  0.00000 -0.19328
      16     O     4.17954  4.17954  0.00000 -0.35908
      17     C     3.08526  3.08526  0.00000 -0.17053
      18     H     0.44609  0.44609  0.00000  0.10783
      19     H     0.44445  0.44445  0.00000  0.11110
      20     C     3.08700  3.08700  0.00000 -0.17400
      21     H     0.45384  0.45384  0.00000  0.09232
      22     H     0.43870  0.43870  0.00000  0.12259
      23     C     3.14963  3.14963  0.00000 -0.29927
      24     H     0.45571  0.45571  0.00000  0.08858
      25     H     0.45406  0.45406  0.00000  0.09187
      26     H     0.45483  0.45483  0.00000  0.09034
      27     H     0.45305  0.45305  0.00000  0.09390
      28     H     0.44845  0.44845  0.00000  0.10311

   Total alpha = 40.00000, Total beta = 40.00000, Total charge = -0.00000

*** Psi4 exiting successfully. Buy a developer a beer!
