  ==> Input File <==

--------------------------------------------------------------------------
set {
	reference rhf
	basis 6-31G*
}

set_num_threads( 4 )
memory 2 gb

molecule MOL {
0 1

H	 2.866480	 -0.465706	 0.876907
C	 2.405773	 -0.024801	 0.000000
N	 0.988830	 -0.304158	 0.000000
H	 2.866480	 -0.465706	 -0.876907
H	 2.629928	 1.045948	 0.000000
C	 0.575701	 -1.069303	 1.161829
C	 0.552902	 -0.953666	 -1.222324
H	 1.068800	 -2.046098	 1.196815
H	 0.853107	 -0.527357	 2.060487
C	 -0.930488	 -1.270927	 1.134763
H	 0.813614	 -0.327045	 -2.069449
H	 1.044340	 -1.922034	 -1.361069
C	 -0.952682	 -1.158356	 -1.186165
H	 -1.245457	 -1.914586	 1.945635
H	 -1.429314	 -0.309222	 1.240909
O	 -1.331282	 -1.890863	 -0.054773
H	 -1.283659	 -1.720819	 -2.049360
H	 -1.452552	 -0.191355	 -1.189215

	symmetry c1
}
set optking {
	frozen_dihedral = ("
		6 3 2 5
	")
}

ee = optimize('scf')
oeprop('DIPOLE', 'QUADRUPOLE', 'MULLIKEN_CHARGES')
f=open( 'psi4out.xyz', 'w' )
f.write( "18  " )
f.write( str(ee) + "\n" )
f.write( MOL.save_string_xyz() )
f.close()
--------------------------------------------------------------------------

    Molecular point group: c1
  Charge       = 0
  Multiplicity = 1
  Basis Set: 6-31G*
  Basis Set:
  @DF-RHF Final Energy:  -325.02151637326079
    Total Energy =                       -325.0215163732605106
    Molecular point group: c1
  Basis Set: 6-31G*
  Basis Set:
  Basis Set: 6-31G*
  Basis Set:
  @DF-RHF Final Energy:  -325.02225531647485
    Total Energy =                       -325.0222553164749684
  Basis Set: 6-31G*
  Basis Set:
  Basis Set: 6-31G*
  Basis Set:
  @DF-RHF Final Energy:  -325.02242557415371
    Total Energy =                       -325.0224255741539423
  Basis Set: 6-31G*
  Basis Set:
  Basis Set: 6-31G*
  Basis Set:
  @DF-RHF Final Energy:  -325.02243317942754
    Total Energy =                       -325.0224331794274804
  Basis Set: 6-31G*
  Basis Set:
  Charge       = 0
  Multiplicity = 1
  Basis Set: 6-31G*
  Basis Set:

    Orbital Energies (a.u.)
    -----------------------

    Doubly Occupied:

       1A    -20.553178     2A    -15.545165     3A    -11.265160
       4A    -11.265139     5A    -11.243863     6A    -11.243781
       7A    -11.240824     8A     -1.382471     9A     -1.226590
      10A     -1.037914    11A     -0.980040    12A     -0.882185
      13A     -0.869782    14A     -0.773294    15A     -0.682555
      16A     -0.643399    17A     -0.642831    18A     -0.630580
      19A     -0.625613    20A     -0.569550    21A     -0.558180
      22A     -0.547397    23A     -0.526973    24A     -0.499893
      25A     -0.484058    26A     -0.451534    27A     -0.406919
      28A     -0.345065

  @DF-RHF Final Energy:  -325.02243406719134

   => Energetics <=

    Nuclear Repulsion Energy =            340.8710642864062379
    One-Electron Energy =               -1117.5391295652689223
    Two-Electron Energy =                 451.6456312116712297
    DFT Exchange-Correlation Energy =       0.0000000000000000
    Empirical Dispersion Energy =           0.0000000000000000
    PCM Polarization Energy =               0.0000000000000000
    EFP Energy =                            0.0000000000000000
    Total Energy =                       -325.0224340671915115
    Molecular point group: c1
  Basis Set: 6-31G*
  Basis Set:

  -Total Gradient:
     Atom            X                  Y                   Z
    ------   -----------------  -----------------  -----------------
       1       -0.000006104102    -0.000011768552    -0.000005968392
       2        0.000016292974     0.000355099503    -0.001536096632
       3        0.000245172653    -0.001239266289    -0.000339261585
       4       -0.000022028864    -0.000018099658     0.000012862473
       5       -0.000033678494     0.000020709187     0.001366846624
       6       -0.000208743769     0.000895771744     0.000513341164
       7        0.000015528310    -0.000003859023    -0.000021639945
       8        0.000003221618     0.000010033694    -0.000010524922
       9       -0.000006521153    -0.000004845614    -0.000001415632
      10       -0.000019157268    -0.000002445326     0.000004666878
      11       -0.000004552456    -0.000003674882    -0.000000689682
      12        0.000008074230     0.000006637031     0.000010911841
      13       -0.000019676850     0.000009634324     0.000009545141
      14       -0.000011524784    -0.000006703279    -0.000004005885
      15        0.000014851773     0.000003492399     0.000008416097
      16        0.000023755480    -0.000013240843    -0.000002115969
      17       -0.000003844879    -0.000004809403     0.000005549778
      18        0.000008935584     0.000007334986    -0.000010421356

  **** Optimization is complete! (in 5 steps) ****
    Final optimized geometry and variables:
    Molecular point group: c1

    Geometry (in Angstrom), charge = 0, multiplicity = 1:

    H            2.721482857743     0.590638050133     0.918259221996
    C            2.230791264078     0.956617654794     0.021990052946
    N            0.816938422921     0.614360486096     0.024529156875
    H            2.749748110121     0.518775113777    -0.826411474987
    H            2.371761157576     2.032863124936    -0.010823510130
    C            0.386092198660    -0.132136245279     1.190477010356
    C            0.360675204352    -0.006163692458    -1.203307631985
    H            0.856160982718    -1.119634967592     1.240521208739
    H            0.666893839622     0.413261250699     2.085456814005
    C           -1.124079393686    -0.300515753328     1.159815121201
    H            0.624904754255     0.629531285795    -2.042379210454
    H            0.830767476676    -0.981702905390    -1.364331312836
    C           -1.148484953441    -0.179991904672    -1.160749206727
    H           -1.455642782003    -0.936958010595     1.969969084726
    H           -1.600714352143     0.672513894359     1.264554352709
    O           -1.536595378421    -0.910139746949    -0.031057260922
    H           -1.495887776787    -0.730477958940    -2.025388029613
    H           -1.627665718953     0.797383093374    -1.155280356232

  Mulliken Charges: (a.u.)
   Center  Symbol    Alpha    Beta     Spin     Total
       1     H     0.42100  0.42100  0.00000  0.15799
       2     C     3.13909  3.13909  0.00000 -0.27818
       3     N     3.79437  3.79437  0.00000 -0.58875
       4     H     0.42278  0.42278  0.00000  0.15444
       5     H     0.41537  0.41537  0.00000  0.16927
       6     C     3.06626  3.06626  0.00000 -0.13252
       7     C     3.06646  3.06646  0.00000 -0.13292
       8     H     0.42893  0.42893  0.00000  0.14213
       9     H     0.41668  0.41668  0.00000  0.16665
      10     C     2.99771  2.99771  0.00000  0.00457
      11     H     0.41658  0.41658  0.00000  0.16684
      12     H     0.42884  0.42884  0.00000  0.14233
      13     C     2.99763  2.99763  0.00000  0.00474
      14     H     0.41368  0.41368  0.00000  0.17263
      15     H     0.42437  0.42437  0.00000  0.15125
      16     O     4.31220  4.31220  0.00000 -0.62440
      17     H     0.41368  0.41368  0.00000  0.17263
      18     H     0.42436  0.42436  0.00000  0.15128

   Total alpha = 28.00000, Total beta = 28.00000, Total charge = -0.00000
