  ==> Input File <==

--------------------------------------------------------------------------
set {
	reference rhf
	basis cc-pvtz
}

set_num_threads( 4 )
memory 2 gb

molecule MOL {
0 1

O	 0.707562	 2.108937	 -0.196854
C	 -0.355336	 2.460618	 -0.581077
C	 -1.610791	 1.626878	 -0.567847
O	 -0.582133	 3.662936	 -1.084439
C	 -1.413045	 0.229353	 0.001137
H	 -2.356295	 2.178696	 -0.004641
H	 -1.980444	 1.587521	 -1.587292
C	 -2.702562	 -0.586401	 0.000228
H	 -1.027265	 0.305336	 1.011553
H	 -0.651608	 -0.286650	 -0.572884
C	 -3.953810	 0.284959	 -0.000782
H	 -2.717793	 -1.238567	 -0.869075
H	 -2.719108	 -1.238472	 0.869576
H	 -3.983727	 0.924403	 -0.876454
H	 -4.852989	 -0.320147	 -0.001515
H	 -3.985140	 0.924399	 0.874841
C	 0.513052	 4.553240	 -1.156883
H	 0.912707	 4.747054	 -0.172536
H	 0.128803	 5.463246	 -1.588289
H	 1.294897	 4.146055	 -1.780694

	symmetry c1
}
set optking {
	frozen_dihedral = ("
		9 5 8 12
	")
}

ee = optimize('scf')
oeprop('DIPOLE', 'QUADRUPOLE', 'MULLIKEN_CHARGES')
f=open( 'psi4out.xyz', 'w' )
f.write( "20  " )
f.write( str(ee) + "\n" )
f.write( MOL.save_string_xyz() )
f.close()
--------------------------------------------------------------------------

    Molecular point group: c1
  Charge       = 0
  Multiplicity = 1
  Basis Set: CC-PVTZ
  Basis Set:
  @DF-RHF Final Energy:  -384.07259953872511
    Total Energy =                       -384.0725995387249441
    Molecular point group: c1
  Basis Set: CC-PVTZ
  Basis Set:
  Basis Set: CC-PVTZ
  Basis Set:
  @DF-RHF Final Energy:  -384.07402001004448
    Total Energy =                       -384.0740200100447055
  Basis Set: CC-PVTZ
  Basis Set:
  Basis Set: CC-PVTZ
  Basis Set:
  @DF-RHF Final Energy:  -384.07632056451985
    Total Energy =                       -384.0763205645199605
  Basis Set: CC-PVTZ
  Basis Set:
  Basis Set: CC-PVTZ
  Basis Set:
  @DF-RHF Final Energy:  -384.07646585835829
    Total Energy =                       -384.0764658583584605
  Basis Set: CC-PVTZ
  Basis Set:
  Basis Set: CC-PVTZ
  Basis Set:
  @DF-RHF Final Energy:  -384.07657407263997
    Total Energy =                       -384.0765740726399144
  Basis Set: CC-PVTZ
  Basis Set:
  Basis Set: CC-PVTZ
  Basis Set:
  @DF-RHF Final Energy:  -384.07660878869592
    Total Energy =                       -384.0766087886956939
  Basis Set: CC-PVTZ
  Basis Set:
  Charge       = 0
  Multiplicity = 1
  Basis Set: CC-PVTZ
  Basis Set:

    Orbital Energies (a.u.)
    -----------------------

    Doubly Occupied:

       1A    -20.596170     2A    -20.534108     3A    -11.364546
       4A    -11.278397     5A    -11.233680     6A    -11.218408
       7A    -11.217137     8A    -11.211741     9A     -1.472140
      10A     -1.365756    11A     -1.087718    12A     -1.022903
      13A     -0.968579    14A     -0.899213    15A     -0.799492
      16A     -0.763291    17A     -0.703757    18A     -0.686119
      19A     -0.675268    20A     -0.640018    21A     -0.607933
      22A     -0.592577    23A     -0.569051    24A     -0.549627
      25A     -0.541122    26A     -0.523985    27A     -0.513612
      28A     -0.474650    29A     -0.472897    30A     -0.463464
      31A     -0.454622    32A     -0.441150

  @DF-RHF Final Energy:  -384.07660937699933

   => Energetics <=

    Nuclear Repulsion Energy =            385.9038136780866921
    One-Electron Energy =               -1288.0745790168300573
    Two-Electron Energy =                 518.0941559617442635
    DFT Exchange-Correlation Energy =       0.0000000000000000
    Empirical Dispersion Energy =           0.0000000000000000
    PCM Polarization Energy =               0.0000000000000000
    EFP Energy =                            0.0000000000000000
    Total Energy =                       -384.0766093769991585
    Molecular point group: c1
  Basis Set: CC-PVTZ
  Basis Set:

  -Total Gradient:
     Atom            X                  Y                   Z
    ------   -----------------  -----------------  -----------------
       1       -0.000014865683    -0.000036866148     0.000014509865
       2       -0.000006391030     0.000022792488     0.000035824153
       3       -0.000012094109     0.000051176581    -0.000018675705
       4       -0.000045185163     0.000001150323     0.000009794178
       5       -0.003803860692     0.005176420492     0.001922667667
       6        0.000018324054     0.000041420206    -0.000000463124
       7        0.000001195682    -0.000001260413    -0.000007812066
       8       -0.002790531194     0.004253548518    -0.004206444105
       9        0.003602113353    -0.005063518983    -0.000944203915
      10       -0.000008942610    -0.000053511092    -0.000001438614
      11        0.000002713643     0.000054512825    -0.000020342203
      12        0.003031719811    -0.004430301505     0.003204615473
      13        0.000033402280     0.000000367193     0.000018728410
      14       -0.000037735864    -0.000011505836     0.000001646743
      15        0.000033026075     0.000005370437     0.000001015162
      16       -0.000006755436     0.000016310241     0.000014476262
      17        0.000014839837    -0.000030434410    -0.000041617579
      18       -0.000013821843    -0.000009614346     0.000007998172
      19       -0.000008098284    -0.000001888054     0.000006071944
      20        0.000010947166     0.000015831485     0.000003649283

  **** Optimization is complete! (in 7 steps) ****
    Final optimized geometry and variables:
    Molecular point group: c1

    Geometry (in Angstrom), charge = 0, multiplicity = 1:

    O            1.863051049100     0.279529709658     0.293845262052
    C            0.823036588234     0.656521305574    -0.126961609968
    C           -0.461048442452    -0.133563097295    -0.134146427024
    O            0.649369338256     1.855379516924    -0.659592185607
    C           -0.312501852108    -1.523149244276     0.467870538895
    H           -1.198997521039     0.461896131190     0.389624249612
    H           -0.797235184102    -0.182802648404    -1.164735962237
    C           -1.569688905899    -2.412571025905     0.412256475411
    H            0.051258349338    -1.457697428148     1.486155666786
    H            0.484260389004    -2.034094258487    -0.060024645670
    C           -2.918164892572    -1.707026598605     0.516795284066
    H           -1.533378115263    -3.035261628103    -0.476125014003
    H           -1.496488355322    -3.119728980122     1.232935595533
    H           -3.105393907835    -1.051695230751    -0.325518735472
    H           -3.720927950365    -2.434263642534     0.546984598860
    H           -2.983393812296    -1.111262459514     1.421517526682
    C            1.774486320938     2.708382375471    -0.718356745536
    H            2.153134213025     2.908878455389     0.272942516689
    H            1.432044529717     3.621507666868    -1.177530429286
    H            2.559559489150     2.264166854013    -1.312151398541

  Mulliken Charges: (a.u.)
   Center  Symbol    Alpha    Beta     Spin     Total
       1     O     4.19644  4.19644  0.00000 -0.39288
       2     C     2.81028  2.81028  0.00000  0.37944
       3     C     3.09976  3.09976  0.00000 -0.19953
       4     O     4.14656  4.14656  0.00000 -0.29312
       5     C     3.09078  3.09078  0.00000 -0.18157
       6     H     0.43736  0.43736  0.00000  0.12528
       7     H     0.43872  0.43872  0.00000  0.12255
       8     C     3.09078  3.09078  0.00000 -0.18156
       9     H     0.44430  0.44430  0.00000  0.11141
      10     H     0.44427  0.44427  0.00000  0.11146
      11     C     3.15847  3.15847  0.00000 -0.31693
      12     H     0.45097  0.45097  0.00000  0.09805
      13     H     0.44989  0.44989  0.00000  0.10021
      14     H     0.45307  0.45307  0.00000  0.09387
      15     H     0.44355  0.44355  0.00000  0.11291
      16     H     0.45278  0.45278  0.00000  0.09444
      17     C     3.03812  3.03812  0.00000 -0.07624
      18     H     0.45437  0.45437  0.00000  0.09125
      19     H     0.44521  0.44521  0.00000  0.10959
      20     H     0.45432  0.45432  0.00000  0.09137

   Total alpha = 32.00000, Total beta = 32.00000, Total charge = -0.00000
