  ==> Input File <==

--------------------------------------------------------------------------
set {
	reference rhf
	basis 6-31G*
}

set_num_threads( 4 )
memory 2 gb

molecule MOL {
0 1

H	 -1.923108	 0.656960	 -0.944967
N	 -1.852125	 0.165761	 -0.074816
C	 -0.563778	 -0.502042	 0.037919
H	 -2.597647	 -0.504085	 -0.058682
C	 0.575259	 0.508231	 -0.048326
H	 -0.482092	 -1.204004	 -0.786564
H	 -0.460411	 -1.085169	 0.956626
C	 1.954651	 -0.143624	 0.035137
H	 0.475158	 1.060484	 -0.977307
H	 0.469181	 1.234488	 0.755973
H	 2.103292	 -0.853109	 -0.774172
H	 2.742821	 0.599562	 -0.030094
H	 2.083613	 -0.679371	 0.971560

	symmetry c1
}
set optking {
	frozen_dihedral = ("
		1 2 3 6
	")
}

ee = optimize('scf')
oeprop('DIPOLE', 'QUADRUPOLE', 'MULLIKEN_CHARGES')
f=open( 'psi4out.xyz', 'w' )
f.write( "13  " )
f.write( str(ee) + "\n" )
f.write( MOL.save_string_xyz() )
f.close()
--------------------------------------------------------------------------

    Molecular point group: c1
  Charge       = 0
  Multiplicity = 1
  Basis Set: 6-31G*
  Basis Set:
  @DF-RHF Final Energy:  -173.28005892513920
    Total Energy =                       -173.2800589251391443
    Molecular point group: c1
  Basis Set: 6-31G*
  Basis Set:
  Basis Set: 6-31G*
  Basis Set:
  @DF-RHF Final Energy:  -173.28209968206673
    Total Energy =                       -173.2820996820667290
  Basis Set: 6-31G*
  Basis Set:
  Basis Set: 6-31G*
  Basis Set:
  @DF-RHF Final Energy:  -173.28239659619567
    Total Energy =                       -173.2823965961958095
  Basis Set: 6-31G*
  Basis Set:
  Basis Set: 6-31G*
  Basis Set:
  @DF-RHF Final Energy:  -173.28240136537516
    Total Energy =                       -173.2824013653751365
  Basis Set: 6-31G*
  Basis Set:
  Charge       = 0
  Multiplicity = 1
  Basis Set: 6-31G*
  Basis Set:

    Orbital Energies (a.u.)
    -----------------------

    Doubly Occupied:

       1A    -15.532655     2A    -11.240060     3A    -11.212542
       4A    -11.209418     5A     -1.176835     6A     -1.035276
       7A     -0.898642     8A     -0.800278     9A     -0.660720
      10A     -0.630900    11A     -0.602775    12A     -0.565576
      13A     -0.531580    14A     -0.491941    15A     -0.476695
      16A     -0.469089    17A     -0.381302

  @DF-RHF Final Energy:  -173.28240178837723

   => Energetics <=

    Nuclear Repulsion Energy =            131.7947148697504076
    One-Electron Energy =                -494.3216630565804053
    Two-Electron Energy =                 189.2445463984527976
    DFT Exchange-Correlation Energy =       0.0000000000000000
    Empirical Dispersion Energy =           0.0000000000000000
    PCM Polarization Energy =               0.0000000000000000
    EFP Energy =                            0.0000000000000000
    Total Energy =                       -173.2824017883772001
    Molecular point group: c1
  Basis Set: 6-31G*
  Basis Set:

  -Total Gradient:
     Atom            X                  Y                   Z
    ------   -----------------  -----------------  -----------------
       1        0.000194453527     0.000388630135     0.000187855176
       2       -0.000353154303    -0.000561766793    -0.000155117971
       3        0.000336034458     0.000515192180    -0.000280574351
       4       -0.000022590304    -0.000001548842    -0.000004427868
       5       -0.000001604043    -0.000032428362    -0.000012409605
       6       -0.000174171447    -0.000289526021     0.000272101311
       7        0.000006015197    -0.000010066558     0.000000552793
       8        0.000017962703     0.000010641805    -0.000000615191
       9        0.000002467152    -0.000013003877     0.000004435733
      10       -0.000012319814    -0.000007613466    -0.000008901014
      11        0.000002576856     0.000002098914    -0.000003223681
      12        0.000013927988    -0.000002406235     0.000007518731
      13       -0.000009597969     0.000001797123    -0.000007194063

  **** Optimization is complete! (in 5 steps) ****
    Final optimized geometry and variables:
    Molecular point group: c1

    Geometry (in Angstrom), charge = 0, multiplicity = 1:

    H           -1.960140660293     0.652373986370    -0.899060139108
    N           -1.853160559931     0.170820156447    -0.026477479339
    C           -0.564214315947    -0.502530701184     0.031047814073
    H           -2.604062862151    -0.489030559655     0.036905986992
    C            0.574946782801     0.509414009625    -0.024319204719
    H           -0.429997652774    -1.243676452048    -0.761082530399
    H           -0.515976063641    -1.043362148870     0.971588928771
    C            1.953512706505    -0.142732818888     0.069390738289
    H            0.505123550800     1.074858698329    -0.952252330840
    H            0.440320758894     1.222838976725     0.782572238202
    H            2.117720417082    -0.840809272819    -0.746821819299
    H            2.741825406127     0.602058621499     0.029213988979
    H            2.065718257153    -0.691150088437     1.000483016955

  Mulliken Charges: (a.u.)
   Center  Symbol    Alpha    Beta     Spin     Total
       1     H     0.33533  0.33533  0.00000  0.32935
       2     N     3.92204  3.92204  0.00000 -0.84407
       3     C     3.05851  3.05851  0.00000 -0.11701
       4     H     0.33235  0.33235  0.00000  0.33529
       5     C     3.15199  3.15199  0.00000 -0.30399
       6     H     0.43525  0.43525  0.00000  0.12949
       7     H     0.42097  0.42097  0.00000  0.15806
       8     C     3.24367  3.24367  0.00000 -0.48735
       9     H     0.42692  0.42692  0.00000  0.14616
      10     H     0.41228  0.41228  0.00000  0.17544
      11     H     0.42221  0.42221  0.00000  0.15559
      12     H     0.41763  0.41763  0.00000  0.16474
      13     H     0.42085  0.42085  0.00000  0.15830

   Total alpha = 17.00000, Total beta = 17.00000, Total charge = -0.00000
