  ==> Input File <==

--------------------------------------------------------------------------
set {
	reference rhf
	basis 6-31G*
}

set_num_threads( 4 )
memory 2 gb

molecule MOL {
0 1

O	 3.225979	 0.970355	 -0.599647
C	 2.701189	 0.057885	 -0.047330
C	 1.245376	 -0.013843	 0.345420
O	 3.347903	 -1.046386	 0.304773
C	 0.949932	 0.666649	 1.680245
H	 0.674437	 0.421234	 -0.468170
H	 0.969565	 -1.064976	 0.372710
C	 -0.502569	 0.511911	 2.143701
H	 1.203197	 1.720200	 1.609482
H	 1.609509	 0.250364	 2.433960
C	 -1.538930	 1.219351	 1.265866
H	 -0.577194	 0.905356	 3.154817
H	 -0.750201	 -0.546328	 2.213121
C	 -2.958272	 1.127799	 1.829857
H	 -1.261578	 2.266924	 1.158688
H	 -1.531608	 0.797302	 0.263472
C	 -4.003123	 1.826792	 0.958175
H	 -2.977117	 1.560591	 2.828642
H	 -3.232212	 0.080492	 1.947346
C	 -5.417234	 1.734019	 1.530350
H	 -3.730375	 2.873228	 0.838915
H	 -3.988814	 1.392604	 -0.039350
H	 -6.134767	 2.238403	 0.890545
H	 -5.472810	 2.191312	 2.514215
H	 -5.732901	 0.699247	 1.629717
C	 4.728119	 -1.109107	 -0.004993
H	 4.882018	 -1.033965	 -1.071845
H	 5.068212	 -2.067527	 0.355250
H	 5.265056	 -0.311663	 0.488280

	symmetry c1
}
set optking {
	frozen_dihedral = ("
		6 3 2 1
	")
}

ee = optimize('scf')
oeprop('DIPOLE', 'QUADRUPOLE', 'MULLIKEN_CHARGES')
f=open( 'psi4out.xyz', 'w' )
f.write( "29  " )
f.write( str(ee) + "\n" )
f.write( MOL.save_string_xyz() )
f.close()
--------------------------------------------------------------------------

    Molecular point group: c1
  Charge       = 0
  Multiplicity = 1
  Basis Set: 6-31G*
  Basis Set:
  @DF-RHF Final Energy:  -501.04183460980244
    Total Energy =                       -501.0418346098022084
    Molecular point group: c1
  Basis Set: 6-31G*
  Basis Set:
  Basis Set: 6-31G*
  Basis Set:
  @DF-RHF Final Energy:  -501.04159244553023
    Total Energy =                       -501.0415924455305685
  Basis Set: 6-31G*
  Basis Set:
  Basis Set: 6-31G*
  Basis Set:
  @DF-RHF Final Energy:  -501.04233426418466
    Total Energy =                       -501.0423342641850013
  Basis Set: 6-31G*
  Basis Set:
  Basis Set: 6-31G*
  Basis Set:
  @DF-RHF Final Energy:  -501.04262259960774
    Total Energy =                       -501.0426225996073981
  Basis Set: 6-31G*
  Basis Set:
  Basis Set: 6-31G*
  Basis Set:
  @DF-RHF Final Energy:  -501.04261302043574
    Total Energy =                       -501.0426130204352830
  Basis Set: 6-31G*
  Basis Set:
  Basis Set: 6-31G*
  Basis Set:
  @DF-RHF Final Energy:  -501.04262445243148
    Total Energy =                       -501.0426244524319372
  Basis Set: 6-31G*
  Basis Set:
  Charge       = 0
  Multiplicity = 1
  Basis Set: 6-31G*
  Basis Set:

    Orbital Energies (a.u.)
    -----------------------

    Doubly Occupied:

       1A    -20.604650     2A    -20.541680     3A    -11.370224
       4A    -11.280249     5A    -11.232491     6A    -11.229215
       7A    -11.221423     8A    -11.217192     9A    -11.216212
      10A    -11.215390    11A    -11.209304    12A     -1.468368
      13A     -1.360436    14A     -1.100695    15A     -1.068121
      16A     -1.019370    17A     -0.975754    18A     -0.930510
      19A     -0.863665    20A     -0.799469    21A     -0.791111
      22A     -0.771108    23A     -0.698124    24A     -0.678304
      25A     -0.672530    26A     -0.652183    27A     -0.626641
      28A     -0.604033    29A     -0.595651    30A     -0.579532
      31A     -0.570246    32A     -0.547499    33A     -0.541710
      34A     -0.528726    35A     -0.520279    36A     -0.512584
      37A     -0.496410    38A     -0.482481    39A     -0.470947
      40A     -0.464139    41A     -0.462574    42A     -0.452868
      43A     -0.444739    44A     -0.428057

  @DF-RHF Final Energy:  -501.04262527647552

   => Energetics <=

    Nuclear Repulsion Energy =            611.3893051330405797
    One-Electron Energy =               -1893.8300715987179501
    Two-Electron Energy =                 781.3981411892017377
    DFT Exchange-Correlation Energy =       0.0000000000000000
    Empirical Dispersion Energy =           0.0000000000000000
    PCM Polarization Energy =               0.0000000000000000
    EFP Energy =                            0.0000000000000000
    Total Energy =                       -501.0426252764756327
    Molecular point group: c1
  Basis Set: 6-31G*
  Basis Set:

  -Total Gradient:
     Atom            X                  Y                   Z
    ------   -----------------  -----------------  -----------------
       1        0.000091002502     0.000110359181     0.000359266236
       2       -0.000154260388    -0.000234978386    -0.000533598227
       3        0.000048032037     0.000423973515     0.000359857953
       4       -0.000003374422     0.000035025379     0.000001284827
       5        0.000008573060     0.000011982065     0.000037277235
       6       -0.000022605832    -0.000326338077    -0.000177515939
       7        0.000000265688     0.000006708109    -0.000013367942
       8       -0.000006148590     0.000007307569    -0.000009445138
       9        0.000005166204     0.000000814034    -0.000005287568
      10       -0.000004024158    -0.000001659604    -0.000000148019
      11        0.000012534390    -0.000016845232    -0.000011344357
      12       -0.000001992156     0.000002252907     0.000004610651
      13        0.000009908585    -0.000003463933    -0.000004913817
      14        0.000000772268     0.000003253163     0.000011113462
      15        0.000006294148     0.000003298940    -0.000007701254
      16        0.000004836011    -0.000009005810    -0.000015631873
      17        0.000007893643     0.000004487274     0.000002166987
      18       -0.000003833913     0.000000551705     0.000012365027
      19       -0.000003240866    -0.000006462231    -0.000003021859
      20        0.000002379891     0.000000904717     0.000002019392
      21        0.000001678748     0.000008777576    -0.000002812607
      22        0.000002441757    -0.000003830296    -0.000005170382
      23        0.000001849491     0.000001110868    -0.000001928482
      24       -0.000001848336     0.000003002211     0.000006390798
      25       -0.000002675971    -0.000007601188     0.000001205320
      26       -0.000015752524    -0.000017332070    -0.000011361779
      27        0.000005682696     0.000000315230    -0.000001893017
      28        0.000011579589    -0.000001415389     0.000002631358
      29       -0.000001133552     0.000004807775     0.000004953023

  **** Optimization is complete! (in 7 steps) ****
    Final optimized geometry and variables:
    Molecular point group: c1

    Geometry (in Angstrom), charge = 0, multiplicity = 1:

    O            2.969314140753     0.461611762874    -1.391889301072
    C            2.476075496572    -0.500441463876    -0.895386810578
    C            1.017742943411    -0.617968638634    -0.529739162599
    O            3.168742401288    -1.581186127489    -0.562271447057
    C            0.746162003489     0.081414585369     0.812629217021
    H            0.450313826561    -0.152943091159    -1.325286481411
    H            0.742193361818    -1.663945628048    -0.469792804512
    C           -0.703541589339    -0.041733058941     1.292864103683
    H            1.017770547601     1.129216763420     0.723906041779
    H            1.400218347767    -0.349788399118     1.566055662393
    C           -1.734427732116     0.670003816603     0.412673488487
    H           -0.760130588922     0.368826317127     2.298447934231
    H           -0.965550429143    -1.094652737089     1.380514506963
    C           -3.148885268427     0.615196349587     0.993674814285
    H           -1.438136164734     1.709580016321     0.283150996011
    H           -1.745255197854     0.229453819820    -0.581358711441
    C           -4.189546099931     1.317740021959     0.119859657082
    H           -3.149068583232     1.066636490609     1.984397451770
    H           -3.441078346902    -0.424442858688     1.133367569616
    C           -5.598929548789     1.262032129274     0.708259329447
    H           -3.898489826016     2.356383651101    -0.021590632257
    H           -4.193786503608     0.865117384255    -0.869462647663
    H           -6.313575170604     1.767892453531     0.066449165810
    H           -5.635649276717     1.738479394684     1.683908586718
    H           -5.932760982635     0.235380607242     0.830144321967
    C            4.561269451660    -1.554277807210    -0.818424434699
    H            4.750230051460    -1.424619961491    -1.874260184572
    H            4.941461014577    -2.507038508957    -0.484232869855
    H            5.032330723070    -0.749885413865    -0.272005860720

  Mulliken Charges: (a.u.)
   Center  Symbol    Alpha    Beta     Spin     Total
       1     O     4.28654  4.28654  0.00000 -0.57308
       2     C     2.61533  2.61533  0.00000  0.76933
       3     C     3.19695  3.19695  0.00000 -0.39390
       4     O     4.30272  4.30272  0.00000 -0.60543
       5     C     3.16680  3.16680  0.00000 -0.33360
       6     H     0.39891  0.39891  0.00000  0.20219
       7     H     0.40371  0.40371  0.00000  0.19258
       8     C     3.15454  3.15454  0.00000 -0.30907
       9     H     0.40751  0.40751  0.00000  0.18499
      10     H     0.41243  0.41243  0.00000  0.17514
      11     C     3.15532  3.15532  0.00000 -0.31063
      12     H     0.41828  0.41828  0.00000  0.16344
      13     H     0.42179  0.42179  0.00000  0.15641
      14     C     3.15068  3.15068  0.00000 -0.30136
      15     H     0.42093  0.42093  0.00000  0.15814
      16     H     0.42217  0.42217  0.00000  0.15565
      17     C     3.15161  3.15161  0.00000 -0.30322
      18     H     0.42352  0.42352  0.00000  0.15297
      19     H     0.42391  0.42391  0.00000  0.15217
      20     C     3.23943  3.23943  0.00000 -0.47887
      21     H     0.42226  0.42226  0.00000  0.15548
      22     H     0.42297  0.42297  0.00000  0.15407
      23     H     0.41893  0.41893  0.00000  0.16213
      24     H     0.42165  0.42165  0.00000  0.15669
      25     H     0.42187  0.42187  0.00000  0.15626
      26     C     3.09299  3.09299  0.00000 -0.18598
      27     H     0.40846  0.40846  0.00000  0.18307
      28     H     0.40874  0.40874  0.00000  0.18252
      29     H     0.40905  0.40905  0.00000  0.18191

   Total alpha = 44.00000, Total beta = 44.00000, Total charge = -0.00000
