  ==> Input File <==

--------------------------------------------------------------------------
set {
	reference rhf
	basis cc-pvtz
}

set_num_threads( 4 )
memory 2 gb

molecule MOL {
0 1

H	 -3.162190	 0.493205	 -0.000107
C	 -2.363908	 -0.234727	 0.000005
O	 -1.158738	 0.454634	 -0.000087
H	 -2.464314	 -0.863616	 -0.882153
H	 -2.464327	 -0.863359	 0.882345
C	 -0.028611	 -0.359694	 0.000037
C	 1.212847	 0.509314	 -0.000053
H	 -0.034155	 -1.007047	 -0.877198
H	 -0.034195	 -1.006836	 0.877430
C	 1.043367	 1.766952	 0.844917
H	 2.046150	 -0.078753	 0.368336
H	 1.447374	 0.776462	 -1.024543
H	 0.831752	 1.522002	 1.880438
H	 1.943896	 2.368414	 0.827273
H	 0.229183	 2.383071	 0.478079

	symmetry c1
}
set optking {
	frozen_dihedral = ("
		11 7 6 8
	")
}

ee = optimize('scf')
oeprop('DIPOLE', 'QUADRUPOLE', 'MULLIKEN_CHARGES')
f=open( 'psi4out.xyz', 'w' )
f.write( "15  " )
f.write( str(ee) + "\n" )
f.write( MOL.save_string_xyz() )
f.close()
--------------------------------------------------------------------------

    Molecular point group: c1
  Charge       = 0
  Multiplicity = 1
  Basis Set: CC-PVTZ
  Basis Set:
  @DF-RHF Final Energy:  -232.22445353979762
    Total Energy =                       -232.2244535397977643
    Molecular point group: c1
  Basis Set: CC-PVTZ
  Basis Set:
  Basis Set: CC-PVTZ
  Basis Set:
  @DF-RHF Final Energy:  -232.22504503341136
    Total Energy =                       -232.2250450334113339
  Basis Set: CC-PVTZ
  Basis Set:
  Basis Set: CC-PVTZ
  Basis Set:
  @DF-RHF Final Energy:  -232.22544247573890
    Total Energy =                       -232.2254424757388733
  Basis Set: CC-PVTZ
  Basis Set:
  Basis Set: CC-PVTZ
  Basis Set:
  @DF-RHF Final Energy:  -232.22545542273809
    Total Energy =                       -232.2254554227381504
  Basis Set: CC-PVTZ
  Basis Set:
  Basis Set: CC-PVTZ
  Basis Set:
  @DF-RHF Final Energy:  -232.22545665519121
    Total Energy =                       -232.2254566551912376
  Basis Set: CC-PVTZ
  Basis Set:
  Charge       = 0
  Multiplicity = 1
  Basis Set: CC-PVTZ
  Basis Set:

    Orbital Energies (a.u.)
    -----------------------

    Doubly Occupied:

       1A    -20.547196     2A    -11.265374     3A    -11.262077
       4A    -11.214153     5A    -11.199987     6A     -1.381637
       7A     -1.053100     8A     -0.949726     9A     -0.888591
      10A     -0.795617    11A     -0.675411    12A     -0.659399
      13A     -0.635045    14A     -0.599980    15A     -0.557295
      16A     -0.545353    17A     -0.503407    18A     -0.483713
      19A     -0.475799    20A     -0.459864    21A     -0.415702

  @DF-RHF Final Energy:  -232.22545671103651

   => Energetics <=

    Nuclear Repulsion Energy =            193.5921046241678312
    One-Electron Energy =                -698.4982800296708092
    Two-Electron Energy =                 272.6807186944665204
    DFT Exchange-Correlation Energy =       0.0000000000000000
    Empirical Dispersion Energy =           0.0000000000000000
    PCM Polarization Energy =               0.0000000000000000
    EFP Energy =                            0.0000000000000000
    Total Energy =                       -232.2254567110364292
    Molecular point group: c1
  Basis Set: CC-PVTZ
  Basis Set:

  -Total Gradient:
     Atom            X                  Y                   Z
    ------   -----------------  -----------------  -----------------
       1        0.000002838727     0.000001291606    -0.000000162984
       2       -0.000011211419    -0.000001964269     0.000002307649
       3        0.000017587400     0.000005002487     0.000016093158
       4        0.000005367804     0.000001855537     0.000000433111
       5        0.000003421056     0.000001240864    -0.000001094343
       6        0.003281428588    -0.004444972960     0.004721688932
       7        0.000602011113    -0.001177543058    -0.007006267747
       8       -0.002845007624     0.003878319050    -0.002923427673
       9        0.000006750114    -0.000007077797    -0.000002457549
      10       -0.000004211553     0.000006503791    -0.000005560464
      11       -0.001061928115     0.001738155238     0.005194523186
      12        0.000006790355    -0.000007699250    -0.000001511845
      13        0.000000229131     0.000002088281     0.000001673761
      14       -0.000002434292     0.000004747914     0.000002460839
      15       -0.000001631287     0.000000052565     0.000001301968

  **** Optimization is complete! (in 6 steps) ****
    Final optimized geometry and variables:
    Molecular point group: c1

    Geometry (in Angstrom), charge = 0, multiplicity = 1:

    H           -2.897055479803     0.014741195086    -0.217589418771
    C           -2.081188460352    -0.693087444833    -0.188075022784
    O           -0.893328762163     0.024064592912    -0.186177847286
    H           -2.153225418847    -1.345468704852    -1.056070955851
    H           -2.180656507983    -1.303335430182     0.707400286126
    C            0.256119665155    -0.768241355388    -0.144054288835
    C            1.498527701803     0.112647431462    -0.186568465396
    H            0.245116833502    -1.428291698815    -1.009807582035
    H            0.250220242654    -1.377721933323     0.758256814245
    C            1.396676818278     1.358822380285     0.691120894935
    H            2.331329471757    -0.479995927155     0.179796709435
    H            1.713269619343     0.400090042035    -1.209116754657
    H            1.178795932724     1.094038317919     1.720606229746
    H            2.334082664330     1.903320108553     0.679909851523
    H            0.613975626059     2.019954191055     0.348379836427

  Mulliken Charges: (a.u.)
   Center  Symbol    Alpha    Beta     Spin     Total
       1     H     0.44753  0.44753  0.00000  0.10493
       2     C     3.03014  3.03014  0.00000 -0.06029
       3     O     4.17379  4.17379  0.00000 -0.34758
       4     H     0.47210  0.47210  0.00000  0.05580
       5     H     0.47255  0.47255  0.00000  0.05489
       6     C     2.97224  2.97224  0.00000  0.05552
       7     C     3.08484  3.08484  0.00000 -0.16967
       8     H     0.46675  0.46675  0.00000  0.06651
       9     H     0.47116  0.47116  0.00000  0.05768
      10     C     3.14396  3.14396  0.00000 -0.28793
      11     H     0.45659  0.45659  0.00000  0.08682
      12     H     0.45241  0.45241  0.00000  0.09519
      13     H     0.45802  0.45802  0.00000  0.08397
      14     H     0.45271  0.45271  0.00000  0.09457
      15     H     0.44521  0.44521  0.00000  0.10959

   Total alpha = 21.00000, Total beta = 21.00000, Total charge = -0.00000
