  ==> Input File <==

--------------------------------------------------------------------------
set {
	reference rhf
	basis 6-31G*
}

set_num_threads( 1 )
memory 2 gb

molecule MOL {
0 1

O	 -0.291628	 1.323815	 -0.000732
C	 -0.449655	 0.146360	 0.000961
C	 -1.783294	 -0.549321	 -0.000296
O	 0.550821	 -0.724572	 0.000672
H	 -1.863538	 -1.185371	 -0.874187
H	 -2.574672	 0.185258	 -0.002793
H	 -1.866414	 -1.182381	 0.875436
C	 0.205804	 -2.098341	 0.002869
H	 -0.367596	 -2.344211	 0.884978
H	 1.140462	 -2.637009	 0.001848
H	 -0.370703	 -2.346100	 -0.876675

	symmetry c1
}
set optking {
	frozen_dihedral = ("
		2 4 8 9
	")
}

ee = energy('scf')
oeprop('DIPOLE', 'QUADRUPOLE', 'MULLIKEN_CHARGES')
f=open( 'psi4out.xyz', 'w' )
f.write( "11  " )
f.write( str(ee) + "\n" )
f.write( MOL.save_string_xyz() )
f.close()
--------------------------------------------------------------------------

    Molecular point group: c1

    Geometry (in Angstrom), charge = 0, multiplicity = 1:

       Center              X                  Y                   Z               Mass
    ------------   -----------------  -----------------  -----------------  -----------------
           O          0.061286027896     1.729221774965    -0.001408996698    15.994914619560
           C         -0.096740972104     0.551766774965     0.000284003302    12.000000000000
           C         -1.430379972104    -0.143914225035    -0.000972996698    12.000000000000
           O          0.903735027896    -0.319165225035    -0.000004996698    15.994914619560
           H         -1.510623972104    -0.779964225035    -0.874863996698     1.007825032070
           H         -2.221757972104     0.590664774965    -0.003469996698     1.007825032070
           H         -1.513499972104    -0.776974225035     0.874759003302     1.007825032070
           C          0.558718027896    -1.692934225035     0.002192003302    12.000000000000
           H         -0.014681972104    -1.938804225035     0.884301003302     1.007825032070
           H          1.493376027896    -2.231602225035     0.001171003302     1.007825032070
           H         -0.017788972104    -1.940693225035    -0.877351996698     1.007825032070

  Charge       = 0
  Multiplicity = 1
  Basis Set: 6-31G*
  Basis Set:

    Orbital Energies (a.u.)
    -----------------------

    Doubly Occupied:

       1A    -20.611288     2A    -20.543799     3A    -11.379188
       4A    -11.300314     5A    -11.241934     6A     -1.471257
       7A     -1.370717     8A     -1.027527     9A     -0.991824
      10A     -0.785321    11A     -0.702983    12A     -0.700321
      13A     -0.684958    14A     -0.604593    15A     -0.589933
      16A     -0.565337    17A     -0.557459    18A     -0.531194
      19A     -0.450619    20A     -0.435386

  @DF-RHF Final Energy:  -266.80996007218914

   => Energetics <=

    Nuclear Repulsion Energy =            185.2977113558959559
    One-Electron Energy =                -731.1233563153400610
    Two-Electron Energy =                 279.0156848872555884
    DFT Exchange-Correlation Energy =       0.0000000000000000
    Empirical Dispersion Energy =           0.0000000000000000
    PCM Polarization Energy =               0.0000000000000000
    EFP Energy =                            0.0000000000000000
    Total Energy =                       -266.8099600721885736

  Mulliken Charges: (a.u.)
   Center  Symbol    Alpha    Beta     Spin     Total
       1     O     4.27046  4.27046  0.00000 -0.54093
       2     C     2.60660  2.60660  0.00000  0.78680
       3     C     3.31907  3.31907  0.00000 -0.63814
       4     O     4.29224  4.29224  0.00000 -0.58447
       5     H     0.40189  0.40189  0.00000  0.19621
       6     H     0.38718  0.38718  0.00000  0.22563
       7     H     0.40194  0.40194  0.00000  0.19613
       8     C     3.09888  3.09888  0.00000 -0.19775
       9     H     0.41391  0.41391  0.00000  0.17217
      10     H     0.39387  0.39387  0.00000  0.21226
      11     H     0.41396  0.41396  0.00000  0.17209

   Total alpha = 20.00000, Total beta = 20.00000, Total charge =  0.00000
