                              Psi4 1.0.54 Driver

  ==> Input File <==

--------------------------------------------------------------------------
set {
	reference rhf
	basis cc-pvtz
}

set_num_threads( 4 )
memory 2 gb

molecule MOL {
0 1

H	 1.428434	 -2.017283	 -0.793604
C	 0.503980	 -1.489007	 -0.955288
O	 0.462329	 -0.453336	 -0.000137
H	 -0.324458	 -2.173672	 -0.824358
H	 0.493030	 -1.091369	 -1.962265
C	 -0.590565	 0.341382	 0.000062
O	 -1.693898	 -0.053880	 0.000252
H	 -0.340426	 1.403822	 0.000200

	symmetry c1
}
set optking {
	frozen_dihedral = ("
		2 3 6 7
	")
}

ee,wfn = optimize('scf', return_wfn=True)
oeprop( wfn, 'DIPOLE', 'QUADRUPOLE', 'MULLIKEN_CHARGES')
f=open( 'psi4out.xyz', 'w' )
f.write( "8  " )
f.write( str(ee) + "\n" )
f.write( MOL.save_string_xyz() )
f.close()
--------------------------------------------------------------------------

    Molecular point group: c1
  Charge       = 0
  Multiplicity = 1
  Basis Set: CC-PVTZ
  Basis Set:
  @DF-RHF Final Energy:  -227.86619489889694
    Total Energy =                       -227.8661948988967367
    Molecular point group: c1
  Basis Set: CC-PVTZ
  Basis Set:
  Basis Set: CC-PVTZ
  Basis Set:
  @DF-RHF Final Energy:  -227.85931860699162
    Total Energy =                       -227.8593186069916214
  Basis Set: CC-PVTZ
  Basis Set:
  Basis Set: CC-PVTZ
  Basis Set:
  @DF-RHF Final Energy:  -227.86580140206314
    Total Energy =                       -227.8658014020630276
  Basis Set: CC-PVTZ
  Basis Set:
  Basis Set: CC-PVTZ
  Basis Set:
  @DF-RHF Final Energy:  -227.86732892406036
    Total Energy =                       -227.8673289240603594
  Basis Set: CC-PVTZ
  Basis Set:
  Basis Set: CC-PVTZ
  Basis Set:
  @DF-RHF Final Energy:  -227.86733922809583
    Total Energy =                       -227.8673392280958296
  Basis Set: CC-PVTZ
  Basis Set:
  Basis Set: CC-PVTZ
  Basis Set:
  @DF-RHF Final Energy:  -227.86737007594843
    Total Energy =                       -227.8673700759484859
  Basis Set: CC-PVTZ
  Basis Set:
  Basis Set: CC-PVTZ
  Basis Set:
  @DF-RHF Final Energy:  -227.86737115500088
    Total Energy =                       -227.8673711550008250
  Basis Set: CC-PVTZ
  Basis Set:
  Charge       = 0
  Multiplicity = 1
  Basis Set: CC-PVTZ
  Basis Set:

    Orbital Energies (a.u.)
    -----------------------

    Doubly Occupied:

       1A    -20.597825     2A    -20.555782     3A    -11.374598
       4A    -11.291144     5A     -1.475401     6A     -1.381806
       7A     -0.993356     8A     -0.824576     9A     -0.743656
      10A     -0.687515    11A     -0.674545    12A     -0.615941
      13A     -0.562722    14A     -0.525073    15A     -0.472605
      16A     -0.458095

  @DF-RHF Final Energy:  -227.86737136499920

   => Energetics <=

    Nuclear Repulsion Energy =            122.9212665253293153
    One-Electron Energy =                -555.1079977972116239
    Two-Electron Energy =                 204.3193599068831361
    DFT Exchange-Correlation Energy =       0.0000000000000000
    Empirical Dispersion Energy =           0.0000000000000000
    PCM Polarization Energy =               0.0000000000000000
    EFP Energy =                            0.0000000000000000
    Total Energy =                       -227.8673713649991726
    Molecular point group: c1
  Basis Set: CC-PVTZ
  Basis Set:

  -Total Gradient:
     Atom            X                  Y                   Z
    ------   -----------------  -----------------  -----------------
       1        0.000000240381     0.000013782615     0.000011802287
       2        0.003575208195     0.004955522629    -0.004869575954
       3       -0.005444379696    -0.007612910680     0.012512506572
       4        0.000000204912     0.000000013450     0.000003280256
       5        0.000001585674    -0.000005300260    -0.000002798159
       6        0.002008228940     0.002895735911    -0.017888671881
       7       -0.000152576868    -0.000248158598     0.010227366752
       8        0.000011488463     0.000001314935     0.000006090128

  **** Optimization is complete! (in 8 steps) ****
    Final optimized geometry and variables:
    Molecular point group: c1

    Geometry (in Angstrom), charge = 0, multiplicity = 1:

    H            1.774707416809    -1.594004624873    -0.497100050763
    C            0.879278361263    -1.036716628377    -0.716674684818
    O            0.787907542082    -0.022213490792     0.268763319698
    H            0.020045375642    -1.689208889017    -0.680907844972
    H            0.961457613690    -0.590718594788    -1.699175401237
    C           -0.291087908858     0.749909418855     0.263505436172
    O           -1.401306788887     0.368402867536     0.227345607891
    H           -0.024602176650     1.794619785333     0.399383207108

  Mulliken Charges: (a.u.)
   Center  Symbol    Alpha    Beta     Spin     Total
       1     H     0.44568  0.44568  0.00000  0.10863
       2     C     3.02588  3.02588  0.00000 -0.05177
       3     O     4.15094  4.15094  0.00000 -0.30189
       4     H     0.44821  0.44821  0.00000  0.10358
       5     H     0.46176  0.46176  0.00000  0.07648
       6     C     2.83161  2.83161  0.00000  0.33678
       7     O     4.17846  4.17846  0.00000 -0.35691
       8     H     0.45746  0.45746  0.00000  0.08509

   Total alpha = 16.00000, Total beta = 16.00000, Total charge =  0.00000

*** Psi4 exiting successfully. Buy a developer a beer!
