  ==> Input File <==

--------------------------------------------------------------------------
set {
	reference rhf
	basis 6-31G*
}

set_num_threads( 4 )
memory 2 gb

molecule MOL {
0 1

H	 -1.064088	 0.069849	 1.843055
C	 -0.605803	 -0.484033	 1.049282
C	 -0.601806	 -1.867295	 1.042359
C	 0.000000	 0.183220	 0.000000
H	 -1.066948	 -2.404452	 1.848008
C	 0.000000	 -2.555744	 0.000000
N	 0.000000	 1.642018	 0.000000
C	 0.605803	 -0.484034	 -1.049282
H	 0.000000	 -3.630640	 0.000000
C	 0.601806	 -1.867295	 -1.042359
O	 1.057097	 2.196749	 0.000000
O	 -1.057097	 2.196749	 0.000000
H	 1.064088	 0.069849	 -1.843055
H	 1.066948	 -2.404452	 -1.848008

	symmetry c1
}
set optking {
	frozen_dihedral = ("
		2 4 7 11
	")
}

ee = optimize('scf')
oeprop('DIPOLE', 'QUADRUPOLE', 'MULLIKEN_CHARGES')
f=open( 'psi4out.xyz', 'w' )
f.write( "14  " )
f.write( str(ee) + "\n" )
f.write( MOL.save_string_xyz() )
f.close()
--------------------------------------------------------------------------

    Molecular point group: c1
  Charge       = 0
  Multiplicity = 1
  Basis Set: 6-31G*
  Basis Set:
  @DF-RHF Final Energy:  -434.16613391976796
    Total Energy =                       -434.1661339197677307
    Molecular point group: c1
  Basis Set: 6-31G*
  Basis Set:
  Basis Set: 6-31G*
  Basis Set:
  @DF-RHF Final Energy:  -434.16099451059989
    Total Energy =                       -434.1609945106001760
  Basis Set: 6-31G*
  Basis Set:
  Basis Set: 6-31G*
  Basis Set:
  @DF-RHF Final Energy:  -434.16657616445201
    Total Energy =                       -434.1665761644516124
  Basis Set: 6-31G*
  Basis Set:
  Basis Set: 6-31G*
  Basis Set:
  @DF-RHF Final Energy:  -434.16679940530599
    Total Energy =                       -434.1667994053059374
  Basis Set: 6-31G*
  Basis Set:
  Basis Set: 6-31G*
  Basis Set:
  @DF-RHF Final Energy:  -434.16680346070120
    Total Energy =                       -434.1668034607009758
  Basis Set: 6-31G*
  Basis Set:
  Charge       = 0
  Multiplicity = 1
  Basis Set: 6-31G*
  Basis Set:

    Orbital Energies (a.u.)
    -----------------------

    Doubly Occupied:

       1A    -20.605590     2A    -20.605228     3A    -15.855445
       4A    -11.307699     5A    -11.271486     6A    -11.271183
       7A    -11.264459     8A    -11.262928     9A    -11.262434
      10A     -1.636861    11A     -1.420732    12A     -1.203022
      13A     -1.095145    14A     -1.054080    15A     -0.957554
      16A     -0.870515    17A     -0.826713    18A     -0.781338
      19A     -0.733585    20A     -0.730139    21A     -0.714400
      22A     -0.649285    23A     -0.649011    24A     -0.624174
      25A     -0.558101    26A     -0.544411    27A     -0.531794
      28A     -0.493048    29A     -0.485073    30A     -0.451307
      31A     -0.369393    32A     -0.366546

  @DF-RHF Final Energy:  -434.16680386296434

   => Energetics <=

    Nuclear Repulsion Energy =            416.6424741912724130
    One-Electron Energy =               -1416.7131906530739798
    Two-Electron Energy =                 565.9039125988368824
    DFT Exchange-Correlation Energy =       0.0000000000000000
    Empirical Dispersion Energy =           0.0000000000000000
    PCM Polarization Energy =               0.0000000000000000
    EFP Energy =                            0.0000000000000000
    Total Energy =                       -434.1668038629646844
    Molecular point group: c1
  Basis Set: 6-31G*
  Basis Set:

  -Total Gradient:
     Atom            X                  Y                   Z
    ------   -----------------  -----------------  -----------------
       1        0.000001397905     0.000009313295     0.000005485527
       2        0.004927475689    -0.000188305985     0.002608920104
       3        0.000050163254     0.000010813974     0.000018856805
       4       -0.006885825845     0.000210068140    -0.001252018285
       5       -0.000003563457     0.000000384598    -0.000006984363
       6       -0.000002799785     0.000000297650    -0.000011504829
       7        0.001863897206     0.000010958046    -0.007926992045
       8       -0.000123852358    -0.000011434919    -0.000040255800
       9        0.000000266811    -0.000003890434     0.000001640873
      10       -0.000044495855     0.000005664433    -0.000006439169
      11        0.000194776451    -0.000088156999     0.006615947551
      12        0.000017422334     0.000033254325    -0.000005273440
      13       -0.000000887821     0.000007827855    -0.000008250384
      14        0.000006025470     0.000003206022     0.000006867453

  **** Optimization is complete! (in 6 steps) ****
    Final optimized geometry and variables:
    Molecular point group: c1

    Geometry (in Angstrom), charge = 0, multiplicity = 1:

    H           -1.101754334997     0.082406807919     1.812966926318
    C           -0.626970697839    -0.474695248919     1.028128626132
    C           -0.597509929372    -1.858922035660     1.039173898181
    C           -0.036853840595     0.182203181565    -0.031387262836
    H           -1.046336346901    -2.393432485584     1.855797471314
    C            0.007063247575    -2.550320977616     0.000881906412
    N            0.000730867160     1.640318652429    -0.007014487297
    C            0.604221835412    -0.480161173914    -1.057726433611
    H            0.019719718819    -3.624931007741     0.010975314037
    C            0.602521586015    -1.864185542105    -1.046751412668
    O            1.074734486039     2.158682556566    -0.032029894946
    O           -1.041869471227     2.212339120547     0.089408051652
    H            1.086532462701     0.073176128710    -1.840714942486
    H            1.075997299512    -2.403178495899    -1.846333768158

  Mulliken Charges: (a.u.)
   Center  Symbol    Alpha    Beta     Spin     Total
       1     H     0.37327  0.37327  0.00000  0.25346
       2     C     3.08657  3.08657  0.00000 -0.17314
       3     C     3.10499  3.10499  0.00000 -0.20998
       4     C     2.90236  2.90236  0.00000  0.19527
       5     H     0.38850  0.38850  0.00000  0.22301
       6     C     3.09114  3.09114  0.00000 -0.18227
       7     N     3.25757  3.25757  0.00000  0.48486
       8     C     3.08687  3.08687  0.00000 -0.17374
       9     H     0.38978  0.38978  0.00000  0.22043
      10     C     3.10530  3.10530  0.00000 -0.21060
      11     O     4.22561  4.22561  0.00000 -0.45122
      12     O     4.22504  4.22504  0.00000 -0.45008
      13     H     0.37451  0.37451  0.00000  0.25098
      14     H     0.38849  0.38849  0.00000  0.22301

   Total alpha = 32.00000, Total beta = 32.00000, Total charge = -0.00000
