  ==> Input File <==

--------------------------------------------------------------------------
set {
	reference rhf
	basis 6-31G*
}

set_num_threads( 4 )
memory 2 gb

molecule MOL {
0 1

H	 1.279154	 0.231611	 -0.985772
C	 0.850167	 0.441173	 0.000644
C	 -0.623425	 0.760064	 0.000248
O	 1.535654	 0.404522	 0.970443
C	 -1.518387	 -0.473136	 -0.000101
H	 -0.818289	 1.390622	 -0.866171
H	 -0.818694	 1.390413	 0.866696
H	 -1.333417	 -1.085530	 -0.874338
H	 -2.563510	 -0.183466	 -0.000351
H	 -1.333864	 -1.085676	 0.874123

	symmetry c1
}
set optking {
	frozen_dihedral = ("
		4 2 3 6
	")
}

ee = optimize('scf')
oeprop('DIPOLE', 'QUADRUPOLE', 'MULLIKEN_CHARGES')
f=open( 'psi4out.xyz', 'w' )
f.write( "10  " )
f.write( str(ee) + "\n" )
f.write( MOL.save_string_xyz() )
f.close()
--------------------------------------------------------------------------

    Molecular point group: c1
  Charge       = 0
  Multiplicity = 1
  Basis Set: 6-31G*
  Basis Set:
  @DF-RHF Final Energy:  -191.94872559792330
    Total Energy =                       -191.9487255979233282
    Molecular point group: c1
  Basis Set: 6-31G*
  Basis Set:
  Basis Set: 6-31G*
  Basis Set:
  @DF-RHF Final Energy:  -191.94937581815887
    Total Energy =                       -191.9493758181588419
  Basis Set: 6-31G*
  Basis Set:
  Basis Set: 6-31G*
  Basis Set:
  @DF-RHF Final Energy:  -191.94686881865442
    Total Energy =                       -191.9468688186544227
  Basis Set: 6-31G*
  Basis Set:
  Basis Set: 6-31G*
  Basis Set:
  @DF-RHF Final Energy:  -191.94967898084695
    Total Energy =                       -191.9496789808469828
  Basis Set: 6-31G*
  Basis Set:
  Basis Set: 6-31G*
  Basis Set:
  @DF-RHF Final Energy:  -191.94970100587884
    Total Energy =                       -191.9497010058788362
  Basis Set: 6-31G*
  Basis Set:
  Charge       = 0
  Multiplicity = 1
  Basis Set: 6-31G*
  Basis Set:

    Orbital Energies (a.u.)
    -----------------------

    Doubly Occupied:

       1A    -20.563867     2A    -11.327814     3A    -11.238693
       4A    -11.233908     5A     -1.403793     6A     -1.065645
       7A     -0.904282     8A     -0.791062     9A     -0.679098
      10A     -0.640083    11A     -0.607351    12A     -0.573440
      13A     -0.542154    14A     -0.511554    15A     -0.496182
      16A     -0.412157

  @DF-RHF Final Energy:  -191.94970142891418

   => Energetics <=

    Nuclear Repulsion Energy =            117.8276313744808022
    One-Electron Energy =                -493.5725023323717551
    Two-Electron Energy =                 183.7951695289767713
    DFT Exchange-Correlation Energy =       0.0000000000000000
    Empirical Dispersion Energy =           0.0000000000000000
    PCM Polarization Energy =               0.0000000000000000
    EFP Energy =                            0.0000000000000000
    Total Energy =                       -191.9497014289141816
    Molecular point group: c1
  Basis Set: 6-31G*
  Basis Set:

  -Total Gradient:
     Atom            X                  Y                   Z
    ------   -----------------  -----------------  -----------------
       1        0.000013226609    -0.000000959446     0.000023778395
       2        0.000336810607     0.001407144637    -0.000456650507
       3        0.000147378877     0.000643371556     0.000813567373
       4       -0.000258985297    -0.001124624762     0.000212622283
       5        0.000009966491     0.000020282075    -0.000005949935
       6       -0.000261757059    -0.000927023912    -0.000589166478
       7        0.000014223485    -0.000020353308    -0.000006077665
       8        0.000001123213    -0.000001250274    -0.000001829215
       9        0.000007186003     0.000007124840     0.000000197500
      10       -0.000009172931    -0.000003711406     0.000009508248

  **** Optimization is complete! (in 6 steps) ****
    Final optimized geometry and variables:
    Molecular point group: c1

    Geometry (in Angstrom), charge = 0, multiplicity = 1:

    H            1.175945826496    -0.151883796001    -1.226288167316
    C            0.776225882098     0.150358093724    -0.251209935734
    C           -0.685917399583     0.517531937704    -0.234043641855
    O            1.472423678748     0.132302614740     0.711727311545
    C           -1.553732572099    -0.749480893712    -0.256409462131
    H           -0.910694810810     1.120978672919    -1.109529931395
    H           -0.884416870161     1.101255721748     0.656327037413
    H           -1.349231753049    -1.354644350825    -1.134636058945
    H           -2.605203023947    -0.486806438767    -0.273183502897
    H           -1.370091735526    -1.357149895254     0.622536456127

  Mulliken Charges: (a.u.)
   Center  Symbol    Alpha    Beta     Spin     Total
       1     H     0.43090  0.43090  0.00000  0.13821
       2     C     2.83571  2.83571  0.00000  0.32857
       3     C     3.20244  3.20244  0.00000 -0.40487
       4     O     4.23540  4.23540  0.00000 -0.47081
       5     C     3.25074  3.25074  0.00000 -0.50148
       6     H     0.41307  0.41307  0.00000  0.17386
       7     H     0.39889  0.39889  0.00000  0.20221
       8     H     0.41635  0.41635  0.00000  0.16730
       9     H     0.40943  0.40943  0.00000  0.18115
      10     H     0.40707  0.40707  0.00000  0.18587

   Total alpha = 16.00000, Total beta = 16.00000, Total charge =  0.00000
