                              Psi4 1.0.54 Driver

  ==> Input File <==

--------------------------------------------------------------------------
set {
	reference rhf
	basis cc-pvtz
}

set_num_threads( 4 )
memory 2 gb

molecule MOL {
0 1

H	 3.037503	 -1.079504	 -1.128671
O	 2.130519	 -1.319420	 -1.185646
C	 1.342725	 -0.401333	 -0.592381
C	 1.856546	 0.736244	 0.011430
C	 -0.019227	 -0.622843	 -0.598764
H	 2.917762	 0.907225	 0.015481
C	 1.008747	 1.648375	 0.606583
H	 -0.419145	 -1.500456	 -1.064280
C	 -0.861704	 0.296439	 0.000000
H	 1.417624	 2.524880	 1.070677
C	 -0.354905	 1.434205	 0.604538
C	 -2.330689	 0.069587	 0.000000
H	 -1.016637	 2.141705	 1.066536
O	 -2.848621	 -0.993976	 0.000000
H	 -2.934306	 0.982410	 0.000000

	symmetry c1
}
set optking {
	frozen_dihedral = ("
		11 9 12 14
	")
}

ee,wfn = optimize('scf', return_wfn=True)
oeprop( wfn, 'DIPOLE', 'QUADRUPOLE', 'MULLIKEN_CHARGES')
f=open( 'psi4out.xyz', 'w' )
f.write( "15  " )
f.write( str(ee) + "\n" )
f.write( MOL.save_string_xyz() )
f.close()
--------------------------------------------------------------------------

    Molecular point group: c1
  Charge       = 0
  Multiplicity = 1
  Basis Set: CC-PVTZ
  Basis Set:
  @DF-RHF Final Energy:  -418.43608872856657
    Total Energy =                       -418.4360887285665740
    Molecular point group: c1
  Basis Set: CC-PVTZ
  Basis Set:
  Basis Set: CC-PVTZ
  Basis Set:
  @DF-RHF Final Energy:  -418.43444325541691
    Total Energy =                       -418.4344432554169089
  Basis Set: CC-PVTZ
  Basis Set:
  Basis Set: CC-PVTZ
  Basis Set:
  @DF-RHF Final Energy:  -418.43630345758754
    Total Energy =                       -418.4363034575874281
  Basis Set: CC-PVTZ
  Basis Set:
  Basis Set: CC-PVTZ
  Basis Set:
  @DF-RHF Final Energy:  -418.43647141294315
    Total Energy =                       -418.4364714129428648
  Basis Set: CC-PVTZ
  Basis Set:
  Basis Set: CC-PVTZ
  Basis Set:
  @DF-RHF Final Energy:  -418.43647281565580
    Total Energy =                       -418.4364728156556339
  Basis Set: CC-PVTZ
  Basis Set:
  Charge       = 0
  Multiplicity = 1
  Basis Set: CC-PVTZ
  Basis Set:

    Orbital Energies (a.u.)
    -----------------------

    Doubly Occupied:

       1A    -20.595735     2A    -20.556365     3A    -11.328556
       4A    -11.311705     5A    -11.251727     6A    -11.250714
       7A    -11.245857     8A    -11.242005     9A    -11.237300
      10A     -1.427526    11A     -1.411816    12A     -1.173842
      13A     -1.051723    14A     -1.030311    15A     -0.902469
      16A     -0.849453    17A     -0.817630    18A     -0.740630
      19A     -0.705814    20A     -0.688988    21A     -0.647121
      22A     -0.642101    23A     -0.615685    24A     -0.608085
      25A     -0.581820    26A     -0.552806    27A     -0.544184
      28A     -0.516699    29A     -0.493458    30A     -0.427155
      31A     -0.358014    32A     -0.330190

  @DF-RHF Final Energy:  -418.43647312195077

   => Energetics <=

    Nuclear Repulsion Energy =            404.0447068247951279
    One-Electron Energy =               -1370.6873871777336262
    Two-Electron Energy =                 548.2062072309875020
    DFT Exchange-Correlation Energy =       0.0000000000000000
    Empirical Dispersion Energy =           0.0000000000000000
    PCM Polarization Energy =               0.0000000000000000
    EFP Energy =                            0.0000000000000000
    Total Energy =                       -418.4364731219509395
    Molecular point group: c1
  Basis Set: CC-PVTZ
  Basis Set:

  -Total Gradient:
     Atom            X                  Y                   Z
    ------   -----------------  -----------------  -----------------
       1       -0.000000012354     0.000010263157    -0.000016441002
       2        0.000001923192    -0.000012959588     0.000031238215
       3       -0.000019727595     0.000000718970    -0.000027326317
       4       -0.000005180810     0.000008662877     0.000014170660
       5        0.000017160991     0.000009887096    -0.000034834849
       6        0.000001061732    -0.000001205847     0.000004764530
       7        0.000014334125    -0.000000993660    -0.000008297773
       8       -0.000001334485     0.000008246123     0.000001388991
       9       -0.000626942252     0.002805557154    -0.002582500955
      10        0.000001034840    -0.000002373032     0.000000573038
      11        0.000525033108    -0.001970040438     0.003314121298
      12       -0.000159871742    -0.000776590220    -0.005560563506
      13       -0.000001530079     0.000002499231     0.000000551108
      14        0.000247316153    -0.000062144513     0.004861928272
      15        0.000006735180    -0.000019527312     0.000001228288

  **** Optimization is complete! (in 6 steps) ****
    Final optimized geometry and variables:
    Molecular point group: c1

    Geometry (in Angstrom), charge = 0, multiplicity = 1:

    H            3.037445795339    -1.108169083132    -0.995153451345
    O            2.130478760441    -1.349227992760    -1.050259416801
    C            1.343934370851    -0.430398493189    -0.457529133744
    C            1.856617298447     0.712618528255     0.135471245218
    C           -0.017233183189    -0.661897847478    -0.446366230345
    H            2.917159199671     0.887789927593     0.132923550393
    C            1.007270049251     1.624375689439     0.729588085821
    H           -0.411304899295    -1.557492538910    -0.882346770365
    C           -0.861181544835     0.267027654717     0.133071690482
    H            1.415151351174     2.501978198042     1.192638774572
    C           -0.356473287030     1.411741168906     0.726378475160
    C           -2.323753276168    -0.000077290061     0.207584653135
    H           -1.018651246419     2.124344816387     1.180170139793
    O           -2.805813438527    -1.079669200936     0.220172702001
    H           -2.951428913929     0.891612863628     0.303259505476

  Mulliken Charges: (a.u.)
   Center  Symbol    Alpha    Beta     Spin     Total
       1     H     0.38714  0.38714  0.00000  0.22572
       2     O     4.16996  4.16996  0.00000 -0.33992
       3     C     2.84051  2.84051  0.00000  0.31898
       4     C     3.12919  3.12919  0.00000 -0.25839
       5     C     3.12133  3.12133  0.00000 -0.24267
       6     H     0.43158  0.43158  0.00000  0.13685
       7     C     3.06201  3.06201  0.00000 -0.12402
       8     H     0.40769  0.40769  0.00000  0.18461
       9     C     2.95739  2.95739  0.00000  0.08521
      10     H     0.41940  0.41940  0.00000  0.16120
      11     C     3.11157  3.11157  0.00000 -0.22314
      12     C     2.91671  2.91671  0.00000  0.16659
      13     H     0.42375  0.42375  0.00000  0.15250
      14     O     4.16499  4.16499  0.00000 -0.32999
      15     H     0.45677  0.45677  0.00000  0.08646

   Total alpha = 32.00000, Total beta = 32.00000, Total charge =  0.00000

*** Psi4 exiting successfully. Buy a developer a beer!
