                              Psi4 1.0.54 Driver

  ==> Input File <==

--------------------------------------------------------------------------
set {
	reference rhf
	basis cc-pvtz
}

set_num_threads( 4 )
memory 2 gb

molecule MOL {
0 1

O	 -2.081319	 -0.951530	 -0.502732
N	 -1.613558	 0.006676	 0.014756
C	 -0.329345	 -0.171618	 0.743966
O	 -2.068523	 1.100482	 -0.024385
C	 -0.013184	 -1.656963	 0.865954
H	 -0.466928	 0.289158	 1.707903
H	 0.416084	 0.351033	 0.168289
C	 1.300756	 -1.886793	 1.608185
H	 -0.825383	 -2.147813	 1.389362
H	 0.041950	 -2.087636	 -0.127132
C	 1.644685	 -3.366448	 1.737860
H	 1.239378	 -1.441898	 2.596991
H	 2.103854	 -1.373315	 1.087820
H	 0.874763	 -3.900185	 2.283793
H	 1.743413	 -3.831560	 0.763365
H	 2.580425	 -3.501490	 2.266364

	symmetry c1
}
set optking {
	frozen_dihedral = ("
		5 3 2 1
	")
}

ee,wfn = optimize('scf', return_wfn=True)
oeprop( wfn, 'DIPOLE', 'QUADRUPOLE', 'MULLIKEN_CHARGES')
f=open( 'psi4out.xyz', 'w' )
f.write( "16  " )
f.write( str(ee) + "\n" )
f.write( MOL.save_string_xyz() )
f.close()
--------------------------------------------------------------------------

    Molecular point group: c1
  Charge       = 0
  Multiplicity = 1
  Basis Set: CC-PVTZ
  Basis Set:
  @DF-RHF Final Energy:  -360.90643990588711
    Total Energy =                       -360.9064399058871118
    Molecular point group: c1
  Basis Set: CC-PVTZ
  Basis Set:
  Basis Set: CC-PVTZ
  Basis Set:
  @DF-RHF Final Energy:  -360.90627121644610
    Total Energy =                       -360.9062712164458162
  Basis Set: CC-PVTZ
  Basis Set:
  Basis Set: CC-PVTZ
  Basis Set:
  @DF-RHF Final Energy:  -360.90191586391950
    Total Energy =                       -360.9019158639194416
  Basis Set: CC-PVTZ
  Basis Set:
  Basis Set: CC-PVTZ
  Basis Set:
  @DF-RHF Final Energy:  -360.90634712519721
    Total Energy =                       -360.9063471251971578
  Basis Set: CC-PVTZ
  Basis Set:
  Basis Set: CC-PVTZ
  Basis Set:
  @DF-RHF Final Energy:  -360.90795520948996
    Total Energy =                       -360.9079552094898418
  Basis Set: CC-PVTZ
  Basis Set:
  Basis Set: CC-PVTZ
  Basis Set:
  @DF-RHF Final Energy:  -360.90843909128887
    Total Energy =                       -360.9084390912888693
  Basis Set: CC-PVTZ
  Basis Set:
  Basis Set: CC-PVTZ
  Basis Set:
  @DF-RHF Final Energy:  -360.90845535350741
    Total Energy =                       -360.9084553535072359
  Basis Set: CC-PVTZ
  Basis Set:
  Charge       = 0
  Multiplicity = 1
  Basis Set: CC-PVTZ
  Basis Set:

    Orbital Energies (a.u.)
    -----------------------

    Doubly Occupied:

       1A    -20.593025     2A    -20.586881     3A    -15.837871
       4A    -11.298204     5A    -11.243485     6A    -11.239710
       7A    -11.224200     8A     -1.636559     9A     -1.420625
      10A     -1.133971    11A     -1.058540    12A     -0.948834
      13A     -0.843454    14A     -0.821127    15A     -0.758966
      16A     -0.752543    17A     -0.730571    18A     -0.666777
      19A     -0.615325    20A     -0.602550    21A     -0.565566
      22A     -0.534380    23A     -0.524060    24A     -0.501925
      25A     -0.494331    26A     -0.486751    27A     -0.469078
      28A     -0.452799

  @DF-RHF Final Energy:  -360.90845554062724

   => Energetics <=

    Nuclear Repulsion Energy =            312.4911944817577591
    One-Electron Energy =               -1110.7150886070087381
    Two-Electron Energy =                 437.3154385846241325
    DFT Exchange-Correlation Energy =       0.0000000000000000
    Empirical Dispersion Energy =           0.0000000000000000
    PCM Polarization Energy =               0.0000000000000000
    EFP Energy =                            0.0000000000000000
    Total Energy =                       -360.9084555406269033
    Molecular point group: c1
  Basis Set: CC-PVTZ
  Basis Set:

  -Total Gradient:
     Atom            X                  Y                   Z
    ------   -----------------  -----------------  -----------------
       1       -0.000082925248     0.000017910997     0.000136733367
       2        0.000131181998    -0.000005286725    -0.000215095303
       3       -0.000103873006    -0.000011862382     0.000188022253
       4       -0.000020926993    -0.000019779629    -0.000017979644
       5        0.000050410696     0.000020678444    -0.000121451763
       6        0.000016870999    -0.000009394594     0.000006366605
       7        0.000017577963    -0.000008750132     0.000008345246
       8        0.000005664945     0.000007093016     0.000011779747
       9       -0.000006888738     0.000002786977     0.000003368368
      10        0.000001026556     0.000010332738     0.000001525721
      11       -0.000002787185    -0.000003426035     0.000000015806
      12        0.000001289571    -0.000000434382    -0.000000175974
      13       -0.000006795459    -0.000000240641    -0.000002031275
      14        0.000001310756    -0.000000976442     0.000000240261
      15       -0.000000638971     0.000000084909     0.000000939210
      16       -0.000000497891     0.000001263885    -0.000000602627

  **** Optimization is complete! (in 8 steps) ****
    Final optimized geometry and variables:
    Molecular point group: c1

    Geometry (in Angstrom), charge = 0, multiplicity = 1:

    O           -1.730283273278     0.052140714980    -1.097756156497
    N           -1.183956712967     0.964958404113    -0.579940346911
    C            0.131659160338     0.731202051209     0.089901188035
    O           -1.587036744313     2.079770141103    -0.554130618997
    C            0.503003000768    -0.730279459151     0.227839655983
    H            0.046139904624     1.234619775798     1.040067702891
    H            0.839006417117     1.281313299977    -0.514302168160
    C            1.847202344312    -0.883380539466     0.938129286486
    H           -0.269687595639    -1.248914589419     0.782181221477
    H            0.545548879327    -1.188486653121    -0.751212399404
    C            2.257994045767    -2.343045362668     1.096395761418
    H            1.797952012777    -0.414954197204     1.917001647633
    H            2.614511452242    -0.351730424951     0.382355695711
    H            1.526574496351    -2.893791006281     1.677339820645
    H            2.349016820382    -2.829884123452     0.131818666084
    H            3.212839130438    -2.425099186321     1.601259006016

  Mulliken Charges: (a.u.)
   Center  Symbol    Alpha    Beta     Spin     Total
       1     O     4.16883  4.16883  0.00000 -0.33765
       2     N     3.27187  3.27187  0.00000  0.45626
       3     C     3.05194  3.05194  0.00000 -0.10388
       4     O     4.17487  4.17487  0.00000 -0.34975
       5     C     3.09316  3.09316  0.00000 -0.18631
       6     H     0.43173  0.43173  0.00000  0.13653
       7     H     0.43332  0.43332  0.00000  0.13337
       8     C     3.09430  3.09430  0.00000 -0.18860
       9     H     0.44091  0.44091  0.00000  0.11818
      10     H     0.43787  0.43787  0.00000  0.12426
      11     C     3.14808  3.14808  0.00000 -0.29616
      12     H     0.45167  0.45167  0.00000  0.09665
      13     H     0.45189  0.45189  0.00000  0.09622
      14     H     0.45205  0.45205  0.00000  0.09590
      15     H     0.45190  0.45190  0.00000  0.09619
      16     H     0.44561  0.44561  0.00000  0.10878

   Total alpha = 28.00000, Total beta = 28.00000, Total charge = -0.00000

*** Psi4 exiting successfully. Buy a developer a beer!
