  ==> Input File <==

--------------------------------------------------------------------------
set {
	reference rhf
	basis 6-31G*
}

set_num_threads( 4 )
memory 2 gb

molecule MOL {
0 1

H	 -3.420663	 1.227371	 -1.044276
O	 -3.452007	 0.283848	 -0.965577
C	 -3.181085	 -0.079926	 0.364119
C	 -1.765924	 0.277073	 0.805136
H	 -3.327791	 -1.152017	 0.410903
H	 -3.905698	 0.375695	 1.036898
C	 -0.677594	 -0.417312	 -0.014550
H	 -1.637766	 1.358238	 0.744969
H	 -1.659588	 0.017670	 1.857098
C	 0.738335	 -0.034840	 0.421385
H	 -0.814977	 -0.178223	 -1.064632
H	 -0.802730	 -1.495410	 0.071702
C	 1.757019	 -0.134998	 -0.717182
H	 0.724553	 0.976903	 0.819639
H	 1.052110	 -0.681021	 1.240287
C	 3.206278	 0.152847	 -0.308587
H	 1.468930	 0.544015	 -1.518208
H	 1.710148	 -1.136979	 -1.138672
C	 3.467763	 1.593438	 0.134954
H	 3.853364	 -0.074370	 -1.152353
H	 3.497408	 -0.528784	 0.488172
H	 3.174060	 2.298830	 -0.637898
H	 4.522875	 1.748557	 0.338707
H	 2.922231	 1.846096	 1.038127

	symmetry c1
}
set optking {
	frozen_dihedral = ("
		13 10 7 11
	")
}

ee = optimize('scf')
oeprop('DIPOLE', 'QUADRUPOLE', 'MULLIKEN_CHARGES')
f=open( 'psi4out.xyz', 'w' )
f.write( "24  " )
f.write( str(ee) + "\n" )
f.write( MOL.save_string_xyz() )
f.close()
--------------------------------------------------------------------------

    Molecular point group: c1
  Charge       = 0
  Multiplicity = 1
  Basis Set: 6-31G*
  Basis Set:
  @DF-RHF Final Energy:  -349.24510177254746
    Total Energy =                       -349.2451017725476277
    Molecular point group: c1
  Basis Set: 6-31G*
  Basis Set:
  Basis Set: 6-31G*
  Basis Set:
  @DF-RHF Final Energy:  -349.24530031339765
    Total Energy =                       -349.2453003133978200
  Basis Set: 6-31G*
  Basis Set:
  Basis Set: 6-31G*
  Basis Set:
  @DF-RHF Final Energy:  -349.24531526254356
    Total Energy =                       -349.2453152625434996
  Basis Set: 6-31G*
  Basis Set:
  Basis Set: 6-31G*
  Basis Set:
  @DF-RHF Final Energy:  -349.24536354316541
    Total Energy =                       -349.2453635431653538
  Basis Set: 6-31G*
  Basis Set:
  Basis Set: 6-31G*
  Basis Set:
  @DF-RHF Final Energy:  -349.24536521231028
    Total Energy =                       -349.2453652123101620
  Basis Set: 6-31G*
  Basis Set:
  Basis Set: 6-31G*
  Basis Set:
  @DF-RHF Final Energy:  -349.24536717053536
    Total Energy =                       -349.2453671705350757
  Basis Set: 6-31G*
  Basis Set:
  Charge       = 0
  Multiplicity = 1
  Basis Set: 6-31G*
  Basis Set:

    Orbital Energies (a.u.)
    -----------------------

    Doubly Occupied:

       1A    -20.553529     2A    -11.267670     3A    -11.217907
       4A    -11.214001     5A    -11.212383     6A    -11.211778
       7A    -11.211051     8A    -11.207558     9A     -1.360128
      10A     -1.087901    11A     -1.048247    12A     -0.985369
      13A     -0.914843    14A     -0.851076    15A     -0.801877
      16A     -0.776313    17A     -0.679519    18A     -0.647728
      19A     -0.628608    20A     -0.617546    21A     -0.598900
      22A     -0.587310    23A     -0.550078    24A     -0.547763
      25A     -0.513798    26A     -0.507074    27A     -0.502215
      28A     -0.470927    29A     -0.467571    30A     -0.458528
      31A     -0.456176    32A     -0.450436    33A     -0.418595

  @DF-RHF Final Energy:  -349.24536778733591

   => Energetics <=

    Nuclear Repulsion Energy =            384.9036038273784470
    One-Electron Energy =               -1236.2491381470631495
    Two-Electron Energy =                 502.1001665323485099
    DFT Exchange-Correlation Energy =       0.0000000000000000
    Empirical Dispersion Energy =           0.0000000000000000
    PCM Polarization Energy =               0.0000000000000000
    EFP Energy =                            0.0000000000000000
    Total Energy =                       -349.2453677873361926
    Molecular point group: c1
  Basis Set: 6-31G*
  Basis Set:

  -Total Gradient:
     Atom            X                  Y                   Z
    ------   -----------------  -----------------  -----------------
       1       -0.000000983304     0.000002255626    -0.000003389237
       2       -0.000003384467     0.000011013198     0.000004609671
       3        0.000000381841    -0.000017924812     0.000001211184
       4       -0.000005653570     0.000009084970    -0.000001015189
       5       -0.000000723818    -0.000003427788     0.000003643720
       6        0.000001777385     0.000000415472    -0.000002640488
       7       -0.001839479936     0.005795788682     0.000877963362
       8        0.000002072569    -0.000000244077    -0.000002303501
       9       -0.000005633878     0.000002924837     0.000002109252
      10        0.001049390142    -0.004847400639     0.000847846022
      11        0.001317520065    -0.003789736910    -0.000960461638
      12       -0.000002573228     0.000006574502     0.000006829803
      13       -0.000525632240     0.002836555274    -0.000787021938
      14       -0.000002110901    -0.000005581671    -0.000000945002
      15        0.000010874178     0.000000673912     0.000001549611
      16        0.000003437797    -0.000000076071     0.000009756953
      17        0.000000182683    -0.000000521385    -0.000008117337
      18       -0.000010591874     0.000004005083     0.000008117492
      19        0.000001911948    -0.000005075704    -0.000007858883
      20        0.000006554136     0.000007931352     0.000006567127
      21        0.000002457723    -0.000004590755     0.000001144386
      22       -0.000005672094    -0.000002461934     0.000003741688
      23        0.000001914724     0.000001810484    -0.000003939407
      24        0.000003964118    -0.000001991644     0.000002602350

  **** Optimization is complete! (in 7 steps) ****
    Final optimized geometry and variables:
    Molecular point group: c1

    Geometry (in Angstrom), charge = 0, multiplicity = 1:

    H           -3.451368975575     0.905898290486    -1.012463712981
    O           -3.451637354722    -0.034292805679    -0.896677483241
    C           -3.141991842601    -0.337260464030     0.439763600175
    C           -1.733258938905     0.088064718965     0.837577949650
    H           -3.247210596520    -1.411399361812     0.529044983290
    H           -3.870056242095     0.116339953136     1.110164576357
    C           -0.636086512665    -0.580685090823     0.010840031180
    H           -1.649427150235     1.171444813149     0.748145173313
    H           -1.591538336676    -0.140064219533     1.892870770709
    C            0.785572297695    -0.196388722494     0.448180939005
    H           -0.774566417423    -0.361276689020    -1.043077213134
    H           -0.748313410144    -1.661212896894     0.087821705012
    C            1.809205588891    -0.320739125586    -0.683934135263
    H            0.781542680238     0.829498582120     0.809362278687
    H            1.089243598781    -0.811304091320     1.292980131788
    C            3.264339263721    -0.085144879588    -0.264198728569
    H            1.545350042949     0.377405573810    -1.476435287258
    H            1.732805098842    -1.315253718686    -1.119833621036
    C            3.564550759504     1.335169222307     0.218633776042
    H            3.907774681272    -0.308428521201    -1.111766197708
    H            3.532976161021    -0.795456308870     0.515172347498
    H            3.289930156130     2.069456859231    -0.534139338743
    H            4.623460087690     1.456224835389     0.425664165941
    H            3.025937838285     1.577154548075     1.128861204782

  Mulliken Charges: (a.u.)
   Center  Symbol    Alpha    Beta     Spin     Total
       1     H     0.28338  0.28338  0.00000  0.43325
       2     O     4.36826  4.36826  0.00000 -0.73652
       3     C     2.99644  2.99644  0.00000  0.00712
       4     C     3.17002  3.17002  0.00000 -0.34004
       5     H     0.41624  0.41624  0.00000  0.16753
       6     H     0.42814  0.42814  0.00000  0.14372
       7     C     3.15325  3.15325  0.00000 -0.30650
       8     H     0.42791  0.42791  0.00000  0.14419
       9     H     0.42198  0.42198  0.00000  0.15603
      10     C     3.15450  3.15450  0.00000 -0.30899
      11     H     0.41147  0.41147  0.00000  0.17706
      12     H     0.42258  0.42258  0.00000  0.15483
      13     C     3.15358  3.15358  0.00000 -0.30717
      14     H     0.42303  0.42303  0.00000  0.15394
      15     H     0.42293  0.42293  0.00000  0.15413
      16     C     3.15254  3.15254  0.00000 -0.30509
      17     H     0.42395  0.42395  0.00000  0.15210
      18     H     0.42150  0.42150  0.00000  0.15700
      19     C     3.24124  3.24124  0.00000 -0.48247
      20     H     0.42108  0.42108  0.00000  0.15783
      21     H     0.42353  0.42353  0.00000  0.15293
      22     H     0.42271  0.42271  0.00000  0.15458
      23     H     0.41944  0.41944  0.00000  0.16111
      24     H     0.42029  0.42029  0.00000  0.15943

   Total alpha = 33.00000, Total beta = 33.00000, Total charge =  0.00000
