                              Psi4 1.0.54 Driver

  ==> Input File <==

--------------------------------------------------------------------------
set {
	reference rhf
	basis cc-pvtz
}

set_num_threads( 4 )
memory 2 gb

molecule MOL {
0 1

H	 3.545135	 -0.101967	 -0.943166
N	 3.091268	 -0.241216	 -0.065538
C	 1.860978	 0.530248	 0.016256
H	 3.734358	 0.037131	 0.646014
C	 0.644130	 -0.381765	 -0.031064
H	 1.835721	 1.204666	 -0.833114
H	 1.808789	 1.151975	 0.911067
C	 -0.678115	 0.376691	 0.025731
H	 0.693998	 -0.977147	 -0.936845
H	 0.693309	 -1.082142	 0.800523
C	 -1.900706	 -0.535531	 -0.022488
H	 -0.725296	 1.079516	 -0.802982
H	 -0.715474	 0.974884	 0.933278
C	 -3.220513	 0.226854	 0.028039
H	 -1.865036	 -1.134397	 -0.928236
H	 -1.857948	 -1.236381	 0.806820
H	 -3.309098	 0.911849	 -0.808725
H	 -4.066838	 -0.449485	 -0.008086
H	 -3.301685	 0.809374	 0.939860

	symmetry c1
}
set optking {
	frozen_dihedral = ("
		1 2 3 6
	")
}

ee,wfn = optimize('scf', return_wfn=True)
oeprop( wfn, 'DIPOLE', 'QUADRUPOLE', 'MULLIKEN_CHARGES')
f=open( 'psi4out.xyz', 'w' )
f.write( "19  " )
f.write( str(ee) + "\n" )
f.write( MOL.save_string_xyz() )
f.close()
--------------------------------------------------------------------------

    Molecular point group: c1
  Charge       = 0
  Multiplicity = 1
  Basis Set: CC-PVTZ
  Basis Set:
  @DF-RHF Final Energy:  -251.44443278215431
    Total Energy =                       -251.4444327821541378
    Molecular point group: c1
  Basis Set: CC-PVTZ
  Basis Set:
  Basis Set: CC-PVTZ
  Basis Set:
  @DF-RHF Final Energy:  -251.44516661447562
    Total Energy =                       -251.4451666144756246
  Basis Set: CC-PVTZ
  Basis Set:
  Basis Set: CC-PVTZ
  Basis Set:
  @DF-RHF Final Energy:  -251.44534771930768
    Total Energy =                       -251.4453477193075059
  Basis Set: CC-PVTZ
  Basis Set:
  Basis Set: CC-PVTZ
  Basis Set:
  @DF-RHF Final Energy:  -251.44535040003473
    Total Energy =                       -251.4453504000347266
  Basis Set: CC-PVTZ
  Basis Set:
  Charge       = 0
  Multiplicity = 1
  Basis Set: CC-PVTZ
  Basis Set:

    Orbital Energies (a.u.)
    -----------------------

    Doubly Occupied:

       1A    -15.525528     2A    -11.238910     3A    -11.209912
       4A    -11.207821     5A    -11.204057     6A    -11.201621
       7A     -1.175201     8A     -1.072077     9A     -0.998242
      10A     -0.900640    11A     -0.810509    12A     -0.785671
      13A     -0.677111    14A     -0.635636    15A     -0.615333
      16A     -0.578202    17A     -0.569750    18A     -0.555498
      19A     -0.517354    20A     -0.505710    21A     -0.472330
      22A     -0.462671    23A     -0.458083    24A     -0.457033
      25A     -0.380182

  @DF-RHF Final Energy:  -251.44535103935587

   => Energetics <=

    Nuclear Repulsion Energy =            245.5465918209000336
    One-Electron Energy =                -825.5537152660870106
    Two-Electron Energy =                 328.5617724058312206
    DFT Exchange-Correlation Energy =       0.0000000000000000
    Empirical Dispersion Energy =           0.0000000000000000
    PCM Polarization Energy =               0.0000000000000000
    EFP Energy =                            0.0000000000000000
    Total Energy =                       -251.4453510393557281
    Molecular point group: c1
  Basis Set: CC-PVTZ
  Basis Set:

  -Total Gradient:
     Atom            X                  Y                   Z
    ------   -----------------  -----------------  -----------------
       1        0.000583007174     0.000912467478     0.000438442114
       2       -0.000857210035    -0.001380570947    -0.000719275311
       3        0.000748777987     0.001179221024     0.000813968834
       4        0.000018598848     0.000011951717     0.000010088826
       5        0.000047230142     0.000029292655     0.000016796703
       6       -0.000501915193    -0.000754815043    -0.000567489203
       7       -0.000025427410    -0.000013777069     0.000002917335
       8       -0.000002201765    -0.000001849245    -0.000000114331
       9        0.000010357046     0.000019772143     0.000007653547
      10        0.000003269122     0.000002742754     0.000001865024
      11       -0.000009685761     0.000012470974    -0.000008775072
      12        0.000002273302    -0.000005511792     0.000007305995
      13        0.000001088165    -0.000006057202    -0.000004768017
      14       -0.000013885430    -0.000011326131     0.000003783834
      15        0.000000285374     0.000000197123    -0.000000065853
      16       -0.000002414185     0.000007257115    -0.000002800764
      17        0.000003262389    -0.000004212643     0.000001375266
      18       -0.000007367280     0.000002970586     0.000001610095
      19        0.000001957513    -0.000000223495    -0.000002519022

  **** Optimization is complete! (in 5 steps) ****
    Final optimized geometry and variables:
    Molecular point group: c1

    Geometry (in Angstrom), charge = 0, multiplicity = 1:

    H            3.535915326021    -0.098713536770    -1.085334021290
    N            3.097321983309    -0.237645116073    -0.201931455573
    C            1.855486297221     0.524144462847    -0.086948373649
    H            3.756530138428     0.026340381428     0.496249999823
    C            0.636236615590    -0.389125056164    -0.054492409808
    H            1.750650636671     1.221361913083    -0.914227774404
    H            1.876065431468     1.123227681931     0.817745619889
    C           -0.681614635277     0.370017111711     0.060721312901
    H            0.634293894848    -0.997690144012    -0.954538544297
    H            0.742966367037    -1.078418144790     0.777579806487
    C           -1.905029665513    -0.541854166576     0.093418093778
    H           -0.776229139354     1.062129128449    -0.773498910970
    H           -0.669925012714     0.981629732244     0.960618670315
    C           -3.220504105373     0.220904062739     0.209198574527
    H           -1.920500126880    -1.152114346583    -0.805360413011
    H           -1.814426325041    -1.232223470949     0.927396631754
    H           -3.357198778308     0.895344051507    -0.629757058554
    H           -4.067170214627    -0.455793975252     0.230012058550
    H           -3.250045364553     0.814959810870     1.116728390629

  Mulliken Charges: (a.u.)
   Center  Symbol    Alpha    Beta     Spin     Total
       1     H     0.42742  0.42742  0.00000  0.14515
       2     N     3.69563  3.69563  0.00000 -0.39125
       3     C     3.04696  3.04696  0.00000 -0.09392
       4     H     0.42595  0.42595  0.00000  0.14809
       5     C     3.06265  3.06265  0.00000 -0.12530
       6     H     0.45924  0.45924  0.00000  0.08152
       7     H     0.45692  0.45692  0.00000  0.08616
       8     C     3.09727  3.09727  0.00000 -0.19455
       9     H     0.45743  0.45743  0.00000  0.08514
      10     H     0.45526  0.45526  0.00000  0.08948
      11     C     3.08264  3.08264  0.00000 -0.16528
      12     H     0.45716  0.45716  0.00000  0.08569
      13     H     0.45701  0.45701  0.00000  0.08598
      14     C     3.14967  3.14967  0.00000 -0.29934
      15     H     0.45442  0.45442  0.00000  0.09117
      16     H     0.45418  0.45418  0.00000  0.09163
      17     H     0.45578  0.45578  0.00000  0.08845
      18     H     0.44870  0.44870  0.00000  0.10259
      19     H     0.45570  0.45570  0.00000  0.08860

   Total alpha = 25.00000, Total beta = 25.00000, Total charge = -0.00000

*** Psi4 exiting successfully. Buy a developer a beer!
