  ==> Input File <==

--------------------------------------------------------------------------
set {
	reference rhf
	basis 6-31G*
}

set_num_threads( 1 )
memory 2 gb

molecule MOL {
0 1

O	 3.225979	 0.970355	 -0.599647
C	 2.701189	 0.057885	 -0.047330
C	 1.245376	 -0.013843	 0.345420
O	 3.347903	 -1.046386	 0.304773
C	 0.455112	 1.231400	 -0.050772
H	 0.838542	 -0.913825	 -0.103701
H	 1.208210	 -0.175333	 1.419774
C	 -0.998893	 1.219485	 0.433193
H	 0.482531	 1.345121	 -1.130325
H	 0.957290	 2.103070	 0.354729
C	 -1.883438	 0.145884	 -0.207175
H	 -1.431207	 2.195402	 0.224832
H	 -1.019646	 1.105716	 1.516076
C	 -3.347647	 0.245583	 0.225435
H	 -1.822183	 0.231698	 -1.291012
H	 -1.510341	 -0.844814	 0.042401
C	 -3.867098	 1.683416	 0.279641
H	 -3.465648	 -0.215381	 1.204630
H	 -3.965642	 -0.333170	 -0.459275
C	 -5.328890	 1.774483	 0.716187
H	 -3.250049	 2.263407	 0.962651
H	 -3.754003	 2.144453	 -0.699355
H	 -5.667794	 2.805469	 0.744826
H	 -5.468967	 1.352736	 1.707501
H	 -5.976633	 1.232330	 0.032980
C	 4.728119	 -1.109107	 -0.004993
H	 4.882018	 -1.033965	 -1.071845
H	 5.068212	 -2.067527	 0.355250
H	 5.265056	 -0.311663	 0.488280

	symmetry c1
}
set optking {
	frozen_dihedral = ("
		21 17 14 11,
		15 11 8 5,
		6 3 5 9,
		11 8 5 9,
		2 4 26 27,
		1 2 4 26,
		6 3 2 1
	")
}

ee = energy('scf')
oeprop('DIPOLE', 'QUADRUPOLE', 'MULLIKEN_CHARGES')
f=open( 'psi4out.xyz', 'w' )
f.write( "29  " )
f.write( str(ee) + "\n" )
f.write( MOL.save_string_xyz() )
f.close()
--------------------------------------------------------------------------

    Molecular point group: c1

    Geometry (in Angstrom), charge = 0, multiplicity = 1:

       Center              X                  Y                   Z               Mass
    ------------   -----------------  -----------------  -----------------  -----------------
           O          3.157563402302     0.511399076835    -0.725434353981    15.994914619560
           C          2.632773402302    -0.401070923165    -0.173117353981    12.000000000000
           C          1.176960402302    -0.472798923165     0.219632646019    12.000000000000
           O          3.279487402302    -1.505341923165     0.178985646019    15.994914619560
           C          0.386696402302     0.772444076835    -0.176559353981    12.000000000000
           H          0.770126402302    -1.372780923165    -0.229488353981     1.007825032070
           H          1.139794402302    -0.634288923165     1.293986646019     1.007825032070
           C         -1.067308597698     0.760529076835     0.307405646019    12.000000000000
           H          0.414115402302     0.886165076835    -1.256112353981     1.007825032070
           H          0.888874402302     1.644114076835     0.228941646019     1.007825032070
           C         -1.951853597698    -0.313071923165    -0.332962353981    12.000000000000
           H         -1.499622597698     1.736446076835     0.099044646019     1.007825032070
           H         -1.088061597698     0.646760076835     1.390288646019     1.007825032070
           C         -3.416062597698    -0.213372923165     0.099647646019    12.000000000000
           H         -1.890598597698    -0.227257923165    -1.416799353981     1.007825032070
           H         -1.578756597698    -1.303769923165    -0.083386353981     1.007825032070
           C         -3.935513597698     1.224460076835     0.153853646019    12.000000000000
           H         -3.534063597698    -0.674336923165     1.078842646019     1.007825032070
           H         -4.034057597698    -0.792125923165    -0.585062353981     1.007825032070
           C         -5.397305597698     1.315527076835     0.590399646019    12.000000000000
           H         -3.318464597698     1.804451076835     0.836863646019     1.007825032070
           H         -3.822418597698     1.685497076835    -0.825142353981     1.007825032070
           H         -5.736209597698     2.346513076835     0.619038646019     1.007825032070
           H         -5.537382597698     0.893780076835     1.581713646019     1.007825032070
           H         -6.045048597698     0.773374076835    -0.092807353981     1.007825032070
           C          4.659703402302    -1.568062923165    -0.130780353981    12.000000000000
           H          4.813602402302    -1.492920923165    -1.197632353981     1.007825032070
           H          4.999796402302    -2.526482923165     0.229462646019     1.007825032070
           H          5.196640402302    -0.770618923165     0.362492646019     1.007825032070

  Charge       = 0
  Multiplicity = 1
  Basis Set: 6-31G*
  Basis Set:

    Orbital Energies (a.u.)
    -----------------------

    Doubly Occupied:

       1A    -20.603152     2A    -20.544945     3A    -11.371724
       4A    -11.280515     5A    -11.234334     6A    -11.218505
       7A    -11.216260     8A    -11.215630     9A    -11.214630
      10A    -11.214046    11A    -11.208326    12A     -1.468848
      13A     -1.362283    14A     -1.100048    15A     -1.066117
      16A     -1.016159    17A     -0.976959    18A     -0.928701
      19A     -0.861820    20A     -0.820710    21A     -0.773400
      22A     -0.759358    23A     -0.700714    24A     -0.681887
      25A     -0.671877    26A     -0.640331    27A     -0.629428
      28A     -0.615247    29A     -0.592685    30A     -0.581889
      31A     -0.566350    32A     -0.554511    33A     -0.543259
      34A     -0.524848    35A     -0.522325    36A     -0.497857
      37A     -0.492187    38A     -0.487259    39A     -0.473582
      40A     -0.457016    41A     -0.453718    42A     -0.450754
      43A     -0.440087    44A     -0.436688

  @DF-RHF Final Energy:  -501.03762990108783

   => Energetics <=

    Nuclear Repulsion Energy =            616.6551324427306326
    One-Electron Energy =               -1904.4436404998807575
    Two-Electron Energy =                 786.7508781560613897
    DFT Exchange-Correlation Energy =       0.0000000000000000
    Empirical Dispersion Energy =           0.0000000000000000
    PCM Polarization Energy =               0.0000000000000000
    EFP Energy =                            0.0000000000000000
    Total Energy =                       -501.0376299010886214

  Mulliken Charges: (a.u.)
   Center  Symbol    Alpha    Beta     Spin     Total
       1     O     4.28609  4.28609  0.00000 -0.57217
       2     C     2.60473  2.60473  0.00000  0.79053
       3     C     3.21000  3.21000  0.00000 -0.41999
       4     O     4.30750  4.30750  0.00000 -0.61501
       5     C     3.15190  3.15190  0.00000 -0.30379
       6     H     0.39897  0.39897  0.00000  0.20207
       7     H     0.40140  0.40140  0.00000  0.19720
       8     C     3.16405  3.16405  0.00000 -0.32811
       9     H     0.41329  0.41329  0.00000  0.17343
      10     H     0.40913  0.40913  0.00000  0.18173
      11     C     3.15571  3.15571  0.00000 -0.31143
      12     H     0.41267  0.41267  0.00000  0.17465
      13     H     0.42445  0.42445  0.00000  0.15111
      14     C     3.15018  3.15018  0.00000 -0.30037
      15     H     0.42252  0.42252  0.00000  0.15495
      16     H     0.42123  0.42123  0.00000  0.15754
      17     C     3.15943  3.15943  0.00000 -0.31887
      18     H     0.42387  0.42387  0.00000  0.15226
      19     H     0.42107  0.42107  0.00000  0.15785
      20     C     3.23780  3.23780  0.00000 -0.47561
      21     H     0.41825  0.41825  0.00000  0.16350
      22     H     0.42287  0.42287  0.00000  0.15427
      23     H     0.41944  0.41944  0.00000  0.16112
      24     H     0.42205  0.42205  0.00000  0.15590
      25     H     0.42218  0.42218  0.00000  0.15565
      26     C     3.09239  3.09239  0.00000 -0.18477
      27     H     0.40911  0.40911  0.00000  0.18179
      28     H     0.40855  0.40855  0.00000  0.18289
      29     H     0.40916  0.40916  0.00000  0.18168

   Total alpha = 44.00000, Total beta = 44.00000, Total charge = -0.00000
