                              Psi4 1.0.54 Driver

  ==> Input File <==

--------------------------------------------------------------------------
set {
	reference rhf
	basis cc-pvtz
}

set_num_threads( 4 )
memory 2 gb

molecule MOL {
0 1

O	 3.901712	 -0.364755	 0.060189
C	 2.841259	 0.166180	 -0.000295
C	 1.542794	 -0.614730	 -0.000853
C	 2.716929	 1.670904	 -0.081358
C	 0.288398	 0.247429	 0.000314
H	 1.557171	 -1.273139	 -0.866508
H	 1.557484	 -1.274998	 0.863344
C	 -0.993089	 -0.581367	 -0.000217
H	 0.305153	 0.900562	 -0.864701
H	 0.305567	 0.898805	 0.866656
C	 -2.258482	 0.271340	 0.000669
H	 -1.002280	 -1.233920	 -0.870484
H	 -1.002061	 -1.235367	 0.868958
C	 -3.544441	 -0.550271	 -0.000253
H	 -2.250545	 0.925250	 -0.867923
H	 -2.250598	 0.923423	 0.870642
C	 -4.804551	 0.308747	 0.000556
H	 -3.553737	 -1.201524	 -0.870151
H	 -3.553831	 -1.203282	 0.868313
H	 -4.842050	 0.949078	 -0.874436
H	 -5.698404	 -0.304480	 -0.000254
H	 -4.842277	 0.947103	 0.876982
H	 2.136781	 2.043954	 0.755487
H	 3.697901	 2.120356	 -0.072569
H	 2.193590	 1.954445	 -0.987870

	symmetry c1
}
set optking {
	frozen_dihedral = ("
		1 2 3 6
	")
}

ee,wfn = optimize('scf', return_wfn=True)
oeprop( wfn, 'DIPOLE', 'QUADRUPOLE', 'MULLIKEN_CHARGES')
f=open( 'psi4out.xyz', 'w' )
f.write( "25  " )
f.write( str(ee) + "\n" )
f.write( MOL.save_string_xyz() )
f.close()
--------------------------------------------------------------------------

    Molecular point group: c1
  Charge       = 0
  Multiplicity = 1
  Basis Set: CC-PVTZ
  Basis Set:
  @DF-RHF Final Energy:  -387.26740082111559
    Total Energy =                       -387.2674008211151886
    Molecular point group: c1
  Basis Set: CC-PVTZ
  Basis Set:
  Basis Set: CC-PVTZ
  Basis Set:
  @DF-RHF Final Energy:  -387.26609658973541
    Total Energy =                       -387.2660965897348433
  Basis Set: CC-PVTZ
  Basis Set:
  Basis Set: CC-PVTZ
  Basis Set:
  @DF-RHF Final Energy:  -387.27005010966394
    Total Energy =                       -387.2700501096638845
  Basis Set: CC-PVTZ
  Basis Set:
  Basis Set: CC-PVTZ
  Basis Set:
  @DF-RHF Final Energy:  -387.27004190148887
    Total Energy =                       -387.2700419014886393
  Basis Set: CC-PVTZ
  Basis Set:
  Basis Set: CC-PVTZ
  Basis Set:
  @DF-RHF Final Energy:  -387.27002783228028
    Total Energy =                       -387.2700278322804479
  Basis Set: CC-PVTZ
  Basis Set:
  Basis Set: CC-PVTZ
  Basis Set:
  @DF-RHF Final Energy:  -387.27021160715429
    Total Energy =                       -387.2702116071548062
  Basis Set: CC-PVTZ
  Basis Set:
  Charge       = 0
  Multiplicity = 1
  Basis Set: CC-PVTZ
  Basis Set:

    Orbital Energies (a.u.)
    -----------------------

    Doubly Occupied:

       1A    -20.534077     2A    -11.320666     3A    -11.228893
       4A    -11.227892     5A    -11.226215     6A    -11.221751
       7A    -11.218625     8A    -11.217985     9A    -11.210752
      10A     -1.395852    11A     -1.102597    12A     -1.061482
      13A     -1.010860    14A     -0.972858    15A     -0.899269
      16A     -0.822447    17A     -0.797868    18A     -0.731663
      19A     -0.669418    20A     -0.650528    21A     -0.635666
      22A     -0.627695    23A     -0.597612    24A     -0.591472
      25A     -0.563939    26A     -0.561179    27A     -0.548079
      28A     -0.529772    29A     -0.527414    30A     -0.496776
      31A     -0.492456    32A     -0.470539    33A     -0.470072
      34A     -0.468383    35A     -0.462277    36A     -0.397628

  @DF-RHF Final Energy:  -387.27021223615714

   => Energetics <=

    Nuclear Repulsion Energy =            439.2340736862278163
    One-Electron Energy =               -1395.0832561108363734
    Two-Electron Energy =                 568.5789701884519900
    DFT Exchange-Correlation Energy =       0.0000000000000000
    Empirical Dispersion Energy =           0.0000000000000000
    PCM Polarization Energy =               0.0000000000000000
    EFP Energy =                            0.0000000000000000
    Total Energy =                       -387.2702122361565671
    Molecular point group: c1
  Basis Set: CC-PVTZ
  Basis Set:

  -Total Gradient:
     Atom            X                  Y                   Z
    ------   -----------------  -----------------  -----------------
       1        0.000001289901    -0.000074075811    -0.000512603518
       2        0.000008944651     0.000001292810     0.000780953274
       3       -0.000181525938     0.000415086450    -0.000583879287
       4       -0.000010353826     0.000022916663    -0.000025007260
       5        0.000008207250     0.000001947060     0.000007315851
       6        0.000169795498    -0.000370298170     0.000324049522
       7        0.000003789570    -0.000008073500     0.000003474001
       8       -0.000002342246    -0.000005035435     0.000000404856
       9       -0.000004101110     0.000007944022    -0.000004028403
      10       -0.000009768134    -0.000002656792    -0.000000459170
      11        0.000008844266     0.000003871885    -0.000006369351
      12        0.000004736648     0.000000732009    -0.000000195717
      13        0.000003255643     0.000003342490    -0.000000275271
      14        0.000002103717    -0.000000047660     0.000002456523
      15       -0.000000866982     0.000000635235     0.000000393510
      16       -0.000002455937    -0.000001813374    -0.000000729237
      17        0.000003140716     0.000000054306     0.000002177226
      18        0.000002203574     0.000001619861     0.000000539389
      19       -0.000000780166     0.000000221208    -0.000000293522
      20        0.000000679330    -0.000000555696     0.000000768939
      21        0.000000529139    -0.000000187696    -0.000000436040
      22       -0.000000169557    -0.000000590579    -0.000000941794
      23        0.000002264939     0.000005695232     0.000006417666
      24       -0.000001957680    -0.000007339314     0.000002860684
      25       -0.000005463271     0.000005314793     0.000003407129

  **** Optimization is complete! (in 7 steps) ****
    Final optimized geometry and variables:
    Molecular point group: c1

    Geometry (in Angstrom), charge = 0, multiplicity = 1:

    O            3.861536911828    -0.738528277362     0.267710483009
    C            2.906753375975    -0.049125912361     0.110004396931
    C            1.522393672469    -0.685246173204     0.107026891438
    C            3.054327340446     1.438756592863    -0.104336228174
    C            0.303138913407     0.225741657555    -0.000371356488
    H            1.530549131099    -1.400602813844    -0.709606944450
    H            1.468621163852    -1.279460353594     1.012875215386
    C           -1.005300219013    -0.561144167781     0.007390301243
    H            0.355086666818     0.814974367790    -0.910728584190
    H            0.294395132498     0.932918909857     0.823734326383
    C           -2.242891791885     0.325201518027    -0.096181115775
    H           -1.000999268414    -1.270716049775    -0.816187690575
    H           -1.061749355604    -1.152915988449     0.917473179485
    C           -3.551919610574    -0.459155066202    -0.088618077184
    H           -2.186182624479     0.917218202875    -1.006680033038
    H           -2.246807232309     1.035038655064     0.727703644365
    C           -4.784982874151     0.432099635726    -0.192178212841
    H           -3.549929483536    -1.167998080923    -0.912078390026
    H           -3.610429952654    -1.050295302982     0.821138577320
    H           -4.773439264070     1.011363623670    -1.109485051084
    H           -5.695742870269    -0.155398184536    -0.184153280779
    H           -4.834478506569     1.129850223596     0.637166153663
    H            2.516936533060     1.989730111478     0.658538203352
    H            4.100885466818     1.698713742967    -0.072836110770
    H            2.635756251916     1.725178821614    -1.062441612585

  Mulliken Charges: (a.u.)
   Center  Symbol    Alpha    Beta     Spin     Total
       1     O     4.17716  4.17716  0.00000 -0.35431
       2     C     2.86122  2.86122  0.00000  0.27756
       3     C     3.10088  3.10088  0.00000 -0.20175
       4     C     3.16323  3.16323  0.00000 -0.32645
       5     C     3.10251  3.10251  0.00000 -0.20502
       6     H     0.43795  0.43795  0.00000  0.12409
       7     H     0.43715  0.43715  0.00000  0.12570
       8     C     3.08983  3.08983  0.00000 -0.17967
       9     H     0.45065  0.45065  0.00000  0.09869
      10     H     0.45019  0.45019  0.00000  0.09962
      11     C     3.08573  3.08573  0.00000 -0.17147
      12     H     0.45251  0.45251  0.00000  0.09499
      13     H     0.45212  0.45212  0.00000  0.09577
      14     C     3.08526  3.08526  0.00000 -0.17052
      15     H     0.45493  0.45493  0.00000  0.09013
      16     H     0.45482  0.45482  0.00000  0.09036
      17     C     3.15028  3.15028  0.00000 -0.30056
      18     H     0.45389  0.45389  0.00000  0.09222
      19     H     0.45381  0.45381  0.00000  0.09238
      20     H     0.45502  0.45502  0.00000  0.08996
      21     H     0.44762  0.44762  0.00000  0.10476
      22     H     0.45497  0.45497  0.00000  0.09007
      23     H     0.44841  0.44841  0.00000  0.10319
      24     H     0.43187  0.43187  0.00000  0.13626
      25     H     0.44800  0.44800  0.00000  0.10400

   Total alpha = 36.00000, Total beta = 36.00000, Total charge = -0.00000

*** Psi4 exiting successfully. Buy a developer a beer!
