  ==> Input File <==

--------------------------------------------------------------------------
set {
	reference rhf
	basis cc-pvtz
}

set_num_threads( 4 )
memory 2 gb

molecule MOL {
0 1

O	 -0.294688	 1.318815	 -0.000872
C	 -0.448732	 0.145721	 -0.000187
C	 -1.780748	 -0.548101	 0.000195
O	 0.550743	 -0.719877	 0.000412
H	 -1.859389	 -1.183260	 -0.872613
H	 -2.570236	 0.185547	 -0.001342
H	 -1.860233	 -1.180337	 0.875064
C	 0.629200	 -1.619646	 -1.087396
H	 -0.257429	 -2.233949	 -1.137876
H	 1.497047	 -2.232117	 -0.904631
H	 0.740081	 -1.083095	 -2.017902

	symmetry c1
}
set optking {
	frozen_dihedral = ("
		8 4 2 1
	")
}

ee = optimize('scf')
oeprop('DIPOLE', 'QUADRUPOLE', 'MULLIKEN_CHARGES')
f=open( 'psi4out.xyz', 'w' )
f.write( "11  " )
f.write( str(ee) + "\n" )
f.write( MOL.save_string_xyz() )
f.close()
--------------------------------------------------------------------------

    Molecular point group: c1
  Charge       = 0
  Multiplicity = 1
  Basis Set: CC-PVTZ
  Basis Set:
  @DF-RHF Final Energy:  -266.91563334211094
    Total Energy =                       -266.9156333421110503
    Molecular point group: c1
  Basis Set: CC-PVTZ
  Basis Set:
  Basis Set: CC-PVTZ
  Basis Set:
  @DF-RHF Final Energy:  -266.91580576118508
    Total Energy =                       -266.9158057611851973
  Basis Set: CC-PVTZ
  Basis Set:
  Basis Set: CC-PVTZ
  Basis Set:
  @DF-RHF Final Energy:  -266.91854975665547
    Total Energy =                       -266.9185497566556933
  Basis Set: CC-PVTZ
  Basis Set:
  Basis Set: CC-PVTZ
  Basis Set:
  @DF-RHF Final Energy:  -266.91941261219893
    Total Energy =                       -266.9194126121988120
  Basis Set: CC-PVTZ
  Basis Set:
  @DF-RHF Final Energy:  -266.91958469297936
    Total Energy =                       -266.9195846929793561
  @DF-RHF Final Energy:  -266.91965780404001
    Total Energy =                       -266.9196578040400141
  @DF-RHF Final Energy:  -266.91968449004975
    Total Energy =                       -266.9196844900495762
  @DF-RHF Final Energy:  -266.91969364104227
    Total Energy =                       -266.9196936410422722
  @DF-RHF Final Energy:  -266.91971311890114
    Total Energy =                       -266.9197131189010292
  @DF-RHF Final Energy:  -266.91972532889775
    Total Energy =                       -266.9197253288979255
  @DF-RHF Final Energy:  -266.91972839301320
    Total Energy =                       -266.9197283930132016
  @DF-RHF Final Energy:  -266.91972888888688
    Total Energy =                       -266.9197288888868229
  @DF-RHF Final Energy:  -266.91972902572559
    Total Energy =                       -266.9197290257255872
  @DF-RHF Final Energy:  -266.91972912393362
    Total Energy =                       -266.9197291239338483
  @DF-RHF Final Energy:  -266.91972914666314
    Total Energy =                       -266.9197291466629167
  @DF-RHF Final Energy:  -266.91972350409935
    Total Energy =                       -266.9197235040993519
  @DF-RHF Final Energy:  -266.91972918224678
    Total Energy =                       -266.9197291822467832
  Basis Set: CC-PVTZ
  Basis Set:
  @DF-RHF Final Energy:  -266.91970938320912
    Total Energy =                       -266.9197093832090104
  Basis Set: CC-PVTZ
  Basis Set:
  Basis Set: CC-PVTZ
  Basis Set:
  @DF-RHF Final Energy:  -266.91973101595931
    Total Energy =                       -266.9197310159592575
  Basis Set: CC-PVTZ
  Basis Set:
  Basis Set: CC-PVTZ
  Basis Set:
  @DF-RHF Final Energy:  -266.91973211674485
    Total Energy =                       -266.9197321167449672
  Basis Set: CC-PVTZ
  Basis Set:
  Charge       = 0
  Multiplicity = 1
  Basis Set: CC-PVTZ
  Basis Set:

    Orbital Energies (a.u.)
    -----------------------

    Doubly Occupied:

       1A    -20.584784     2A    -20.543038     3A    -11.371914
       4A    -11.293777     5A    -11.239978     6A     -1.464655
       7A     -1.372731     8A     -1.024132     9A     -0.974450
      10A     -0.782242    11A     -0.697951    12A     -0.687097
      13A     -0.675724    14A     -0.616638    15A     -0.591296
      16A     -0.580831    17A     -0.545579    18A     -0.498855
      19A     -0.464202    20A     -0.443165

  @DF-RHF Final Energy:  -266.91973299135464

   => Energetics <=

    Nuclear Repulsion Energy =            182.9370712370700005
    One-Electron Energy =                -726.8075292707574135
    Two-Electron Energy =                 276.9507250423329197
    DFT Exchange-Correlation Energy =       0.0000000000000000
    Empirical Dispersion Energy =           0.0000000000000000
    PCM Polarization Energy =               0.0000000000000000
    EFP Energy =                            0.0000000000000000
    Total Energy =                       -266.9197329913545218
    Molecular point group: c1
  Basis Set: CC-PVTZ
  Basis Set:

  -Total Gradient:
     Atom            X                  Y                   Z
    ------   -----------------  -----------------  -----------------
       1        0.000057985414    -0.000041983496    -0.003283717765
       2        0.000681876841     0.000982676369     0.004172253278
       3        0.000028833423    -0.000052528909     0.000098853639
       4       -0.002264721689    -0.002678848593     0.000491147112
       5       -0.000002437809     0.000000185486    -0.000010033482
       6       -0.000000400558     0.000030896409    -0.000118467629
       7        0.000012710273    -0.000019189043     0.000003938963
       8        0.001512070109     0.001790019596    -0.001385011792
       9       -0.000003037275    -0.000003009288     0.000006522713
      10       -0.000006328626    -0.000011104239     0.000013699671
      11       -0.000016550104     0.000002885711     0.000010815293

  **** Optimization is complete! (in 21 steps) ****
    Final optimized geometry and variables:
    Molecular point group: c1

    Geometry (in Angstrom), charge = 0, multiplicity = 1:

    O           -0.027251039410     1.600335502251     0.201534049807
    C           -0.211715504209     0.439397046473     0.215230112710
    C           -1.581597756399    -0.187874756179     0.249815209397
    O            0.823191198651    -0.418542692804     0.228485470066
    H           -1.804433785086    -0.650186301015    -0.704374523491
    H           -2.315515883442     0.576597908553     0.445671680400
    H           -1.623168990548    -0.956478962638     1.010489645988
    C            0.958938426833    -1.341184277831    -0.825992617675
    H            0.171063855609    -2.084481630323    -0.816204641633
    H            1.906186885651    -1.833727118473    -0.679757037970
    H            0.968478194862    -0.833214779191    -1.782809348982

  Mulliken Charges: (a.u.)
   Center  Symbol    Alpha    Beta     Spin     Total
       1     O     4.16758  4.16758  0.00000 -0.33516
       2     C     2.80453  2.80453  0.00000  0.39094
       3     C     3.15763  3.15763  0.00000 -0.31526
       4     O     4.15047  4.15047  0.00000 -0.30093
       5     H     0.45012  0.45012  0.00000  0.09975
       6     H     0.43096  0.43096  0.00000  0.13808
       7     H     0.44161  0.44161  0.00000  0.11677
       8     C     3.03984  3.03984  0.00000 -0.07969
       9     H     0.46242  0.46242  0.00000  0.07516
      10     H     0.43731  0.43731  0.00000  0.12538
      11     H     0.45752  0.45752  0.00000  0.08495

   Total alpha = 20.00000, Total beta = 20.00000, Total charge = -0.00000
