  ==> Input File <==

--------------------------------------------------------------------------
set {
	reference rhf
	basis 6-31G*
}

set_num_threads( 4 )
memory 2 gb

molecule MOL {
0 1

H	 1.617697	 -1.770507	 -0.974511
C	 0.730818	 -1.191271	 -1.174473
O	 0.464886	 -0.454746	 -0.000158
H	 -0.088641	 -1.860416	 -1.408474
H	 0.915541	 -0.532008	 -2.014302
C	 -0.590998	 0.343045	 0.000118
O	 -1.699443	 -0.054298	 0.000227
H	 -0.340329	 1.404368	 0.000207

	symmetry c1
}
set optking {
	frozen_dihedral = ("
		2 3 6 7
	")
}

ee = optimize('scf')
oeprop('DIPOLE', 'QUADRUPOLE', 'MULLIKEN_CHARGES')
f=open( 'psi4out.xyz', 'w' )
f.write( "8  " )
f.write( str(ee) + "\n" )
f.write( MOL.save_string_xyz() )
f.close()
--------------------------------------------------------------------------

    Molecular point group: c1
  Charge       = 0
  Multiplicity = 1
  Basis Set: 6-31G*
  Basis Set:
  @DF-RHF Final Energy:  -227.77047480890963
    Total Energy =                       -227.7704748089096540
    Molecular point group: c1
  Basis Set: 6-31G*
  Basis Set:
  Basis Set: 6-31G*
  Basis Set:
  @DF-RHF Final Energy:  -227.76619053044021
    Total Energy =                       -227.7661905304401557
  Basis Set: 6-31G*
  Basis Set:
  Basis Set: 6-31G*
  Basis Set:
  @DF-RHF Final Energy:  -227.77100361525950
    Total Energy =                       -227.7710036152595308
  Basis Set: 6-31G*
  Basis Set:
  Basis Set: 6-31G*
  Basis Set:
  @DF-RHF Final Energy:  -227.77132703988502
    Total Energy =                       -227.7713270398848806
  Basis Set: 6-31G*
  Basis Set:
  Basis Set: 6-31G*
  Basis Set:
  @DF-RHF Final Energy:  -227.77133109086617
    Total Energy =                       -227.7713310908661128
  Basis Set: 6-31G*
  Basis Set:
  Charge       = 0
  Multiplicity = 1
  Basis Set: 6-31G*
  Basis Set:

    Orbital Energies (a.u.)
    -----------------------

    Doubly Occupied:

       1A    -20.598532     2A    -20.571698     3A    -11.383122
       4A    -11.296419     5A     -1.469696     6A     -1.379583
       7A     -0.989055     8A     -0.828445     9A     -0.738568
      10A     -0.684802    11A     -0.666570    12A     -0.623283
      13A     -0.561100    14A     -0.514182    15A     -0.470393
      16A     -0.455679

  @DF-RHF Final Energy:  -227.77133130737764

   => Energetics <=

    Nuclear Repulsion Energy =            122.1058850258310287
    One-Electron Energy =                -553.2921771656093597
    Two-Electron Energy =                 203.4149608324007090
    DFT Exchange-Correlation Energy =       0.0000000000000000
    Empirical Dispersion Energy =           0.0000000000000000
    PCM Polarization Energy =               0.0000000000000000
    EFP Energy =                            0.0000000000000000
    Total Energy =                       -227.7713313073776362
    Molecular point group: c1
  Basis Set: 6-31G*
  Basis Set:

  -Total Gradient:
     Atom            X                  Y                   Z
    ------   -----------------  -----------------  -----------------
       1       -0.000013512016     0.000017491732     0.000013283694
       2        0.002819618019     0.004144320018    -0.002182397874
       3       -0.004109474941    -0.005951736252     0.006800265382
       4        0.000009350527    -0.000013851522    -0.000010467664
       5        0.000014345776    -0.000009625861    -0.000010069198
       6        0.001047220051     0.001486252988    -0.011720045811
       7        0.000241220731     0.000333873372     0.007110381060
       8       -0.000008768143    -0.000006724474    -0.000000949590

  **** Optimization is complete! (in 6 steps) ****
    Final optimized geometry and variables:
    Molecular point group: c1

    Geometry (in Angstrom), charge = 0, multiplicity = 1:

    H            1.861890201909    -1.459823915331    -0.653104043744
    C            1.003053064581    -0.846545430094    -0.874208480227
    O            0.756106587986    -0.070724717325     0.285752071110
    H            0.152206380875    -1.473744577540    -1.102709540971
    H            1.226264693830    -0.203738896564    -1.718038957512
    C           -0.345257849741     0.689468599340     0.291614091896
    O           -1.446934588831     0.275993219317     0.350175218334
    H           -0.108674513724     1.749834217111     0.318076551626

  Mulliken Charges: (a.u.)
   Center  Symbol    Alpha    Beta     Spin     Total
       1     H     0.40201  0.40201  0.00000  0.19598
       2     C     3.09411  3.09411  0.00000 -0.18822
       3     O     4.29705  4.29705  0.00000 -0.59411
       4     H     0.40498  0.40498  0.00000  0.19005
       5     H     0.41762  0.41762  0.00000  0.16476
       6     C     2.73181  2.73181  0.00000  0.53639
       7     O     4.23274  4.23274  0.00000 -0.46548
       8     H     0.41968  0.41968  0.00000  0.16064

   Total alpha = 16.00000, Total beta = 16.00000, Total charge =  0.00000
