  ==> Input File <==

--------------------------------------------------------------------------
set {
	reference rhf
	basis 6-31G*
}

set_num_threads( 4 )
memory 2 gb

molecule MOL {
0 1

O	 3.225979	 0.970355	 -0.599647
C	 2.701189	 0.057885	 -0.047330
C	 1.245376	 -0.013843	 0.345420
O	 3.347903	 -1.046386	 0.304773
C	 0.455112	 1.231400	 -0.050772
H	 0.838542	 -0.913825	 -0.103701
H	 1.208210	 -0.175333	 1.419774
C	 -0.998893	 1.219485	 0.433193
H	 0.482531	 1.345121	 -1.130325
H	 0.957290	 2.103070	 0.354729
C	 -1.970100	 0.442533	 -0.460235
H	 -1.339279	 2.250056	 0.502362
H	 -1.040847	 0.819728	 1.445341
C	 -3.423677	 0.552404	 0.004567
H	 -1.890324	 0.812120	 -1.481440
H	 -1.690440	 -0.608038	 -0.492850
C	 -4.402540	 -0.224393	 -0.877785
H	 -3.715865	 1.600902	 0.027184
H	 -3.502169	 0.192966	 1.029429
C	 -5.852388	 -0.106370	 -0.409051
H	 -4.324688	 0.132837	 -1.902465
H	 -4.114676	 -1.273441	 -0.898142
H	 -6.521653	 -0.667340	 -1.054034
H	 -6.181940	 0.928805	 -0.410899
H	 -5.970078	 -0.487759	 0.601377
C	 4.728119	 -1.109107	 -0.004993
H	 4.882018	 -1.033965	 -1.071845
H	 5.068212	 -2.067527	 0.355250
H	 5.265056	 -0.311663	 0.488280

	symmetry c1
}
set optking {
	frozen_dihedral = ("
		11 8 5 9
	")
}

ee = optimize('scf')
oeprop('DIPOLE', 'QUADRUPOLE', 'MULLIKEN_CHARGES')
f=open( 'psi4out.xyz', 'w' )
f.write( "29  " )
f.write( str(ee) + "\n" )
f.write( MOL.save_string_xyz() )
f.close()
--------------------------------------------------------------------------

    Molecular point group: c1
  Charge       = 0
  Multiplicity = 1
  Basis Set: 6-31G*
  Basis Set:
  @DF-RHF Final Energy:  -501.04307690224834
    Total Energy =                       -501.0430769022486857
    Molecular point group: c1
  Basis Set: 6-31G*
  Basis Set:
  Basis Set: 6-31G*
  Basis Set:
  @DF-RHF Final Energy:  -501.04332250598054
    Total Energy =                       -501.0433225059806546
  Basis Set: 6-31G*
  Basis Set:
  Basis Set: 6-31G*
  Basis Set:
  @DF-RHF Final Energy:  -501.04327778578079
    Total Energy =                       -501.0432777857799920
  Basis Set: 6-31G*
  Basis Set:
  Basis Set: 6-31G*
  Basis Set:
  @DF-RHF Final Energy:  -501.04336126740566
    Total Energy =                       -501.0433612674057713
  Basis Set: 6-31G*
  Basis Set:
  Basis Set: 6-31G*
  Basis Set:
  @DF-RHF Final Energy:  -501.04338765062437
    Total Energy =                       -501.0433876506242541
  Basis Set: 6-31G*
  Basis Set:
  Basis Set: 6-31G*
  Basis Set:
  @DF-RHF Final Energy:  -501.04339792281110
    Total Energy =                       -501.0433979228107546
  Basis Set: 6-31G*
  Basis Set:
  Charge       = 0
  Multiplicity = 1
  Basis Set: 6-31G*
  Basis Set:

    Orbital Energies (a.u.)
    -----------------------

    Doubly Occupied:

       1A    -20.603352     2A    -20.545179     3A    -11.371891
       4A    -11.280651     5A    -11.234800     6A    -11.219102
       7A    -11.217530     8A    -11.215886     9A    -11.215678
      10A    -11.214251    11A    -11.208936    12A     -1.469016
      13A     -1.362467    14A     -1.097752    15A     -1.066818
      16A     -1.019555    17A     -0.977174    18A     -0.927863
      19A     -0.859895    20A     -0.799912    21A     -0.790536
      22A     -0.765308    23A     -0.700796    24A     -0.682168
      25A     -0.672255    26A     -0.649510    27A     -0.629085
      28A     -0.604653    29A     -0.595660    30A     -0.580997
      31A     -0.566395    32A     -0.547334    33A     -0.533854
      34A     -0.530070    35A     -0.515303    36A     -0.508600
      37A     -0.498077    38A     -0.478302    39A     -0.470120
      40A     -0.462982    41A     -0.458700    42A     -0.456012
      43A     -0.441467    44A     -0.434361

  @DF-RHF Final Energy:  -501.04339828347918

   => Energetics <=

    Nuclear Repulsion Energy =            609.3810781519936199
    One-Electron Energy =               -1889.8884443751137496
    Two-Electron Energy =                 779.4639679396409520
    DFT Exchange-Correlation Energy =       0.0000000000000000
    Empirical Dispersion Energy =           0.0000000000000000
    PCM Polarization Energy =               0.0000000000000000
    EFP Energy =                            0.0000000000000000
    Total Energy =                       -501.0433982834792914
    Molecular point group: c1
  Basis Set: 6-31G*
  Basis Set:

  -Total Gradient:
     Atom            X                  Y                   Z
    ------   -----------------  -----------------  -----------------
       1       -0.000016182379    -0.000024969377    -0.000045274533
       2        0.000041958323     0.000087851843     0.000119174305
       3       -0.000041330962    -0.000017766224    -0.000110862335
       4       -0.000016984699    -0.000029817682    -0.000041997391
       5        0.000015241419     0.003631490324    -0.000036083518
       6       -0.000020272606    -0.000013120694     0.000005293118
       7        0.000002993418     0.000026840486    -0.000001955255
       8        0.000368846623    -0.002682308152     0.001298077996
       9       -0.000053139392    -0.002449897209    -0.000210010819
      10        0.000027850460    -0.000003051307    -0.000005419915
      11       -0.000310354200     0.001439153859    -0.000937536609
      12       -0.000010572502    -0.000018710160    -0.000020181007
      13       -0.000008959847     0.000008572550     0.000002797252
      14       -0.000008362038     0.000026413681    -0.000010434224
      15       -0.000011013205     0.000005049904     0.000008962390
      16        0.000045460276    -0.000014487280     0.000005640147
      17       -0.000003308061     0.000030199674    -0.000020680221
      18        0.000005663325     0.000007102417    -0.000016781410
      19       -0.000012177498     0.000016066581     0.000005150377
      20        0.000009229028    -0.000036891435     0.000025758391
      21       -0.000015080654     0.000016092760    -0.000000345467
      22        0.000008375098     0.000007719044    -0.000017604356
      23        0.000003566309    -0.000012809074     0.000007940449
      24        0.000008486459    -0.000004930713    -0.000012991116
      25       -0.000008689698     0.000007322505     0.000011321326
      26       -0.000001450728    -0.000000656375    -0.000002248426
      27        0.000002156979    -0.000000506863     0.000000266487
      28       -0.000000146294    -0.000000454511    -0.000000281795
      29       -0.000001802966     0.000000501429     0.000000306159

  **** Optimization is complete! (in 7 steps) ****
    Final optimized geometry and variables:
    Molecular point group: c1

    Geometry (in Angstrom), charge = 0, multiplicity = 1:

    O            3.244358319197     0.735743039297    -0.552181698986
    C            2.705067127972    -0.118669752043     0.074194098633
    C            1.268258733721    -0.096169820261     0.535861229740
    O            3.315910260558    -1.232672194045     0.458187567016
    C            0.518312283307     1.167093298784     0.115314391025
    H            0.793047141072    -0.993516296724     0.151313831795
    H            1.274681625045    -0.204996976177     1.617049807954
    C           -0.948151668271     1.168265818653     0.569829604857
    H            0.568521439323     1.253924341995    -0.965301710743
    H            1.034997381327     2.029820355650     0.520391800494
    C           -1.884608508088     0.364822477547    -0.337216411979
    H           -1.302036121476     2.196144325429     0.596793502750
    H           -1.018691702146     0.800321438499     1.591912530319
    C           -3.338525422909     0.380279546858     0.138067917516
    H           -1.830946905293     0.769919384241    -1.345859676536
    H           -1.545362734117    -0.667272049189    -0.405696836509
    C           -4.282697758470    -0.405161778028    -0.773989082503
    H           -3.682965362054     1.410777867677     0.208463113208
    H           -3.392505483902    -0.027508459420     1.146228354088
    C           -5.731508426206    -0.391956343560    -0.287715369441
    H           -4.236201710157     0.006228843747    -1.780052164234
    H           -3.937286488037    -1.434132552646    -0.849367464682
    H           -6.375475315193    -0.958244161367    -0.953475432526
    H           -6.118540914717     0.621838830940    -0.236491290354
    H           -5.816331919044    -0.827462382080     0.703969185350
    C            4.675125286923    -1.379947400803     0.089750461042
    H            4.780680020804    -1.370331569554    -0.985557083889
    H            4.987153672830    -2.333035473955     0.487562878822
    H            5.271836410311    -0.584368061109     0.512271938048

  Mulliken Charges: (a.u.)
   Center  Symbol    Alpha    Beta     Spin     Total
       1     O     4.28605  4.28605  0.00000 -0.57209
       2     C     2.60525  2.60525  0.00000  0.78950
       3     C     3.20903  3.20903  0.00000 -0.41807
       4     O     4.30738  4.30738  0.00000 -0.61475
       5     C     3.15444  3.15444  0.00000 -0.30888
       6     H     0.39983  0.39983  0.00000  0.20034
       7     H     0.40089  0.40089  0.00000  0.19822
       8     C     3.15785  3.15785  0.00000 -0.31570
       9     H     0.41120  0.41120  0.00000  0.17760
      10     H     0.40950  0.40950  0.00000  0.18099
      11     C     3.15377  3.15377  0.00000 -0.30754
      12     H     0.41811  0.41811  0.00000  0.16378
      13     H     0.42371  0.42371  0.00000  0.15259
      14     C     3.15057  3.15057  0.00000 -0.30114
      15     H     0.42140  0.42140  0.00000  0.15721
      16     H     0.42478  0.42478  0.00000  0.15043
      17     C     3.15147  3.15147  0.00000 -0.30294
      18     H     0.42343  0.42343  0.00000  0.15315
      19     H     0.42412  0.42412  0.00000  0.15176
      20     C     3.23934  3.23934  0.00000 -0.47867
      21     H     0.42262  0.42262  0.00000  0.15475
      22     H     0.42341  0.42341  0.00000  0.15319
      23     H     0.41921  0.41921  0.00000  0.16157
      24     H     0.42159  0.42159  0.00000  0.15682
      25     H     0.42191  0.42191  0.00000  0.15618
      26     C     3.09241  3.09241  0.00000 -0.18482
      27     H     0.40910  0.40910  0.00000  0.18180
      28     H     0.40852  0.40852  0.00000  0.18296
      29     H     0.40912  0.40912  0.00000  0.18176

   Total alpha = 44.00000, Total beta = 44.00000, Total charge = -0.00000
