  ==> Input File <==

--------------------------------------------------------------------------
set {
	reference rhf
	basis 6-31G*
}

set_num_threads( 1 )
memory 2 gb

molecule MOL {
0 1

H	 -3.864689	 0.503085	 -0.258933
O	 -3.018649	 0.836362	 -0.521458
C	 -2.026376	 0.340750	 0.341611
C	 -0.673256	 0.843270	 -0.132153
H	 -2.207013	 0.678336	 1.360602
H	 -2.036400	 -0.748508	 0.349954
C	 0.486613	 -0.083066	 0.235839
H	 -0.715586	 0.970948	 -1.210718
H	 -0.508072	 1.829858	 0.297090
C	 1.840406	 0.433480	 -0.254303
H	 0.300215	 -1.068318	 -0.178947
H	 0.519509	 -0.203625	 1.318070
C	 3.000220	 -0.489290	 0.118523
H	 1.809207	 0.553576	 -1.335192
H	 2.021860	 1.424500	 0.157276
H	 2.864959	 -1.479103	 -0.307933
H	 3.946603	 -0.099227	 -0.243630
H	 3.080049	 -0.602997	 1.196117

	symmetry c1
}
set optking {
	frozen_dihedral = ("
		14 10 7 11,
		10 7 4 8,
		1 2 3 4
	")
}

ee = energy('scf')
oeprop('DIPOLE', 'QUADRUPOLE', 'MULLIKEN_CHARGES')
f=open( 'psi4out.xyz', 'w' )
f.write( "18  " )
f.write( str(ee) + "\n" )
f.write( MOL.save_string_xyz() )
f.close()
--------------------------------------------------------------------------

    Molecular point group: c1

    Geometry (in Angstrom), charge = 0, multiplicity = 1:

       Center              X                  Y                   Z               Mass
    ------------   -----------------  -----------------  -----------------  -----------------
           H         -3.734135154088     0.188725540241    -0.219498183444     1.007825032070
           O         -2.888095154088     0.522002540241    -0.482023183444    15.994914619560
           C         -1.895822154088     0.026390540241     0.381045816556    12.000000000000
           C         -0.542702154088     0.528910540241    -0.092718183444    12.000000000000
           H         -2.076459154088     0.363976540241     1.400036816556     1.007825032070
           H         -1.905846154088    -1.062867459759     0.389388816556     1.007825032070
           C          0.617166845912    -0.397425459759     0.275273816556    12.000000000000
           H         -0.585032154088     0.656588540241    -1.171283183444     1.007825032070
           H         -0.377518154088     1.515498540241     0.336524816556     1.007825032070
           C          1.970959845912     0.119120540241    -0.214868183444    12.000000000000
           H          0.430768845912    -1.382677459759    -0.139512183444     1.007825032070
           H          0.650062845912    -0.517984459759     1.357504816556     1.007825032070
           C          3.130773845912    -0.803649459759     0.157957816556    12.000000000000
           H          1.939760845912     0.239216540241    -1.295757183444     1.007825032070
           H          2.152413845912     1.110140540241     0.196710816556     1.007825032070
           H          2.995512845912    -1.793462459759    -0.268498183444     1.007825032070
           H          4.077156845912    -0.413586459759    -0.204195183444     1.007825032070
           H          3.210602845912    -0.917356459759     1.235551816556     1.007825032070

  Charge       = 0
  Multiplicity = 1
  Basis Set: 6-31G*
  Basis Set:

    Orbital Energies (a.u.)
    -----------------------

    Doubly Occupied:

       1A    -20.551853     2A    -11.266847     3A    -11.215932
       4A    -11.215323     5A    -11.210178     6A    -11.208601
       7A     -1.358338     8A     -1.080215     9A     -1.010852
      10A     -0.913565    11A     -0.819428    12A     -0.792232
      13A     -0.695226    14A     -0.657920    15A     -0.622616
      16A     -0.585889    17A     -0.571776    18A     -0.556953
      19A     -0.529960    20A     -0.493267    21A     -0.489992
      22A     -0.469043    23A     -0.464037    24A     -0.453013
      25A     -0.430553

  @DF-RHF Final Energy:  -271.17691357982505

   => Energetics <=

    Nuclear Repulsion Energy =            245.3482997308766187
    One-Electron Energy =                -853.7233010205798109
    Two-Electron Energy =                 337.1980877098783367
    DFT Exchange-Correlation Energy =       0.0000000000000000
    Empirical Dispersion Energy =           0.0000000000000000
    PCM Polarization Energy =               0.0000000000000000
    EFP Energy =                            0.0000000000000000
    Total Energy =                       -271.1769135798248271

  Mulliken Charges: (a.u.)
   Center  Symbol    Alpha    Beta     Spin     Total
       1     H     0.28143  0.28143  0.00000  0.43713
       2     O     4.37162  4.37162  0.00000 -0.74325
       3     C     2.99095  2.99095  0.00000  0.01809
       4     C     3.16240  3.16240  0.00000 -0.32480
       5     H     0.43137  0.43137  0.00000  0.13726
       6     H     0.43233  0.43233  0.00000  0.13535
       7     C     3.15869  3.15869  0.00000 -0.31738
       8     H     0.40882  0.40882  0.00000  0.18236
       9     H     0.41871  0.41871  0.00000  0.16258
      10     C     3.15147  3.15147  0.00000 -0.30294
      11     H     0.42174  0.42174  0.00000  0.15652
      12     H     0.42502  0.42502  0.00000  0.14996
      13     C     3.23935  3.23935  0.00000 -0.47869
      14     H     0.42118  0.42118  0.00000  0.15765
      15     H     0.42208  0.42208  0.00000  0.15583
      16     H     0.42175  0.42175  0.00000  0.15651
      17     H     0.41895  0.41895  0.00000  0.16210
      18     H     0.42214  0.42214  0.00000  0.15572

   Total alpha = 25.00000, Total beta = 25.00000, Total charge =  0.00000
