  ==> Input File <==

--------------------------------------------------------------------------
set {
	reference rhf
	basis 6-31G*
}

set_num_threads( 1 )
memory 2 gb

molecule MOL {
0 1

H	 1.918430	 -1.396300	 -0.783628
O	 2.016064	 -0.864478	 0.000222
C	 1.050492	 0.053836	 0.000068
C	 -0.318135	 -0.576402	 0.000164
O	 1.285279	 1.218255	 -0.000078
C	 -1.454360	 0.441875	 -0.000474
H	 -0.374042	 -1.230163	 -0.866135
H	 -0.374274	 -1.229227	 0.867154
C	 -2.826123	 -0.230780	 0.000056
H	 -1.357605	 1.085198	 -0.868380
H	 -1.357504	 1.086451	 0.866496
H	 -2.959731	 -0.858053	 -0.876869
H	 -3.619374	 0.509403	 -0.000080
H	 -2.959371	 -0.857318	 0.877556

	symmetry c1
}
set optking {
	frozen_dihedral = ("
		7 4 6 10,
		2 3 4 7
	")
}

ee = energy('scf')
oeprop('DIPOLE', 'QUADRUPOLE', 'MULLIKEN_CHARGES')
f=open( 'psi4out.xyz', 'w' )
f.write( "14  " )
f.write( str(ee) + "\n" )
f.write( MOL.save_string_xyz() )
f.close()
--------------------------------------------------------------------------

    Molecular point group: c1

    Geometry (in Angstrom), charge = 0, multiplicity = 1:

       Center              X                  Y                   Z               Mass
    ------------   -----------------  -----------------  -----------------  -----------------
           H          1.929139665895    -1.385038044942    -0.774656655655     1.007825032070
           O          2.026773665895    -0.853216044942     0.009193344345    15.994914619560
           C          1.061201665895     0.065097955058     0.009039344345    12.000000000000
           C         -0.307425334105    -0.565140044942     0.009135344345    12.000000000000
           O          1.295988665895     1.229516955058     0.008893344345    15.994914619560
           C         -1.443650334105     0.453136955058     0.008497344345    12.000000000000
           H         -0.363332334105    -1.218901044942    -0.857163655655     1.007825032070
           H         -0.363564334105    -1.217965044942     0.876125344345     1.007825032070
           C         -2.815413334105    -0.219518044942     0.009027344345    12.000000000000
           H         -1.346895334105     1.096459955058    -0.859408655655     1.007825032070
           H         -1.346794334105     1.097712955058     0.875467344345     1.007825032070
           H         -2.949021334105    -0.846791044942    -0.867897655655     1.007825032070
           H         -3.608664334105     0.520664955058     0.008891344345     1.007825032070
           H         -2.948661334105    -0.846056044942     0.886527344345     1.007825032070

  Charge       = 0
  Multiplicity = 1
  Basis Set: 6-31G*
  Basis Set:

    Orbital Energies (a.u.)
    -----------------------

    Doubly Occupied:

       1A    -20.603682     2A    -20.558333     3A    -11.380791
       4A    -11.247070     5A    -11.228925     6A    -11.220330
       7A     -1.469510     8A     -1.371086     9A     -1.086269
      10A     -0.978351    11A     -0.851705    12A     -0.809809
      13A     -0.717980    14A     -0.676660    15A     -0.662960
      16A     -0.633891    17A     -0.581724    18A     -0.567879
      19A     -0.548318    20A     -0.505475    21A     -0.496202
      22A     -0.486894    23A     -0.480156    24A     -0.443671

  @DF-RHF Final Energy:  -305.85947489048851

   => Energetics <=

    Nuclear Repulsion Energy =            240.2070272492640299
    One-Electron Energy =                -892.9174863518137499
    Two-Electron Energy =                 346.8509842120615190
    DFT Exchange-Correlation Energy =       0.0000000000000000
    Empirical Dispersion Energy =           0.0000000000000000
    PCM Polarization Energy =               0.0000000000000000
    EFP Energy =                            0.0000000000000000
    Total Energy =                       -305.8594748904882294

  Mulliken Charges: (a.u.)
   Center  Symbol    Alpha    Beta     Spin     Total
       1     H     0.26803  0.26803  0.00000  0.46394
       2     O     4.35321  4.35321  0.00000 -0.70642
       3     C     2.62607  2.62607  0.00000  0.74787
       4     C     3.21719  3.21719  0.00000 -0.43439
       5     O     4.25510  4.25510  0.00000 -0.51019
       6     C     3.15252  3.15252  0.00000 -0.30505
       7     H     0.41426  0.41426  0.00000  0.17148
       8     H     0.39622  0.39622  0.00000  0.20755
       9     C     3.24307  3.24307  0.00000 -0.48614
      10     H     0.41043  0.41043  0.00000  0.17914
      11     H     0.40756  0.40756  0.00000  0.18488
      12     H     0.42218  0.42218  0.00000  0.15564
      13     H     0.41364  0.41364  0.00000  0.17271
      14     H     0.42051  0.42051  0.00000  0.15897

   Total alpha = 24.00000, Total beta = 24.00000, Total charge =  0.00000
