  ==> Input File <==

--------------------------------------------------------------------------
set {
	reference rhf
	basis cc-pvtz
}

set_num_threads( 4 )
memory 2 gb

molecule MOL {
0 1

H	 3.283750	 -0.486419	 0.006941
C	 2.228218	 -0.291958	 0.005294
C	 1.765747	 0.998519	 -0.204760
C	 1.339195	 -1.327498	 0.212206
H	 2.462852	 1.798028	 -0.364837
C	 0.412456	 1.252282	 -0.207644
H	 1.699818	 -2.324554	 0.374398
C	 -0.019631	 -1.071079	 0.209029
H	 0.035693	 2.242701	 -0.368193
C	 -0.486398	 0.214248	 0.000000
H	 -0.717138	 -1.872288	 0.369413
C	 -1.946525	 0.470130	 0.000000
O	 -2.779618	 -0.371226	 0.000000
H	 -2.227127	 1.528393	 0.000000

	symmetry c1
}
set optking {
	frozen_dihedral = ("
		8 10 12 14
	")
}

ee = optimize('scf')
oeprop('DIPOLE', 'QUADRUPOLE', 'MULLIKEN_CHARGES')
f=open( 'psi4out.xyz', 'w' )
f.write( "14  " )
f.write( str(ee) + "\n" )
f.write( MOL.save_string_xyz() )
f.close()
--------------------------------------------------------------------------

    Molecular point group: c1
  Charge       = 0
  Multiplicity = 1
  Basis Set: CC-PVTZ
  Basis Set:
  @DF-RHF Final Energy:  -343.54948505760569
    Total Energy =                       -343.5494850576056365
    Molecular point group: c1
  Basis Set: CC-PVTZ
  Basis Set:
  Basis Set: CC-PVTZ
  Basis Set:
  @DF-RHF Final Energy:  -343.54912172969171
    Total Energy =                       -343.5491217296917057
  Basis Set: CC-PVTZ
  Basis Set:
  Basis Set: CC-PVTZ
  Basis Set:
  @DF-RHF Final Energy:  -343.54959566048734
    Total Energy =                       -343.5495956604876255
  Basis Set: CC-PVTZ
  Basis Set:
  Basis Set: CC-PVTZ
  Basis Set:
  @DF-RHF Final Energy:  -343.54980017660426
    Total Energy =                       -343.5498001766044922
  Basis Set: CC-PVTZ
  Basis Set:
  Basis Set: CC-PVTZ
  Basis Set:
  @DF-RHF Final Energy:  -343.54980508747616
    Total Energy =                       -343.5498050874762725
  Basis Set: CC-PVTZ
  Basis Set:
  Charge       = 0
  Multiplicity = 1
  Basis Set: CC-PVTZ
  Basis Set:

    Orbital Energies (a.u.)
    -----------------------

    Doubly Occupied:

       1A    -20.552841     2A    -11.327024     3A    -11.252642
       4A    -11.250144     5A    -11.246695     6A    -11.245410
       7A    -11.243919     8A    -11.242326     9A     -1.408712
      10A     -1.177125    11A     -1.051807    12A     -1.036210
      13A     -0.892712    14A     -0.848457    15A     -0.794568
      16A     -0.725564    17A     -0.682356    18A     -0.656589
      19A     -0.623775    20A     -0.621335    21A     -0.606110
      22A     -0.561665    23A     -0.530274    24A     -0.510165
      25A     -0.508408    26A     -0.425584    27A     -0.355799
      28A     -0.352595

  @DF-RHF Final Energy:  -343.54980642898875

   => Energetics <=

    Nuclear Repulsion Energy =            323.9554513303647809
    One-Electron Energy =               -1107.5488910455137557
    Two-Electron Energy =                 440.0436332861603432
    DFT Exchange-Correlation Energy =       0.0000000000000000
    Empirical Dispersion Energy =           0.0000000000000000
    PCM Polarization Energy =               0.0000000000000000
    EFP Energy =                            0.0000000000000000
    Total Energy =                       -343.5498064289886315
    Molecular point group: c1
  Basis Set: CC-PVTZ
  Basis Set:

  -Total Gradient:
     Atom            X                  Y                   Z
    ------   -----------------  -----------------  -----------------
       1       -0.000002007569    -0.000005579902    -0.000006814964
       2       -0.000012172465     0.000035723544     0.000020490269
       3        0.000024485001    -0.000006552919     0.000023762657
       4       -0.000016444164     0.000002942781    -0.000028842474
       5        0.000000573377    -0.000002305889     0.000001674946
       6       -0.000019641796     0.000002476620    -0.000069663188
       7        0.000001073022    -0.000000403824     0.000003736842
       8        0.000087127160     0.000304856671     0.001518900420
       9        0.000013350009    -0.000012613655     0.000017170133
      10       -0.000107007207    -0.000439667160    -0.001644724765
      11       -0.000011469357    -0.000003905474     0.000010083881
      12        0.000002573791     0.000100604377    -0.001690837802
      13        0.000010071736     0.000013681548    -0.000017093442
      14        0.000029488455     0.000010743282     0.001862157488

  **** Optimization is complete! (in 6 steps) ****
    Final optimized geometry and variables:
    Molecular point group: c1

    Geometry (in Angstrom), charge = 0, multiplicity = 1:

    H            3.291564544514    -0.455172776494     0.008524477727
    C            2.235348229568    -0.264299804156     0.001993529504
    C            1.770515146925     1.018184789239    -0.208151521010
    C            1.345557447089    -1.308076712240     0.208658363116
    H            2.460753795985     1.824068615446    -0.365325685522
    C            0.408509021837     1.258881665282    -0.209691571984
    H            1.714719494337    -2.301222687881     0.376845459929
    C           -0.010156032659    -1.068269425583     0.199301119037
    H            0.040367464704     2.256292127962    -0.364508280974
    C           -0.483353214914     0.219656165315    -0.015680594121
    H           -0.713303919019    -1.862100362376     0.355140519141
    C           -1.939843635405     0.498116672233    -0.008804198100
    O           -2.784961345783    -0.330169006150     0.024597425694
    H           -2.203725821217     1.560837268266    -0.015573412881

  Mulliken Charges: (a.u.)
   Center  Symbol    Alpha    Beta     Spin     Total
       1     H     0.41952  0.41952  0.00000  0.16097
       2     C     3.06988  3.06988  0.00000 -0.13976
       3     C     3.07360  3.07360  0.00000 -0.14720
       4     C     3.07236  3.07236  0.00000 -0.14472
       5     H     0.42059  0.42059  0.00000  0.15882
       6     C     3.08731  3.08731  0.00000 -0.17461
       7     H     0.41953  0.41953  0.00000  0.16093
       8     C     3.08014  3.08014  0.00000 -0.16029
       9     H     0.42296  0.42296  0.00000  0.15409
      10     C     2.98421  2.98421  0.00000  0.03159
      11     H     0.40879  0.40879  0.00000  0.18242
      12     C     2.91017  2.91017  0.00000  0.17965
      13     O     4.17256  4.17256  0.00000 -0.34511
      14     H     0.45839  0.45839  0.00000  0.08321

   Total alpha = 28.00000, Total beta = 28.00000, Total charge = -0.00000
