  ==> Input File <==

--------------------------------------------------------------------------
set {
	reference rhf
	basis 6-31G*
}

set_num_threads( 1 )
memory 2 gb

molecule MOL {
0 1

H	 1.573570	 -1.219366	 0.783487
O	 1.586534	 -0.678666	 -0.000226
C	 0.489431	 0.077273	 0.000046
C	 -0.764129	 -0.759190	 0.000191
O	 0.537743	 1.263962	 0.000257
C	 -2.038368	 0.075731	 -0.000248
H	 -0.717284	 -1.412404	 -0.866059
H	 -0.717458	 -1.411724	 0.866967
H	 -2.086483	 0.712501	 -0.875098
H	 -2.908485	 -0.571682	 -0.000042
H	 -2.086576	 0.713280	 0.874068

	symmetry c1
}
set optking {
	frozen_dihedral = ("
		2 3 4 7
	")
}

ee = energy('scf')
oeprop('DIPOLE', 'QUADRUPOLE', 'MULLIKEN_CHARGES')
f=open( 'psi4out.xyz', 'w' )
f.write( "11  " )
f.write( str(ee) + "\n" )
f.write( MOL.save_string_xyz() )
f.close()
--------------------------------------------------------------------------

    Molecular point group: c1

    Geometry (in Angstrom), charge = 0, multiplicity = 1:

       Center              X                  Y                   Z               Mass
    ------------   -----------------  -----------------  -----------------  -----------------
           H          1.584054055871    -1.204146205465     0.772819107960     1.007825032070
           O          1.597018055871    -0.663446205465    -0.010893892040    15.994914619560
           C          0.499915055871     0.092492794535    -0.010621892040    12.000000000000
           C         -0.753644944129    -0.743970205465    -0.010476892040    12.000000000000
           O          0.548227055871     1.279181794535    -0.010410892040    15.994914619560
           C         -2.027883944129     0.090950794535    -0.010915892040    12.000000000000
           H         -0.706799944129    -1.397184205465    -0.876726892040     1.007825032070
           H         -0.706973944129    -1.396504205465     0.856299107960     1.007825032070
           H         -2.075998944129     0.727720794535    -0.885765892040     1.007825032070
           H         -2.898000944129    -0.556462205465    -0.010709892040     1.007825032070
           H         -2.076091944129     0.728499794535     0.863400107960     1.007825032070

  Charge       = 0
  Multiplicity = 1
  Basis Set: 6-31G*
  Basis Set:

    Orbital Energies (a.u.)
    -----------------------

    Doubly Occupied:

       1A    -20.604380     2A    -20.559016     3A    -11.381222
       4A    -11.249958     5A    -11.223741     6A     -1.470205
       7A     -1.371864     8A     -1.067662     9A     -0.909481
      10A     -0.819289    11A     -0.716953    12A     -0.675368
      13A     -0.661057    14A     -0.619799    15A     -0.576525
      16A     -0.532275    17A     -0.521442    18A     -0.505355
      19A     -0.485931    20A     -0.445614

  @DF-RHF Final Energy:  -266.82473979814762

   => Energetics <=

    Nuclear Repulsion Energy =            179.9194231481133102
    One-Electron Energy =                -720.6940604344725898
    Two-Electron Energy =                 273.9498974882124571
    DFT Exchange-Correlation Energy =       0.0000000000000000
    Empirical Dispersion Energy =           0.0000000000000000
    PCM Polarization Energy =               0.0000000000000000
    EFP Energy =                            0.0000000000000000
    Total Energy =                       -266.8247397981468225

  Mulliken Charges: (a.u.)
   Center  Symbol    Alpha    Beta     Spin     Total
       1     H     0.26796  0.26796  0.00000  0.46409
       2     O     4.35220  4.35220  0.00000 -0.70441
       3     C     2.62854  2.62854  0.00000  0.74291
       4     C     3.21560  3.21560  0.00000 -0.43120
       5     O     4.25437  4.25437  0.00000 -0.50875
       6     C     3.23935  3.23935  0.00000 -0.47870
       7     H     0.39545  0.39545  0.00000  0.20911
       8     H     0.41350  0.41350  0.00000  0.17301
       9     H     0.40642  0.40642  0.00000  0.18716
      10     H     0.41732  0.41732  0.00000  0.16537
      11     H     0.40930  0.40930  0.00000  0.18141

   Total alpha = 20.00000, Total beta = 20.00000, Total charge =  0.00000
