                              Psi4 1.0.54 Driver

  ==> Input File <==

--------------------------------------------------------------------------
set {
	reference rhf
	basis cc-pvtz
}

set_num_threads( 4 )
memory 2 gb

molecule MOL {
0 1

O	 -1.510770	 1.240811	 -0.054933
C	 -1.081510	 0.147522	 0.122720
C	 0.327029	 -0.064006	 0.641890
C	 -1.903028	 -1.084121	 -0.174656
C	 1.349460	 -0.017068	 -0.500215
H	 0.399029	 -1.014606	 1.159950
H	 0.538021	 0.726928	 1.350471
C	 2.194329	 1.251480	 -0.473298
H	 2.000861	 -0.884518	 -0.445034
H	 0.818989	 -0.086021	 -1.442645
H	 2.899470	 1.264658	 -1.295876
H	 2.759521	 1.328215	 0.449427
H	 1.571912	 2.135642	 -0.555307
H	 -1.341891	 -1.779207	 -0.789259
H	 -2.820449	 -0.808163	 -0.671328
H	 -2.133314	 -1.593056	 0.755831

	symmetry c1
}
set optking {
	frozen_dihedral = ("
		9 5 3 2
	")
}

ee,wfn = optimize('scf', return_wfn=True)
oeprop( wfn, 'DIPOLE', 'QUADRUPOLE', 'MULLIKEN_CHARGES')
f=open( 'psi4out.xyz', 'w' )
f.write( "16  " )
f.write( str(ee) + "\n" )
f.write( MOL.save_string_xyz() )
f.close()
--------------------------------------------------------------------------

    Molecular point group: c1
  Charge       = 0
  Multiplicity = 1
  Basis Set: CC-PVTZ
  Basis Set:
  @DF-RHF Final Energy:  -270.12413825103732
    Total Energy =                       -270.1241382510374365
    Molecular point group: c1
  Basis Set: CC-PVTZ
  Basis Set:
  Basis Set: CC-PVTZ
  Basis Set:
  @DF-RHF Final Energy:  -270.12429771172708
    Total Energy =                       -270.1242977117268538
  Basis Set: CC-PVTZ
  Basis Set:
  Basis Set: CC-PVTZ
  Basis Set:
  @DF-RHF Final Energy:  -270.12461715322416
    Total Energy =                       -270.1246171532239941
  Basis Set: CC-PVTZ
  Basis Set:
  Basis Set: CC-PVTZ
  Basis Set:
  @DF-RHF Final Energy:  -270.12469886571853
    Total Energy =                       -270.1246988657184716
  Basis Set: CC-PVTZ
  Basis Set:
  Basis Set: CC-PVTZ
  Basis Set:
  @DF-RHF Final Energy:  -270.12472416659978
    Total Energy =                       -270.1247241665998899
  Basis Set: CC-PVTZ
  Basis Set:
  Basis Set: CC-PVTZ
  Basis Set:
  @DF-RHF Final Energy:  -270.12473249623883
    Total Energy =                       -270.1247324962383800
  Basis Set: CC-PVTZ
  Basis Set:
  Basis Set: CC-PVTZ
  Basis Set:
  @DF-RHF Final Energy:  -270.12473495842812
    Total Energy =                       -270.1247349584278936
  Basis Set: CC-PVTZ
  Basis Set:
  Charge       = 0
  Multiplicity = 1
  Basis Set: CC-PVTZ
  Basis Set:

    Orbital Energies (a.u.)
    -----------------------

    Doubly Occupied:

       1A    -20.537184     2A    -11.319801     3A    -11.233383
       4A    -11.228265     5A    -11.227190     6A    -11.214099
       7A     -1.397073     8A     -1.081904     9A     -1.013074
      10A     -0.948878    11A     -0.832015    12A     -0.736414
      13A     -0.659785    14A     -0.645646    15A     -0.620550
      16A     -0.596774    17A     -0.583540    18A     -0.559504
      19A     -0.544625    20A     -0.513454    21A     -0.496413
      22A     -0.486789    23A     -0.474888    24A     -0.399765

  @DF-RHF Final Energy:  -270.12473534175297

   => Energetics <=

    Nuclear Repulsion Energy =            239.4104342681141020
    One-Electron Energy =                -840.3683170512175593
    Two-Electron Energy =                 330.8331474413502065
    DFT Exchange-Correlation Energy =       0.0000000000000000
    Empirical Dispersion Energy =           0.0000000000000000
    PCM Polarization Energy =               0.0000000000000000
    EFP Energy =                            0.0000000000000000
    Total Energy =                       -270.1247353417533077
    Molecular point group: c1
  Basis Set: CC-PVTZ
  Basis Set:

  -Total Gradient:
     Atom            X                  Y                   Z
    ------   -----------------  -----------------  -----------------
       1        0.000003628296    -0.000041337489    -0.000000633028
       2       -0.000222678292    -0.001673476248    -0.000123498392
       3       -0.000068362113     0.002068674488    -0.000173162811
       4       -0.000011955937    -0.000011580007     0.000032571305
       5        0.001889112973     0.000963514829     0.001620303708
       6       -0.000011862142    -0.000007058344     0.000010707275
       7       -0.000006404237    -0.000002357892     0.000007588816
       8        0.000000716463     0.000000852717    -0.000017338605
       9       -0.001581927012    -0.001289181895    -0.001327454067
      10        0.000010717582     0.000010164490    -0.000006510345
      11        0.000005396638     0.000002156394    -0.000008653009
      12       -0.000003156978    -0.000005820736     0.000003429177
      13       -0.000003393082    -0.000004297320     0.000004869743
      14        0.000016755909    -0.000003612620    -0.000013966160
      15       -0.000011638519     0.000009107873    -0.000006175694
      16       -0.000004949550    -0.000015748242    -0.000002077914

  **** Optimization is complete! (in 8 steps) ****
    Final optimized geometry and variables:
    Molecular point group: c1

    Geometry (in Angstrom), charge = 0, multiplicity = 1:

    O           -1.469423770634     0.999661035207     0.188891374912
    C           -0.978886709788    -0.080946784310     0.248465239798
    C            0.435945276136    -0.283356647747     0.748226128619
    C           -1.734739022667    -1.315749715431    -0.185019948190
    C            1.447569725784    -0.316797810959    -0.425333245958
    H            0.484652803689    -1.211416737324     1.306042173162
    H            0.668921433946     0.526468062552     1.425163419930
    C            2.291650543844     0.948990898677    -0.519308983989
    H            2.084676976264    -1.187817301989    -0.330527223032
    H            0.916430090750    -0.450574717049    -1.362735057172
    H            2.963603738402     0.905275320499    -1.368588121588
    H            2.891063297182     1.083525423219     0.374318491414
    H            1.661900079379     1.823563790114    -0.632448398791
    H           -1.121267639102    -1.948338226804    -0.815831297211
    H           -2.637252061330    -1.034560556636    -0.705648115358
    H           -1.994211316140    -1.894780905288     0.695671584972

  Mulliken Charges: (a.u.)
   Center  Symbol    Alpha    Beta     Spin     Total
       1     O     4.17717  4.17717  0.00000 -0.35435
       2     C     2.85793  2.85793  0.00000  0.28414
       3     C     3.10657  3.10657  0.00000 -0.21315
       4     C     3.15521  3.15521  0.00000 -0.31043
       5     C     3.08974  3.08974  0.00000 -0.17947
       6     H     0.44256  0.44256  0.00000  0.11487
       7     H     0.44019  0.44019  0.00000  0.11962
       8     C     3.14535  3.14535  0.00000 -0.29070
       9     H     0.44706  0.44706  0.00000  0.10588
      10     H     0.45460  0.45460  0.00000  0.09079
      11     H     0.44951  0.44951  0.00000  0.10098
      12     H     0.45433  0.45433  0.00000  0.09135
      13     H     0.44546  0.44546  0.00000  0.10908
      14     H     0.45040  0.45040  0.00000  0.09919
      15     H     0.43608  0.43608  0.00000  0.12784
      16     H     0.44783  0.44783  0.00000  0.10435

   Total alpha = 24.00000, Total beta = 24.00000, Total charge =  0.00000

*** Psi4 exiting successfully. Buy a developer a beer!
