  ==> Input File <==

--------------------------------------------------------------------------
set {
	reference rhf
	basis 6-31G*
}

set_num_threads( 4 )
memory 2 gb

molecule MOL {
0 1

O	 -1.276010	 1.052711	 -0.768302
C	 -1.204840	 0.067374	 -0.106123
C	 -2.388195	 -0.672128	 0.458071
O	 -0.067104	 -0.527208	 0.221609
H	 -2.388023	 -1.694060	 0.097175
H	 -3.300579	 -0.174919	 0.164318
H	 -2.315377	 -0.706351	 1.539059
C	 0.376476	 -0.479124	 1.585006
C	 1.885692	 -0.639359	 1.538310
C	 -0.313736	 -1.570218	 2.388603
H	 0.115477	 0.489659	 1.984813
H	 2.336079	 0.147515	 0.943980
H	 2.297940	 -0.590454	 2.540802
H	 2.156541	 -1.594893	 1.102135
H	 0.034937	 -1.553927	 3.416308
H	 -1.386271	 -1.423177	 2.393632
H	 -0.094407	 -2.546707	 1.968637

	symmetry c1
}
set optking {
	frozen_dihedral = ("
		8 4 2 1
	")
}

ee = optimize('scf')
oeprop('DIPOLE', 'QUADRUPOLE', 'MULLIKEN_CHARGES')
f=open( 'psi4out.xyz', 'w' )
f.write( "17  " )
f.write( str(ee) + "\n" )
f.write( MOL.save_string_xyz() )
f.close()
--------------------------------------------------------------------------

    Molecular point group: c1
  Charge       = 0
  Multiplicity = 1
  Basis Set: 6-31G*
  Basis Set:
  @DF-RHF Final Energy:  -344.87463036742980
    Total Energy =                       -344.8746303674298588
    Molecular point group: c1
  Basis Set: 6-31G*
  Basis Set:
  Basis Set: 6-31G*
  Basis Set:
  @DF-RHF Final Energy:  -344.88820041191099
    Total Energy =                       -344.8882004119111571
  Basis Set: 6-31G*
  Basis Set:
  Basis Set: 6-31G*
  Basis Set:
  @DF-RHF Final Energy:  -344.89138743363952
    Total Energy =                       -344.8913874336392951
  Basis Set: 6-31G*
  Basis Set:
  Basis Set: 6-31G*
  Basis Set:
  @DF-RHF Final Energy:  -344.89118499276367
    Total Energy =                       -344.8911849927636695
  Basis Set: 6-31G*
  Basis Set:
  @DF-RHF Final Energy:  -344.89255675596343
    Total Energy =                       -344.8925567559634828
  @DF-RHF Final Energy:  -344.89310937838940
    Total Energy =                       -344.8931093783893971
  @DF-RHF Final Energy:  -344.89345231352110
    Total Energy =                       -344.8934523135212658
  @DF-RHF Final Energy:  -344.89374280433333
    Total Energy =                       -344.8937428043331579
  @DF-RHF Final Energy:  -344.89402279552752
    Total Energy =                       -344.8940227955270075
  @DF-RHF Final Energy:  -344.89429492567848
    Total Energy =                       -344.8942949256781958
  @DF-RHF Final Energy:  -344.89438892405650
    Total Energy =                       -344.8943889240566705
  @DF-RHF Final Energy:  -344.89444822168304
    Total Energy =                       -344.8944482216832057
  @DF-RHF Final Energy:  -344.89448012117231
    Total Energy =                       -344.8944801211727622
  @DF-RHF Final Energy:  -344.89450328166225
    Total Energy =                       -344.8945032816620824
  @DF-RHF Final Energy:  -344.89452526287710
    Total Energy =                       -344.8945252628769254
  @DF-RHF Final Energy:  -344.89457806353289
    Total Energy =                       -344.8945780635328902
  @DF-RHF Final Energy:  -344.89464760550885
    Total Energy =                       -344.8946476055087942
  Basis Set: 6-31G*
  Basis Set:
  @DF-RHF Final Energy:  -344.89466756339675
    Total Energy =                       -344.8946675633966379
  Basis Set: 6-31G*
  Basis Set:
  Basis Set: 6-31G*
  Basis Set:
  @DF-RHF Final Energy:  -344.89467226482560
    Total Energy =                       -344.8946722648256582
  Basis Set: 6-31G*
  Basis Set:
  Basis Set: 6-31G*
  Basis Set:
  @DF-RHF Final Energy:  -344.89467465702103
    Total Energy =                       -344.8946746570210280
  Basis Set: 6-31G*
  Basis Set:
  Charge       = 0
  Multiplicity = 1
  Basis Set: 6-31G*
  Basis Set:

    Orbital Energies (a.u.)
    -----------------------

    Doubly Occupied:

       1A    -20.582437     2A    -20.552265     3A    -11.376051
       4A    -11.303093     5A    -11.237603     6A    -11.223076
       7A    -11.221434     8A     -1.455753     9A     -1.365365
      10A     -1.074303    11A     -1.011876    12A     -0.953405
      13A     -0.851402    14A     -0.767639    15A     -0.692772
      16A     -0.673491    17A     -0.655602    18A     -0.623793
      19A     -0.590574    20A     -0.587559    21A     -0.557541
      22A     -0.552921    23A     -0.541805    24A     -0.524186
      25A     -0.509181    26A     -0.477397    27A     -0.448749
      28A     -0.433730

  @DF-RHF Final Energy:  -344.89467477006019

   => Energetics <=

    Nuclear Repulsion Energy =            322.6601030163412815
    One-Electron Energy =               -1109.4195427176493922
    Two-Electron Energy =                 441.8647649312479189
    DFT Exchange-Correlation Energy =       0.0000000000000000
    Empirical Dispersion Energy =           0.0000000000000000
    PCM Polarization Energy =               0.0000000000000000
    EFP Energy =                            0.0000000000000000
    Total Energy =                       -344.8946747700601918
    Molecular point group: c1
  Basis Set: 6-31G*
  Basis Set:

  -Total Gradient:
     Atom            X                  Y                   Z
    ------   -----------------  -----------------  -----------------
       1        0.000549730092     0.000674216320     0.000439710407
       2       -0.000424630532    -0.000931454496    -0.000867819870
       3        0.000012832181    -0.000012879857     0.000000290118
       4       -0.000834359324     0.000221422964     0.000790880192
       5        0.000004593133    -0.000005371519     0.000011155174
       6        0.000007172026    -0.000002727095    -0.000001126026
       7       -0.000002314971    -0.000003370204     0.000007923917
       8        0.000686959001     0.000062423011    -0.000372156738
       9       -0.000012341291    -0.000006695472    -0.000003751473
      10        0.000013320083     0.000004429316    -0.000004898183
      11        0.000007050425     0.000003276035    -0.000001385014
      12       -0.000000987786     0.000004832712    -0.000001336779
      13       -0.000006576735    -0.000004370611    -0.000001299415
      14       -0.000000938099    -0.000001928710     0.000000291576
      15        0.000002627780    -0.000001757428     0.000004291403
      16       -0.000004039871     0.000005039861    -0.000003166468
      17        0.000001903890    -0.000005084828     0.000002397182

  **** Optimization is complete! (in 21 steps) ****
    Final optimized geometry and variables:
    Molecular point group: c1

    Geometry (in Angstrom), charge = 0, multiplicity = 1:

    O           -0.184428959903     0.581248805431    -2.026723933421
    C           -0.676984780612     0.317223063207    -0.985191724329
    C           -1.973776193028     0.917078355393    -0.499060185984
    O           -0.137576678663    -0.611026107810    -0.170039754234
    H           -2.673272097588     0.124035117906    -0.260340496869
    H           -2.384431443359     1.557269181618    -1.265562441293
    H           -1.817981762996     1.498670573859     0.402957517568
    C            0.482781651738    -0.223373808612     1.056609880660
    C            1.784415588777     0.515585790664     0.780482795445
    C            0.687984830341    -1.505736634660     1.842082037417
    H           -0.194841746365     0.423767873544     1.605584187648
    H            1.614599310058     1.422679845375     0.211215464692
    H            2.264180053345     0.788709652138     1.715083450735
    H            2.458453329779    -0.114971977382     0.212243187619
    H            1.139517306695    -1.290771421822     2.804926640631
    H           -0.259404674649    -2.005116968453     2.007512389562
    H            1.338955030604    -2.179069872431     1.296044183169

  Mulliken Charges: (a.u.)
   Center  Symbol    Alpha    Beta     Spin     Total
       1     O     4.25258  4.25258  0.00000 -0.50516
       2     C     2.62129  2.62129  0.00000  0.75742
       3     C     3.29340  3.29340  0.00000 -0.58680
       4     O     4.32072  4.32072  0.00000 -0.64145
       5     H     0.39941  0.39941  0.00000  0.20117
       6     H     0.39436  0.39436  0.00000  0.21127
       7     H     0.40621  0.40621  0.00000  0.18758
       8     C     2.92811  2.92811  0.00000  0.14379
       9     C     3.24703  3.24703  0.00000 -0.49407
      10     C     3.24050  3.24050  0.00000 -0.48100
      11     H     0.42274  0.42274  0.00000  0.15452
      12     H     0.41071  0.41071  0.00000  0.17857
      13     H     0.41850  0.41850  0.00000  0.16299
      14     H     0.40622  0.40622  0.00000  0.18757
      15     H     0.41860  0.41860  0.00000  0.16280
      16     H     0.41090  0.41090  0.00000  0.17821
      17     H     0.40871  0.40871  0.00000  0.18257

   Total alpha = 28.00000, Total beta = 28.00000, Total charge =  0.00000
