  ==> Input File <==

--------------------------------------------------------------------------
set {
	reference rhf
	basis 6-31G*
}

set_num_threads( 4 )
memory 2 gb

molecule MOL {
0 1

H	 -1.871039	 0.118789	 -0.672675
N	 -1.172117	 -0.314371	 -0.100254
C	 -0.024542	 0.565565	 0.069209
H	 -1.600731	 -0.506269	 0.785491
C	 1.271298	 -0.229563	 -0.014192
H	 -0.049409	 1.297310	 -0.731596
H	 -0.046881	 1.125219	 1.006750
H	 1.332152	 -0.753033	 -0.961461
H	 2.134169	 0.422483	 0.080702
H	 1.326077	 -0.968298	 0.781395

	symmetry c1
}
set optking {
	frozen_dihedral = ("
		1 2 3 6
	")
}

ee = optimize('scf')
oeprop('DIPOLE', 'QUADRUPOLE', 'MULLIKEN_CHARGES')
f=open( 'psi4out.xyz', 'w' )
f.write( "10  " )
f.write( str(ee) + "\n" )
f.write( MOL.save_string_xyz() )
f.close()
--------------------------------------------------------------------------

    Molecular point group: c1
  Charge       = 0
  Multiplicity = 1
  Basis Set: 6-31G*
  Basis Set:
  @DF-RHF Final Energy:  -134.24479952828062
    Total Energy =                       -134.2447995282805380
    Molecular point group: c1
  Basis Set: 6-31G*
  Basis Set:
  Basis Set: 6-31G*
  Basis Set:
  @DF-RHF Final Energy:  -134.24514874596321
    Total Energy =                       -134.2451487459631494
  Basis Set: 6-31G*
  Basis Set:
  Basis Set: 6-31G*
  Basis Set:
  @DF-RHF Final Energy:  -134.24526582239508
    Total Energy =                       -134.2452658223951119
  Basis Set: 6-31G*
  Basis Set:
  Basis Set: 6-31G*
  Basis Set:
  @DF-RHF Final Energy:  -134.24526895601315
    Total Energy =                       -134.2452689560130921
  Basis Set: 6-31G*
  Basis Set:
  Charge       = 0
  Multiplicity = 1
  Basis Set: 6-31G*
  Basis Set:

    Orbital Energies (a.u.)
    -----------------------

    Doubly Occupied:

       1A    -15.530531     2A    -11.242821     3A    -11.200615
       4A     -1.172558     5A     -0.985085     6A     -0.820822
       7A     -0.671020     8A     -0.623888     9A     -0.571311
      10A     -0.522306    11A     -0.510336    12A     -0.478376
      13A     -0.377546

  @DF-RHF Final Energy:  -134.24526935498267

   => Energetics <=

    Nuclear Repulsion Energy =             83.1061151263442781
    One-Electron Energy =                -345.2883436175178531
    Two-Electron Energy =                 127.9369591361909499
    DFT Exchange-Correlation Energy =       0.0000000000000000
    Empirical Dispersion Energy =           0.0000000000000000
    PCM Polarization Energy =               0.0000000000000000
    EFP Energy =                            0.0000000000000000
    Total Energy =                       -134.2452693549826392
    Molecular point group: c1
  Basis Set: 6-31G*
  Basis Set:

  -Total Gradient:
     Atom            X                  Y                   Z
    ------   -----------------  -----------------  -----------------
       1        0.001148799620    -0.001121624099    -0.002319581489
       2       -0.001790200751     0.001746280629     0.003258011572
       3        0.001991917318    -0.002218615214    -0.002429340353
       4        0.000004119046    -0.000002170327    -0.000000168753
       5       -0.000020522121     0.000030876804    -0.000000355413
       6       -0.001341801420     0.001558952588     0.001477794469
       7        0.000005405468     0.000008863339     0.000018809863
       8        0.000000256145    -0.000000489593     0.000005983905
       9        0.000009992811    -0.000014178316    -0.000006762155
      10       -0.000007966117     0.000012104189    -0.000004391648

  **** Optimization is complete! (in 5 steps) ****
    Final optimized geometry and variables:
    Molecular point group: c1

    Geometry (in Angstrom), charge = 0, multiplicity = 1:

    H           -1.894277648966     0.115777438380    -0.634810141624
    N           -1.178638804623    -0.310817967421    -0.083586840764
    C           -0.013301709813     0.555094323780     0.063456718217
    H           -1.572563062814    -0.565808555506     0.798940931943
    C            1.281673626126    -0.244217001169     0.001137092787
    H           -0.031237710516     1.297455307142    -0.728069584770
    H           -0.043543290498     1.120315793208     0.995244963809
    H            1.355777624220    -0.769560945043    -0.944337830180
    H            2.147552747632     0.403479489461     0.110412223462
    H            1.312424617466    -0.984607840574     0.794896839109

  Mulliken Charges: (a.u.)
   Center  Symbol    Alpha    Beta     Spin     Total
       1     H     0.33037  0.33037  0.00000  0.33926
       2     N     3.92632  3.92632  0.00000 -0.85264
       3     C     3.06632  3.06632  0.00000 -0.13265
       4     H     0.33176  0.33176  0.00000  0.33647
       5     C     3.22690  3.22690  0.00000 -0.45380
       6     H     0.42262  0.42262  0.00000  0.15477
       7     H     0.42980  0.42980  0.00000  0.14039
       8     H     0.41593  0.41593  0.00000  0.16814
       9     H     0.42724  0.42724  0.00000  0.14552
      10     H     0.42273  0.42273  0.00000  0.15455

   Total alpha = 13.00000, Total beta = 13.00000, Total charge = -0.00000
