  ==> Input File <==

--------------------------------------------------------------------------
set {
	reference rhf
	basis cc-pvtz
}

set_num_threads( 4 )
memory 2 gb

molecule MOL {
0 1

H	 -3.298684	 0.481289	 -0.246797
C	 -2.599459	 0.065603	 -0.968721
O	 -1.401606	 -0.295183	 -0.366624
H	 -3.033700	 -0.824263	 -1.400533
H	 -2.445258	 0.798040	 -1.759064
C	 -0.718530	 0.758693	 0.228682
C	 0.718529	 0.758687	 -0.228709
H	 -1.176498	 1.708665	 -0.046615
H	 -0.748705	 0.673525	 1.312779
O	 1.401606	 -0.295166	 0.366636
H	 0.748705	 0.673477	 -1.312803
H	 1.176496	 1.708671	 0.046552
C	 2.714315	 -0.441627	 -0.061017
H	 2.765292	 -0.641548	 -1.128869
H	 3.305661	 0.447341	 0.150952
H	 3.143725	 -1.278506	 0.470147

	symmetry c1
}
set optking {
	frozen_dihedral = ("
		2 3 6 7
	")
}

ee = optimize('scf')
oeprop('DIPOLE', 'QUADRUPOLE', 'MULLIKEN_CHARGES')
f=open( 'psi4out.xyz', 'w' )
f.write( "16  " )
f.write( str(ee) + "\n" )
f.write( MOL.save_string_xyz() )
f.close()
--------------------------------------------------------------------------

    Molecular point group: c1
  Charge       = 0
  Multiplicity = 1
  Basis Set: CC-PVTZ
  Basis Set:
  @DF-RHF Final Energy:  -307.09362794761125
    Total Energy =                       -307.0936279476114237
    Molecular point group: c1
  Basis Set: CC-PVTZ
  Basis Set:
  Basis Set: CC-PVTZ
  Basis Set:
  @DF-RHF Final Energy:  -307.09393629979860
    Total Energy =                       -307.0939362997988269
  Basis Set: CC-PVTZ
  Basis Set:
  Basis Set: CC-PVTZ
  Basis Set:
  @DF-RHF Final Energy:  -307.09401947737723
    Total Energy =                       -307.0940194773772873
  Basis Set: CC-PVTZ
  Basis Set:
  Charge       = 0
  Multiplicity = 1
  Basis Set: CC-PVTZ
  Basis Set:

    Orbital Energies (a.u.)
    -----------------------

    Doubly Occupied:

       1A    -20.547650     2A    -20.545198     3A    -11.267594
       4A    -11.266924     5A    -11.263511     6A    -11.261533
       7A     -1.389839     8A     -1.372453     9A     -1.031115
      10A     -0.938607    11A     -0.895371    12A     -0.822074
      13A     -0.687747    14A     -0.678612    15A     -0.659543
      16A     -0.640387    17A     -0.625717    18A     -0.603305
      19A     -0.558579    20A     -0.528459    21A     -0.510250
      22A     -0.478211    23A     -0.472454    24A     -0.419340
      25A     -0.410201

  @DF-RHF Final Energy:  -307.09402089800278

   => Energetics <=

    Nuclear Repulsion Energy =            258.7135319338829049
    One-Electron Energy =                -931.8657597505441572
    Two-Electron Energy =                 366.0582069186588114
    DFT Exchange-Correlation Energy =       0.0000000000000000
    Empirical Dispersion Energy =           0.0000000000000000
    PCM Polarization Energy =               0.0000000000000000
    EFP Energy =                            0.0000000000000000
    Total Energy =                       -307.0940208980024408
    Molecular point group: c1
  Basis Set: CC-PVTZ
  Basis Set:

  -Total Gradient:
     Atom            X                  Y                   Z
    ------   -----------------  -----------------  -----------------
       1        0.000039178210     0.000004023637     0.000002919317
       2        0.000536184665     0.000112533577    -0.001158788922
       3       -0.001024267246     0.000030080939     0.001213726758
       4       -0.000031728934    -0.000001543206    -0.000017807980
       5        0.000038716058    -0.000004066040     0.000038912466
       6        0.000659802516    -0.000855239873     0.000783613027
       7       -0.000273273929     0.000849484298    -0.000874863269
       8        0.000009712652    -0.000023123522    -0.000004890212
       9        0.000054046029     0.000018957327    -0.000008769216
      10       -0.000006242610    -0.000095006254     0.000028993104
      11        0.000000039699    -0.000044512051     0.000034085886
      12        0.000009657601    -0.000011328870    -0.000013664500
      13       -0.000011832664     0.000020957429    -0.000036455794
      14        0.000007500134    -0.000003661727     0.000002386370
      15        0.000003826389     0.000000315476     0.000003361713
      16       -0.000011318564     0.000002128860     0.000007241252

  **** Optimization is complete! (in 4 steps) ****
    Final optimized geometry and variables:
    Molecular point group: c1

    Geometry (in Angstrom), charge = 0, multiplicity = 1:

    H           -3.343184908666     0.385898652281    -0.082217837009
    C           -2.632541884681    -0.044225671527    -0.784568330226
    O           -1.431681605271    -0.372690616270    -0.167860417272
    H           -3.054103432102    -0.954285967937    -1.186316699967
    H           -2.485624218759     0.660477167977    -1.600164583457
    C           -0.729154584468     0.688507645013     0.405159274863
    C            0.715055907309     0.685987542097    -0.037551815337
    H           -1.168269675160     1.640250433228     0.116930048704
    H           -0.775033445280     0.613679554871     1.486836182473
    O            1.378255525042    -0.395894971725     0.527654066410
    H            0.758575169902     0.637261729498    -1.124140500056
    H            1.182606730937     1.620403154063     0.275555756643
    C            2.694854597440    -0.543092587917     0.112931424307
    H            2.758539997019    -0.705532319256    -0.960700780989
    H            3.293479864614     0.330598912074     0.364469026934
    H            3.106848319047    -1.403521107948     0.619589612083

  Mulliken Charges: (a.u.)
   Center  Symbol    Alpha    Beta     Spin     Total
       1     H     0.47025  0.47025  0.00000  0.05950
       2     C     3.02975  3.02975  0.00000 -0.05950
       3     O     4.17453  4.17453  0.00000 -0.34906
       4     H     0.44857  0.44857  0.00000  0.10287
       5     H     0.47399  0.47399  0.00000  0.05203
       6     C     2.96661  2.96661  0.00000  0.06677
       7     C     2.95826  2.95826  0.00000  0.08349
       8     H     0.47527  0.47527  0.00000  0.04947
       9     H     0.45897  0.45897  0.00000  0.08206
      10     O     4.16872  4.16872  0.00000 -0.33743
      11     H     0.47496  0.47496  0.00000  0.05009
      12     H     0.47765  0.47765  0.00000  0.04469
      13     C     3.03174  3.03174  0.00000 -0.06349
      14     H     0.47091  0.47091  0.00000  0.05818
      15     H     0.47369  0.47369  0.00000  0.05263
      16     H     0.44615  0.44615  0.00000  0.10771

   Total alpha = 25.00000, Total beta = 25.00000, Total charge = -0.00000
