  ==> Input File <==

--------------------------------------------------------------------------
set {
	reference rhf
	basis 6-31G*
}

set_num_threads( 1 )
memory 2 gb

molecule MOL {
0 1

H	 -2.798360	 -0.862255	 -0.071053
N	 -1.863561	 -0.715187	 0.256814
C	 -1.344686	 0.554728	 -0.219830
H	 -1.300452	 -1.461917	 -0.101532
C	 0.081427	 0.741154	 0.254071
H	 -1.362155	 0.656231	 -1.305829
H	 -1.952773	 1.354456	 0.191809
O	 0.874168	 -0.245412	 -0.342030
H	 0.444037	 1.730782	 -0.023037
H	 0.121165	 0.653424	 1.337565
C	 2.195526	 0.133957	 -0.560344
H	 2.704657	 -0.701233	 -1.021800
H	 2.258100	 0.994033	 -1.224674
H	 2.697458	 0.381406	 0.372738

	symmetry c1
}
set optking {
	frozen_dihedral = ("
		8 5 3 6,
		6 3 2 4,
		5 8 11 13
	")
}

ee = energy('scf')
oeprop('DIPOLE', 'QUADRUPOLE', 'MULLIKEN_CHARGES')
f=open( 'psi4out.xyz', 'w' )
f.write( "14  " )
f.write( str(ee) + "\n" )
f.write( MOL.save_string_xyz() )
f.close()
--------------------------------------------------------------------------

    Molecular point group: c1

    Geometry (in Angstrom), charge = 0, multiplicity = 1:

       Center              X                  Y                   Z               Mass
    ------------   -----------------  -----------------  -----------------  -----------------
           H         -2.796919878009    -0.941973131169     0.062798872206     1.007825032070
           N         -1.862120878009    -0.794905131169     0.390665872206    14.003074004780
           C         -1.343245878009     0.475009868831    -0.085978127794    12.000000000000
           H         -1.299011878009    -1.541635131169     0.032319872206     1.007825032070
           C          0.082867121991     0.661435868831     0.387922872206    12.000000000000
           H         -1.360714878009     0.576512868831    -1.171977127794     1.007825032070
           H         -1.951332878009     1.274737868831     0.325660872206     1.007825032070
           O          0.875608121991    -0.325130131169    -0.208178127794    15.994914619560
           H          0.445477121991     1.651063868831     0.110814872206     1.007825032070
           H          0.122605121991     0.573705868831     1.471416872206     1.007825032070
           C          2.196966121991     0.054238868831    -0.426492127794    12.000000000000
           H          2.706097121991    -0.780951131169    -0.887948127794     1.007825032070
           H          2.259540121991     0.914314868831    -1.090822127794     1.007825032070
           H          2.698898121991     0.301687868831     0.506589872206     1.007825032070

  Charge       = 0
  Multiplicity = 1
  Basis Set: 6-31G*
  Basis Set:

    Orbital Energies (a.u.)
    -----------------------

    Doubly Occupied:

       1A    -20.556214     2A    -15.528156     3A    -11.267435
       4A    -11.265184     5A    -11.240062     6A     -1.381258
       7A     -1.173356     8A     -0.998217     9A     -0.909225
      10A     -0.814646    11A     -0.681908    12A     -0.676356
      13A     -0.643687    14A     -0.611274    15A     -0.604838
      16A     -0.540478    17A     -0.531396    18A     -0.497260
      19A     -0.474419    20A     -0.414678    21A     -0.379470

  @DF-RHF Final Energy:  -248.12275271665087

   => Energetics <=

    Nuclear Repulsion Energy =            194.5913835574167763
    One-Electron Energy =                -723.0492068423000092
    Two-Electron Energy =                 280.3350705682316857
    DFT Exchange-Correlation Energy =       0.0000000000000000
    Empirical Dispersion Energy =           0.0000000000000000
    PCM Polarization Energy =               0.0000000000000000
    EFP Energy =                            0.0000000000000000
    Total Energy =                       -248.1227527166515756

  Mulliken Charges: (a.u.)
   Center  Symbol    Alpha    Beta     Spin     Total
       1     H     0.33286  0.33286  0.00000  0.33428
       2     N     3.92510  3.92510  0.00000 -0.85019
       3     C     3.06653  3.06653  0.00000 -0.13305
       4     H     0.32319  0.32319  0.00000  0.35362
       5     C     2.99114  2.99114  0.00000  0.01771
       6     H     0.42925  0.42925  0.00000  0.14150
       7     H     0.42182  0.42182  0.00000  0.15636
       8     O     4.30971  4.30971  0.00000 -0.61941
       9     H     0.43162  0.43162  0.00000  0.13676
      10     H     0.41874  0.41874  0.00000  0.16253
      11     C     3.07959  3.07959  0.00000 -0.15918
      12     H     0.41276  0.41276  0.00000  0.17449
      13     H     0.42942  0.42942  0.00000  0.14117
      14     H     0.42829  0.42829  0.00000  0.14343

   Total alpha = 21.00000, Total beta = 21.00000, Total charge = -0.00000
