  ==> Input File <==

--------------------------------------------------------------------------
set {
	reference rhf
	basis 6-31G*
}

set_num_threads( 4 )
memory 2 gb

molecule MOL {
0 1

H	 2.690633	 -0.239565	 0.805430
N	 1.711514	 -0.033714	 0.823084
C	 0.950727	 -1.216132	 1.183364
C	 1.282871	 0.504213	 -0.455044
H	 1.290712	 -1.572360	 2.149946
H	 1.073644	 -2.027772	 0.462411
C	 -0.524739	 -0.854129	 1.263270
H	 1.863389	 1.393823	 -0.674961
H	 1.425906	 -0.203231	 -1.275230
C	 -0.192800	 0.865150	 -0.374123
H	 -0.675598	 -0.151366	 2.088173
H	 -1.106129	 -1.745034	 1.477332
N	 -0.975995	 -0.298722	 0.000000
H	 -0.534474	 1.215852	 -1.342530
H	 -0.321420	 1.683099	 0.341081
C	 -2.393863	 -0.024976	 0.000000
H	 -2.854032	 -0.467193	 -0.876721
H	 -2.854032	 -0.467193	 0.876721
H	 -2.623281	 1.044943	 0.000000

	symmetry c1
}
set optking {
	frozen_dihedral = ("
		7 13 16 19
	")
}

ee = optimize('scf')
oeprop('DIPOLE', 'QUADRUPOLE', 'MULLIKEN_CHARGES')
f=open( 'psi4out.xyz', 'w' )
f.write( "19  " )
f.write( str(ee) + "\n" )
f.write( MOL.save_string_xyz() )
f.close()
--------------------------------------------------------------------------

    Molecular point group: c1
  Charge       = 0
  Multiplicity = 1
  Basis Set: 6-31G*
  Basis Set:
  @DF-RHF Final Energy:  -305.19344379851100
    Total Energy =                       -305.1934437985108275
    Molecular point group: c1
  Basis Set: 6-31G*
  Basis Set:
  Basis Set: 6-31G*
  Basis Set:
  @DF-RHF Final Energy:  -305.19406605041524
    Total Energy =                       -305.1940660504153016
  Basis Set: 6-31G*
  Basis Set:
  Basis Set: 6-31G*
  Basis Set:
  @DF-RHF Final Energy:  -305.19421523987643
    Total Energy =                       -305.1942152398761436
  Basis Set: 6-31G*
  Basis Set:
  Basis Set: 6-31G*
  Basis Set:
  @DF-RHF Final Energy:  -305.19422419836297
    Total Energy =                       -305.1942241983627468
  Basis Set: 6-31G*
  Basis Set:
  Charge       = 0
  Multiplicity = 1
  Basis Set: 6-31G*
  Basis Set:

    Orbital Energies (a.u.)
    -----------------------

    Doubly Occupied:

       1A    -15.536678     2A    -15.535990     3A    -11.237767
       4A    -11.237726     5A    -11.237003     6A    -11.236900
       7A    -11.234837     8A     -1.244069     9A     -1.182808
      10A     -1.022661    11A     -0.963942    12A     -0.860472
      13A     -0.857680    14A     -0.755469    15A     -0.690158
      16A     -0.631000    17A     -0.624204    18A     -0.604515
      19A     -0.602898    20A     -0.580329    21A     -0.544555
      22A     -0.532636    23A     -0.512719    24A     -0.488338
      25A     -0.467089    26A     -0.456290    27A     -0.362721
      28A     -0.336120

  @DF-RHF Final Energy:  -305.19422483871136

   => Energetics <=

    Nuclear Repulsion Energy =            339.2720519432224933
    One-Electron Energy =               -1085.7774060755496066
    Two-Electron Energy =                 441.3111292936160339
    DFT Exchange-Correlation Energy =       0.0000000000000000
    Empirical Dispersion Energy =           0.0000000000000000
    PCM Polarization Energy =               0.0000000000000000
    EFP Energy =                            0.0000000000000000
    Total Energy =                       -305.1942248387110226
    Molecular point group: c1
  Basis Set: 6-31G*
  Basis Set:

  -Total Gradient:
     Atom            X                  Y                   Z
    ------   -----------------  -----------------  -----------------
       1        0.000013871396     0.000001150937     0.000007934510
       2        0.000005658517    -0.000004259976     0.000003720150
       3       -0.000000080501    -0.000005170315     0.000019871089
       4       -0.000003932453     0.000014961924    -0.000006802955
       5        0.000008725777    -0.000000781804    -0.000002915513
       6       -0.000007373447    -0.000002494332     0.000001247053
       7       -0.000409209705    -0.002548560474    -0.001044761921
       8        0.000001281858    -0.000003710488     0.000000865571
       9       -0.000004940224     0.000002532337    -0.000006136264
      10       -0.000028975093     0.000004820047    -0.000025821522
      11        0.000004408011    -0.000003823913    -0.000000377039
      12        0.000001730562    -0.000002397363     0.000012512070
      13        0.000647745377     0.003615565225     0.000449754970
      14        0.000001296729     0.000014528054    -0.000006035581
      15        0.000000795368    -0.000003202552     0.000000481152
      16       -0.000446729692    -0.001186231564     0.004219637435
      17        0.000005250396     0.000008082085     0.000011224255
      18        0.000013963785    -0.000007743543    -0.000011900956
      19        0.000196513342     0.000106735716    -0.003622496505

  **** Optimization is complete! (in 5 steps) ****
    Final optimized geometry and variables:
    Molecular point group: c1

    Geometry (in Angstrom), charge = 0, multiplicity = 1:

    H            2.724740946803    -0.104066711830     0.429773526025
    N            1.746988646600     0.107164535856     0.457000345830
    C            0.984266520781    -1.070863069720     0.827758564445
    C            1.308545987502     0.643332222716    -0.818560299913
    H            1.341214017618    -1.434306727893     1.785624088322
    H            1.086906243012    -1.879517890651     0.100124920321
    C           -0.487103571066    -0.699986863511     0.938710891016
    H            1.896729134395     1.524791291295    -1.051071752094
    H            1.433248587925    -0.070876552818    -1.635968281837
    C           -0.161659610524     1.021423209993    -0.720972040026
    H           -0.616931090923    -0.015693048568     1.782826346550
    H           -1.067292800901    -1.593044167423     1.143661025194
    N           -0.949677682258    -0.121916757717    -0.308295824839
    H           -0.514056589202     1.353162956790    -1.692480720699
    H           -0.270140436408     1.858708618017    -0.024826442657
    C           -2.381532537788     0.110682642376    -0.371092966012
    H           -2.794109705463    -0.292447437540    -1.292373194071
    H           -2.890555156242    -0.368037646382     0.456810322688
    H           -2.626784710351     1.171669635738    -0.351813523336

  Mulliken Charges: (a.u.)
   Center  Symbol    Alpha    Beta     Spin     Total
       1     H     0.32953  0.32953  0.00000  0.34094
       2     N     3.85436  3.85436  0.00000 -0.70873
       3     C     3.06386  3.06386  0.00000 -0.12772
       4     C     3.06355  3.06355  0.00000 -0.12711
       5     H     0.41805  0.41805  0.00000  0.16390
       6     H     0.42819  0.42819  0.00000  0.14363
       7     C     3.05153  3.05153  0.00000 -0.10306
       8     H     0.41799  0.41799  0.00000  0.16402
       9     H     0.42817  0.42817  0.00000  0.14365
      10     C     3.05224  3.05224  0.00000 -0.10449
      11     H     0.42901  0.42901  0.00000  0.14199
      12     H     0.41887  0.41887  0.00000  0.16226
      13     N     3.79516  3.79516  0.00000 -0.59031
      14     H     0.41865  0.41865  0.00000  0.16270
      15     H     0.42850  0.42850  0.00000  0.14301
      16     C     3.13814  3.13814  0.00000 -0.27629
      17     H     0.41739  0.41739  0.00000  0.16522
      18     H     0.42011  0.42011  0.00000  0.15977
      19     H     0.42669  0.42669  0.00000  0.14661

   Total alpha = 28.00000, Total beta = 28.00000, Total charge =  0.00000
