                              Psi4 1.0.54 Driver

  ==> Input File <==

--------------------------------------------------------------------------
set {
	reference rhf
	basis cc-pvtz
}

set_num_threads( 4 )
memory 2 gb

molecule MOL {
0 1

H	 -1.752232	 -2.214755	 -0.011938
C	 -1.343852	 -1.221619	 -0.018179
N	 -0.058800	 -1.097635	 -0.261688
C	 -2.148159	 -0.124236	 0.219734
C	 0.449026	 0.119242	 -0.273393
H	 -3.196988	 -0.237571	 0.417076
N	 -1.655094	 1.094230	 0.209506
C	 -0.370318	 1.215445	 -0.035100
C	 1.924033	 0.265863	 -0.538106
H	 0.033214	 2.210441	 -0.046812
C	 2.776155	 -0.631346	 0.360980
H	 2.107597	 0.013738	 -1.575651
H	 2.212150	 1.301712	 -0.403125
H	 3.826552	 -0.523533	 0.118129
H	 2.501913	 -1.670190	 0.232245
H	 2.644808	 -0.374166	 1.406041

	symmetry c1
}
set optking {
	frozen_dihedral = ("
		12 9 5 3
	")
}

ee,wfn = optimize('scf', return_wfn=True)
oeprop( wfn, 'DIPOLE', 'QUADRUPOLE', 'MULLIKEN_CHARGES')
f=open( 'psi4out.xyz', 'w' )
f.write( "16  " )
f.write( str(ee) + "\n" )
f.write( MOL.save_string_xyz() )
f.close()
--------------------------------------------------------------------------

    Molecular point group: c1
  Charge       = 0
  Multiplicity = 1
  Basis Set: CC-PVTZ
  Basis Set:
  @DF-RHF Final Energy:  -340.87191677018257
    Total Energy =                       -340.8719167701824517
    Molecular point group: c1
  Basis Set: CC-PVTZ
  Basis Set:
  Basis Set: CC-PVTZ
  Basis Set:
  @DF-RHF Final Energy:  -340.87199612169968
    Total Energy =                       -340.8719961216994534
  Basis Set: CC-PVTZ
  Basis Set:
  Basis Set: CC-PVTZ
  Basis Set:
  @DF-RHF Final Energy:  -340.87202095879769
    Total Energy =                       -340.8720209587975774
  Basis Set: CC-PVTZ
  Basis Set:
  Basis Set: CC-PVTZ
  Basis Set:
  @DF-RHF Final Energy:  -340.87202695705923
    Total Energy =                       -340.8720269570590062
  Basis Set: CC-PVTZ
  Basis Set:
  Charge       = 0
  Multiplicity = 1
  Basis Set: CC-PVTZ
  Basis Set:

    Orbital Energies (a.u.)
    -----------------------

    Doubly Occupied:

       1A    -15.580688     2A    -15.575962     3A    -11.278714
       4A    -11.272918     5A    -11.268235     6A    -11.268115
       7A    -11.232129     8A    -11.213802     9A     -1.316307
      10A     -1.224329    11A     -1.085615    12A     -1.014994
      13A     -0.908988    14A     -0.893494    15A     -0.828009
      16A     -0.720011    17A     -0.711733    18A     -0.659694
      19A     -0.619767    20A     -0.603462    21A     -0.578392
      22A     -0.562297    23A     -0.523968    24A     -0.505558
      25A     -0.500775    26A     -0.489316    27A     -0.433426
      28A     -0.397553    29A     -0.347022

  @DF-RHF Final Energy:  -340.87202715704416

   => Energetics <=

    Nuclear Repulsion Energy =            350.5013025602215748
    One-Electron Energy =               -1155.5161112740547651
    Two-Electron Energy =                 464.1427815567889752
    DFT Exchange-Correlation Energy =       0.0000000000000000
    Empirical Dispersion Energy =           0.0000000000000000
    PCM Polarization Energy =               0.0000000000000000
    EFP Energy =                            0.0000000000000000
    Total Energy =                       -340.8720271570442151
    Molecular point group: c1
  Basis Set: CC-PVTZ
  Basis Set:

  -Total Gradient:
     Atom            X                  Y                   Z
    ------   -----------------  -----------------  -----------------
       1       -0.000012831167     0.000003467644    -0.000012743453
       2        0.000082638712    -0.000033419853     0.000005205973
       3        0.000100782699    -0.000104235355     0.000806221999
       4       -0.000015794029     0.000090132023     0.000044773534
       5       -0.000228332427     0.000383084739    -0.001158242742
       6       -0.000007867717    -0.000006171414    -0.000021737394
       7       -0.000089928486    -0.000065968265     0.000026952056
       8        0.000083523106    -0.000020441539    -0.000077975826
       9        0.000204294179    -0.001143036262     0.000604292058
      10       -0.000002093271    -0.000007302332     0.000006535993
      11        0.000018384124     0.000003712354     0.000010463302
      12       -0.000127476104     0.000903319447    -0.000237262092
      13        0.000007582868    -0.000004511641     0.000008805715
      14       -0.000025177979    -0.000013161069     0.000012963975
      15        0.000004112774     0.000026376066     0.000003127069
      16        0.000008182718    -0.000011844545    -0.000021380166

  **** Optimization is complete! (in 5 steps) ****
    Final optimized geometry and variables:
    Molecular point group: c1

    Geometry (in Angstrom), charge = 0, multiplicity = 1:

    H           -1.772560380983    -2.151384900420     0.019260231663
    C           -1.357143532656    -1.161216169686     0.014634731687
    N           -0.068422899548    -1.047386217423    -0.214745146582
    C           -2.155488611459    -0.058036727753     0.242315835129
    C            0.449448018366     0.164720967699    -0.224063205769
    H           -3.207177548503    -0.162838210720     0.428465837670
    N           -1.651839956325     1.156297714614     0.239686313345
    C           -0.363646624154     1.266888678971     0.010046639124
    C            1.924681685888     0.310842889742    -0.498025788727
    H            0.048889364227     2.258081196240     0.009992932033
    C            2.800666345324    -0.566816327738     0.393188929251
    H            2.102337277186     0.064703154778    -1.540156406814
    H            2.202253519575     1.351416739108    -0.377488370538
    H            3.845910887496    -0.432935857762     0.141627119735
    H            2.549831700953    -1.610900935599     0.270332478805
    H            2.671227041776    -0.310059234971     1.438491611106

  Mulliken Charges: (a.u.)
   Center  Symbol    Alpha    Beta     Spin     Total
       1     H     0.41422  0.41422  0.00000  0.17156
       2     C     3.04249  3.04249  0.00000 -0.08499
       3     N     3.59476  3.59476  0.00000 -0.18953
       4     C     3.04790  3.04790  0.00000 -0.09579
       5     C     2.94101  2.94101  0.00000  0.11797
       6     H     0.41367  0.41367  0.00000  0.17266
       7     N     3.58659  3.58659  0.00000 -0.17318
       8     C     3.07845  3.07845  0.00000 -0.15690
       9     C     3.07514  3.07514  0.00000 -0.15028
      10     H     0.41629  0.41629  0.00000  0.16742
      11     C     3.14477  3.14477  0.00000 -0.28954
      12     H     0.44739  0.44739  0.00000  0.10522
      13     H     0.44962  0.44962  0.00000  0.10076
      14     H     0.45009  0.45009  0.00000  0.09982
      15     H     0.44335  0.44335  0.00000  0.11330
      16     H     0.45426  0.45426  0.00000  0.09149

   Total alpha = 29.00000, Total beta = 29.00000, Total charge =  0.00000

*** Psi4 exiting successfully. Buy a developer a beer!
