                              Psi4 1.0.54 Driver

  ==> Input File <==

--------------------------------------------------------------------------
set {
	reference rhf
	basis cc-pvtz
}

set_num_threads( 4 )
memory 2 gb

molecule MOL {
0 1

H	 -2.225529	 -1.878485	 -2.210973
O	 -1.927756	 -1.725919	 -1.326793
C	 -0.849944	 -0.948072	 -1.373803
C	 -0.310616	 -0.658853	 0.000791
O	 -0.400966	 -0.556425	 -2.395078
C	 0.926581	 0.227233	 0.000178
H	 -0.110930	 -1.615320	 0.473046
H	 -1.117022	 -0.210527	 0.572132
C	 2.220156	 -0.582071	 -0.000088
H	 0.899945	 0.878221	 -0.866390
H	 0.900542	 0.878581	 0.866486
C	 3.466689	 0.296012	 -0.000457
H	 2.239073	 -1.234095	 -0.869382
H	 2.239505	 -1.233985	 0.869270
H	 3.493549	 0.935857	 -0.875887
H	 4.368821	 -0.304526	 -0.001199
H	 3.494559	 0.935166	 0.875458

	symmetry c1
}
set optking {
	frozen_dihedral = ("
		7 4 6 10
	")
}

ee,wfn = optimize('scf', return_wfn=True)
oeprop( wfn, 'DIPOLE', 'QUADRUPOLE', 'MULLIKEN_CHARGES')
f=open( 'psi4out.xyz', 'w' )
f.write( "17  " )
f.write( str(ee) + "\n" )
f.write( MOL.save_string_xyz() )
f.close()
--------------------------------------------------------------------------

    Molecular point group: c1
  Charge       = 0
  Multiplicity = 1
  Basis Set: CC-PVTZ
  Basis Set:
  @DF-RHF Final Energy:  -345.04641670420438
    Total Energy =                       -345.0464167042044323
    Molecular point group: c1
  Basis Set: CC-PVTZ
  Basis Set:
  Basis Set: CC-PVTZ
  Basis Set:
  @DF-RHF Final Energy:  -345.04670308403553
    Total Energy =                       -345.0467030840354710
  Basis Set: CC-PVTZ
  Basis Set:
  Basis Set: CC-PVTZ
  Basis Set:
  @DF-RHF Final Energy:  -345.04560638160649
    Total Energy =                       -345.0456063816063761
  Basis Set: CC-PVTZ
  Basis Set:
  Basis Set: CC-PVTZ
  Basis Set:
  @DF-RHF Final Energy:  -345.04677946644995
    Total Energy =                       -345.0467794664497205
  Basis Set: CC-PVTZ
  Basis Set:
  Basis Set: CC-PVTZ
  Basis Set:
  @DF-RHF Final Energy:  -345.04678597474089
    Total Energy =                       -345.0467859747409420
  Basis Set: CC-PVTZ
  Basis Set:
  Basis Set: CC-PVTZ
  Basis Set:
  @DF-RHF Final Energy:  -345.04678700247609
    Total Energy =                       -345.0467870024758099
  Basis Set: CC-PVTZ
  Basis Set:
  Charge       = 0
  Multiplicity = 1
  Basis Set: CC-PVTZ
  Basis Set:

    Orbital Energies (a.u.)
    -----------------------

    Doubly Occupied:

       1A    -20.604760     2A    -20.541638     3A    -11.374479
       4A    -11.239627     5A    -11.220247     6A    -11.216524
       7A    -11.207546     8A     -1.478592     9A     -1.369985
      10A     -1.090501    11A     -1.017279    12A     -0.913714
      13A     -0.826392    14A     -0.787314    15A     -0.705841
      16A     -0.696616    17A     -0.659129    18A     -0.628984
      19A     -0.588094    20A     -0.584326    21A     -0.582291
      22A     -0.527834    23A     -0.521666    24A     -0.487963
      25A     -0.480173    26A     -0.470995    27A     -0.466026
      28A     -0.447745

  @DF-RHF Final Energy:  -345.04678717080066

   => Energetics <=

    Nuclear Repulsion Energy =            309.4953416952989187
    One-Electron Energy =               -1083.6116986796794208
    Two-Electron Energy =                 429.0695698135798466
    DFT Exchange-Correlation Energy =       0.0000000000000000
    Empirical Dispersion Energy =           0.0000000000000000
    PCM Polarization Energy =               0.0000000000000000
    EFP Energy =                            0.0000000000000000
    Total Energy =                       -345.0467871708005987
    Molecular point group: c1
  Basis Set: CC-PVTZ
  Basis Set:

  -Total Gradient:
     Atom            X                  Y                   Z
    ------   -----------------  -----------------  -----------------
       1       -0.000017744225    -0.000008640787    -0.000006068242
       2        0.000017229080     0.000009500798    -0.000022407207
       3        0.000032264659     0.000004550588    -0.000031561309
       4       -0.000819149853     0.001092173554     0.003339056990
       5       -0.000042869243    -0.000010445163     0.000023864255
       6       -0.001764985891     0.002566884134     0.001352651224
       7        0.000972411905    -0.001300798956    -0.002935717158
       8       -0.000001179566     0.000016431786     0.000001148351
       9       -0.000002393280    -0.000013996448    -0.000013749638
      10        0.001621075744    -0.002354820012    -0.001701168634
      11       -0.000000638435    -0.000000632018    -0.000008423341
      12        0.000000872384     0.000004105316     0.000010204670
      13        0.000005149859    -0.000002913424    -0.000003425751
      14       -0.000001256265     0.000001845822    -0.000006706604
      15       -0.000001929144    -0.000004803485     0.000002227232
      16        0.000002709689     0.000000327051     0.000004348920
      17        0.000000432581     0.000001231242    -0.000004273758

  **** Optimization is complete! (in 7 steps) ****
    Final optimized geometry and variables:
    Molecular point group: c1

    Geometry (in Angstrom), charge = 0, multiplicity = 1:

    H           -2.610888328805    -1.268862741158    -1.516873705773
    O           -2.350832380326    -1.096735551857    -0.624418579463
    C           -1.249350497243    -0.351856894902    -0.643128090966
    C           -0.770585904117    -0.037741619638     0.751873676076
    O           -0.743391241084    -0.005770410627    -1.654438078749
    C            0.499181242825     0.812125905708     0.792482668700
    H           -0.619683156929    -0.999468015177     1.231163976982
    H           -1.597561000996     0.436754576929     1.266319793172
    C            1.778405125315    -0.023786378515     0.795346079714
    H            0.518101278965     1.458567289719    -0.075199887459
    H            0.478895456080     1.441518416720     1.675222688717
    C            3.041325464162     0.829712932058     0.791290930867
    H            1.780574647560    -0.673672819980    -0.074218238489
    H            1.783295406305    -0.671879903443     1.667990846122
    H            3.083729262910     1.457955226897    -0.091645232279
    H            3.931569310809     0.211712184244     0.800989213563
    H            3.079206130682     1.477954813248     1.660773945572

  Mulliken Charges: (a.u.)
   Center  Symbol    Alpha    Beta     Spin     Total
       1     H     0.38245  0.38245  0.00000  0.23510
       2     O     4.15960  4.15960  0.00000 -0.31920
       3     C     2.80184  2.80184  0.00000  0.39632
       4     C     3.11915  3.11915  0.00000 -0.23830
       5     O     4.19291  4.19291  0.00000 -0.38582
       6     C     3.09351  3.09351  0.00000 -0.18703
       7     H     0.43801  0.43801  0.00000  0.12397
       8     H     0.42847  0.42847  0.00000  0.14307
       9     C     3.08295  3.08295  0.00000 -0.16590
      10     H     0.44217  0.44217  0.00000  0.11566
      11     H     0.44562  0.44562  0.00000  0.10876
      12     C     3.15123  3.15123  0.00000 -0.30246
      13     H     0.44940  0.44940  0.00000  0.10120
      14     H     0.45657  0.45657  0.00000  0.08686
      15     H     0.45153  0.45153  0.00000  0.09694
      16     H     0.44820  0.44820  0.00000  0.10361
      17     H     0.45639  0.45639  0.00000  0.08723

   Total alpha = 28.00000, Total beta = 28.00000, Total charge = -0.00000

*** Psi4 exiting successfully. Buy a developer a beer!
