  ==> Input File <==

--------------------------------------------------------------------------
set {
	reference rhf
	basis 6-31G*
}

set_num_threads( 4 )
memory 2 gb

molecule MOL {
0 1

H	 -3.892951	 0.981613	 -0.358725
C	 -3.196921	 0.361773	 0.172313
C	 -2.076860	 -0.007332	 -0.404944
H	 -3.439953	 0.057760	 1.173024
O	 -1.180634	 -0.819263	 0.215062
H	 -1.811520	 0.292194	 -1.403480
C	 0.051604	 -1.018856	 -0.387932
C	 1.043764	 0.054862	 -0.001873
H	 -0.017620	 -1.041351	 -1.469781
H	 0.437898	 -1.966374	 -0.042284
F	 0.743378	 1.180297	 -0.633514
F	 1.016761	 0.303900	 1.297004
F	 2.278189	 -0.273533	 -0.322406

	symmetry c1
}
set optking {
	frozen_dihedral = ("
		11 8 7 9
	")
}

ee = optimize('scf')
oeprop('DIPOLE', 'QUADRUPOLE', 'MULLIKEN_CHARGES')
f=open( 'psi4out.xyz', 'w' )
f.write( "13  " )
f.write( str(ee) + "\n" )
f.write( MOL.save_string_xyz() )
f.close()
--------------------------------------------------------------------------

    Molecular point group: c1
  Charge       = 0
  Multiplicity = 1
  Basis Set: 6-31G*
  Basis Set:
  @DF-RHF Final Energy:  -527.53463344677505
    Total Energy =                       -527.5346334467751603
    Molecular point group: c1
  Basis Set: 6-31G*
  Basis Set:
  Basis Set: 6-31G*
  Basis Set:
  @DF-RHF Final Energy:  -527.53521106332687
    Total Energy =                       -527.5352110633266420
  Basis Set: 6-31G*
  Basis Set:
  Basis Set: 6-31G*
  Basis Set:
  @DF-RHF Final Energy:  -527.53534653709835
    Total Energy =                       -527.5353465370981212
  Basis Set: 6-31G*
  Basis Set:
  Basis Set: 6-31G*
  Basis Set:
  @DF-RHF Final Energy:  -527.53535868985659
    Total Energy =                       -527.5353586898564799
  Basis Set: 6-31G*
  Basis Set:
  Basis Set: 6-31G*
  Basis Set:
  @DF-RHF Final Energy:  -527.53536133357966
    Total Energy =                       -527.5353613335796581
  Basis Set: 6-31G*
  Basis Set:
  Basis Set: 6-31G*
  Basis Set:
  @DF-RHF Final Energy:  -527.53536413636289
    Total Energy =                       -527.5353641363630004
  Basis Set: 6-31G*
  Basis Set:
  Basis Set: 6-31G*
  Basis Set:
  @DF-RHF Final Energy:  -527.53536572918892
    Total Energy =                       -527.5353657291889249
  Basis Set: 6-31G*
  Basis Set:
  Charge       = 0
  Multiplicity = 1
  Basis Set: 6-31G*
  Basis Set:

    Orbital Energies (a.u.)
    -----------------------

    Doubly Occupied:

       1A    -26.343338     2A    -26.343257     3A    -26.341471
       4A    -20.607788     5A    -11.503111     6A    -11.318871
       7A    -11.299191     8A    -11.216365     9A     -1.741535
      10A     -1.639166    11A     -1.638418    12A     -1.437709
      13A     -1.083460    14A     -1.016529    15A     -0.925177
      16A     -0.836385    17A     -0.830123    18A     -0.821223
      19A     -0.792465    20A     -0.720049    21A     -0.711437
      22A     -0.695361    23A     -0.676017    24A     -0.660186
      25A     -0.654907    26A     -0.642879    27A     -0.635133
      28A     -0.584635    29A     -0.563420    30A     -0.523177
      31A     -0.513109    32A     -0.352162

  @DF-RHF Final Energy:  -527.53536616763040

   => Energetics <=

    Nuclear Repulsion Energy =            413.8788571261466132
    One-Electron Energy =               -1551.4923398005380477
    Two-Electron Energy =                 610.0781165067612619
    DFT Exchange-Correlation Energy =       0.0000000000000000
    Empirical Dispersion Energy =           0.0000000000000000
    PCM Polarization Energy =               0.0000000000000000
    EFP Energy =                            0.0000000000000000
    Total Energy =                       -527.5353661676301726
    Molecular point group: c1
  Basis Set: 6-31G*
  Basis Set:

  -Total Gradient:
     Atom            X                  Y                   Z
    ------   -----------------  -----------------  -----------------
       1       -0.000000175756     0.000001348089    -0.000000932760
       2       -0.000001119366    -0.000008831831    -0.000001148956
       3       -0.000036358277    -0.000030576219     0.000000418738
       4       -0.000000472401    -0.000000174657    -0.000002344594
       5        0.000031806882     0.000045966850     0.000007357344
       6        0.000008051231     0.000006260739     0.000000963065
       7        0.002941767987    -0.002357076125    -0.000659036282
       8       -0.002273975826     0.001192228731     0.002263656013
       9       -0.002059715254     0.001766520189     0.000092409878
      10       -0.000000969453    -0.000001125224    -0.000010876725
      11        0.001380025356    -0.000571662732    -0.001734994143
      12        0.000000796337    -0.000020513040     0.000038990354
      13        0.000010338542    -0.000022364769     0.000005538065

  **** Optimization is complete! (in 8 steps) ****
    Final optimized geometry and variables:
    Molecular point group: c1

    Geometry (in Angstrom), charge = 0, multiplicity = 1:

    H           -3.849643169937     0.996870152318    -0.363098420116
    C           -3.157547361432     0.371699694716     0.166906496461
    C           -2.060641673930    -0.039832743477    -0.425905016450
    H           -3.386557221951     0.095098066331     1.178886426032
    O           -1.175254450519    -0.867244409402     0.189305590491
    H           -1.808987251866     0.231851449998    -1.436199228500
    C            0.074173539082    -1.035021685879    -0.390475062580
    C            1.032123706014     0.066939848103     0.009690128372
    H            0.012386389963    -1.045842530533    -1.472963605988
    H            0.474895853551    -1.973844870064    -0.039860314650
    F            0.739163674759     1.211557670861    -0.588166112644
    F            1.040699238150     0.276008236235     1.307780000178
    F            2.260774947803    -0.265609693264    -0.361720521975

  Mulliken Charges: (a.u.)
   Center  Symbol    Alpha    Beta     Spin     Total
       1     H     0.40696  0.40696  0.00000  0.18608
       2     C     3.23410  3.23410  0.00000 -0.46821
       3     C     2.89796  2.89796  0.00000  0.20408
       4     H     0.40157  0.40157  0.00000  0.19686
       5     O     4.30111  4.30111  0.00000 -0.60223
       6     H     0.40671  0.40671  0.00000  0.18658
       7     C     3.06406  3.06406  0.00000 -0.12812
       8     C     2.45609  2.45609  0.00000  1.08783
       9     H     0.40523  0.40523  0.00000  0.18955
      10     H     0.38935  0.38935  0.00000  0.22129
      11     F     4.68058  4.68058  0.00000 -0.36115
      12     F     4.67283  4.67283  0.00000 -0.34566
      13     F     4.68345  4.68345  0.00000 -0.36690

   Total alpha = 32.00000, Total beta = 32.00000, Total charge = -0.00000
