  ==> Input File <==

--------------------------------------------------------------------------
set {
	reference rhf
	basis 6-31G*
}

set_num_threads( 4 )
memory 2 gb

molecule MOL {
0 1

H	 2.332609	 0.878551	 -1.051851
C	 2.357710	 0.000000	 -0.417167
C	 1.175432	 0.000000	 0.532082
H	 3.291263	 0.000000	 0.136880
H	 2.332609	 -0.878551	 -1.051851
O	 0.000000	 0.000000	 -0.221444
H	 1.206604	 0.877321	 1.177902
H	 1.206604	 -0.877321	 1.177902
C	 -1.175432	 0.000000	 0.532082
C	 -0.903766	 -0.697061	 1.850853
H	 -1.969256	 -0.511685	 -0.011766
H	 -1.509968	 1.022762	 0.704681
H	 -0.581793	 -1.717941	 1.679263
H	 -1.799488	 -0.715198	 2.463912
H	 -0.121861	 -0.181343	 2.396715

	symmetry c1
}
set optking {
	frozen_dihedral = ("
		11 9 6 3
	")
}

ee = optimize('scf')
oeprop('DIPOLE', 'QUADRUPOLE', 'MULLIKEN_CHARGES')
f=open( 'psi4out.xyz', 'w' )
f.write( "15  " )
f.write( str(ee) + "\n" )
f.write( MOL.save_string_xyz() )
f.close()
--------------------------------------------------------------------------

    Molecular point group: c1
  Charge       = 0
  Multiplicity = 1
  Basis Set: 6-31G*
  Basis Set:
  @DF-RHF Final Energy:  -232.12478855844935
    Total Energy =                       -232.1247885584493815
    Molecular point group: c1
  Basis Set: 6-31G*
  Basis Set:
  Basis Set: 6-31G*
  Basis Set:
  @DF-RHF Final Energy:  -232.12444386178402
    Total Energy =                       -232.1244438617840160
  Basis Set: 6-31G*
  Basis Set:
  Basis Set: 6-31G*
  Basis Set:
  @DF-RHF Final Energy:  -232.13380835543768
    Total Energy =                       -232.1338083554377363
  Basis Set: 6-31G*
  Basis Set:
  Basis Set: 6-31G*
  Basis Set:
  @DF-RHF Final Energy:  -232.13615077323865
    Total Energy =                       -232.1361507732386826
  Basis Set: 6-31G*
  Basis Set:
  Basis Set: 6-31G*
  Basis Set:
  @DF-RHF Final Energy:  -232.13655745802816
    Total Energy =                       -232.1365574580279940
  Basis Set: 6-31G*
  Basis Set:
  Basis Set: 6-31G*
  Basis Set:
  @DF-RHF Final Energy:  -232.13687291753746
    Total Energy =                       -232.1368729175376302
  Basis Set: 6-31G*
  Basis Set:
  Basis Set: 6-31G*
  Basis Set:
  @DF-RHF Final Energy:  -232.13691396437429
    Total Energy =                       -232.1369139643740596
  Basis Set: 6-31G*
  Basis Set:
  Charge       = 0
  Multiplicity = 1
  Basis Set: 6-31G*
  Basis Set:

    Orbital Energies (a.u.)
    -----------------------

    Doubly Occupied:

       1A    -20.546621     2A    -11.268719     3A    -11.266963
       4A    -11.216162     5A    -11.207011     6A     -1.369385
       7A     -1.039966     8A     -0.990460     9A     -0.870697
      10A     -0.798124    11A     -0.674537    12A     -0.660036
      13A     -0.621420    14A     -0.595654    15A     -0.547685
      16A     -0.535422    17A     -0.523481    18A     -0.502267
      19A     -0.496700    20A     -0.449309    21A     -0.403456

  @DF-RHF Final Energy:  -232.13691704304611

   => Energetics <=

    Nuclear Repulsion Energy =            193.2054091601013113
    One-Electron Energy =                -697.5165046053944025
    Two-Electron Energy =                 272.1741784022468664
    DFT Exchange-Correlation Energy =       0.0000000000000000
    Empirical Dispersion Energy =           0.0000000000000000
    PCM Polarization Energy =               0.0000000000000000
    EFP Energy =                            0.0000000000000000
    Total Energy =                       -232.1369170430461963
    Molecular point group: c1
  Basis Set: 6-31G*
  Basis Set:

  -Total Gradient:
     Atom            X                  Y                   Z
    ------   -----------------  -----------------  -----------------
       1       -0.000002514379    -0.000007380955     0.000009214089
       2        0.000060306301    -0.000020330790     0.000015971546
       3        0.000041855557    -0.004483040552     0.000063337812
       4        0.000030823483     0.000007426719    -0.000019423730
       5        0.000000491855     0.000004516463     0.000002192219
       6        0.000309009375     0.005711995740     0.000374736669
       7       -0.000024920169     0.000012954217     0.000039636124
       8       -0.000021140870     0.000022088191    -0.000020143199
       9       -0.001745076491     0.003169369517    -0.002817430649
      10        0.000001955216    -0.000000727109    -0.000021735626
      11        0.001329954768    -0.004427328644     0.002392616568
      12       -0.000034573974    -0.000002019033     0.000026341763
      13        0.000016233933    -0.000020816128     0.000005258128
      14        0.000022407718     0.000015655442    -0.000034210301
      15        0.000015187677     0.000017636921    -0.000016361410

  **** Optimization is complete! (in 8 steps) ****
    Final optimized geometry and variables:
    Molecular point group: c1

    Geometry (in Angstrom), charge = 0, multiplicity = 1:

    H            1.975755574607     1.100424653974    -1.600860828511
    C            2.081400300825     0.203520621140    -1.001274179905
    C            0.981900737186     0.130301013716     0.041221031975
    H            3.057575122199     0.216801587901    -0.525788102135
    H            2.030398099392    -0.654383807360    -1.662249778739
    O           -0.241842205720     0.105644194924    -0.633936674922
    H            1.040252734529     0.992388314429     0.705303458978
    H            1.107794782776    -0.759387735128     0.651191681298
    C           -1.437036374429     0.122141151259     0.103000509387
    C           -1.393706067649    -0.550968443468     1.472092454390
    H           -2.155258196457    -0.420495827212    -0.499366905635
    H           -1.780162413821     1.148600540888     0.212023372224
    H           -1.073512576765    -1.584535908974     1.392646208693
    H           -2.393959010848    -0.543425552316     1.894395547824
    H           -0.739708170971    -0.041420217666     2.170566692580

  Mulliken Charges: (a.u.)
   Center  Symbol    Alpha    Beta     Spin     Total
       1     H     0.41391  0.41391  0.00000  0.17217
       2     C     3.24244  3.24244  0.00000 -0.48488
       3     C     2.98780  2.98780  0.00000  0.02441
       4     H     0.42362  0.42362  0.00000  0.15276
       5     H     0.41377  0.41377  0.00000  0.17246
       6     O     4.31657  4.31657  0.00000 -0.63313
       7     H     0.43365  0.43365  0.00000  0.13269
       8     H     0.42953  0.42953  0.00000  0.14094
       9     C     2.97813  2.97813  0.00000  0.04375
      10     C     3.26690  3.26690  0.00000 -0.53380
      11     H     0.41850  0.41850  0.00000  0.16300
      12     H     0.42890  0.42890  0.00000  0.14221
      13     H     0.41410  0.41410  0.00000  0.17180
      14     H     0.41560  0.41560  0.00000  0.16879
      15     H     0.41659  0.41659  0.00000  0.16683

   Total alpha = 21.00000, Total beta = 21.00000, Total charge = -0.00000
