  ==> Input File <==

--------------------------------------------------------------------------
set {
	reference rhf
	basis 6-31G*
}

set_num_threads( 1 )
memory 2 gb

molecule MOL {
0 1

H	 3.113011	 4.276212	 -3.118776
C	 2.743326	 3.483495	 -2.492903
C	 1.578755	 3.665537	 -1.762298
C	 3.432670	 2.283357	 -2.419384
H	 1.045105	 4.596788	 -1.820218
C	 1.104038	 2.645800	 -0.957771
H	 4.335243	 2.144067	 -2.986453
C	 2.959346	 1.261188	 -1.614704
H	 0.204626	 2.768952	 -0.385440
C	 1.792464	 1.440507	 -0.881223
H	 3.489580	 0.330820	 -1.554801
C	 1.239129	 0.373821	 0.000060
O	 1.970282	 -0.730723	 0.000018
O	 0.243043	 0.491566	 0.642560
C	 3.377318	 -0.566646	 -0.000065
H	 3.695437	 -0.028981	 -0.881264
H	 3.789299	 -1.563704	 0.000236
H	 3.695516	 -0.028316	 0.880770

	symmetry c1
}
set optking {
	frozen_dihedral = ("
		12 13 15 16,
		13 12 10 6
	")
}

ee = energy('scf')
oeprop('DIPOLE', 'QUADRUPOLE', 'MULLIKEN_CHARGES')
f=open( 'psi4out.xyz', 'w' )
f.write( "18  " )
f.write( str(ee) + "\n" )
f.write( MOL.save_string_xyz() )
f.close()
--------------------------------------------------------------------------

    Molecular point group: c1

    Geometry (in Angstrom), charge = 0, multiplicity = 1:

       Center              X                  Y                   Z               Mass
    ------------   -----------------  -----------------  -----------------  -----------------
           H          1.072053934058     2.925166441911    -2.227908975084     1.007825032070
           C          0.702368934058     2.132449441911    -1.602035975084    12.000000000000
           C         -0.462202065942     2.314491441911    -0.871430975084    12.000000000000
           C          1.391712934058     0.932311441911    -1.528516975084    12.000000000000
           H         -0.995852065942     3.245742441911    -0.929350975084     1.007825032070
           C         -0.936919065942     1.294754441911    -0.066903975084    12.000000000000
           H          2.294285934058     0.793021441911    -2.095585975084     1.007825032070
           C          0.918388934058    -0.089857558089    -0.723836975084    12.000000000000
           H         -1.836331065942     1.417906441911     0.505427024916     1.007825032070
           C         -0.248493065942     0.089461441911     0.009644024916    12.000000000000
           H          1.448622934058    -1.020225558089    -0.663933975084     1.007825032070
           C         -0.801828065942    -0.977224558089     0.890927024916    12.000000000000
           O         -0.070675065942    -2.081768558089     0.890885024916    15.994914619560
           O         -1.797914065942    -0.859479558089     1.533427024916    15.994914619560
           C          1.336360934058    -1.917691558089     0.890802024916    12.000000000000
           H          1.654479934058    -1.380026558089     0.009603024916     1.007825032070
           H          1.748341934058    -2.914749558089     0.891103024916     1.007825032070
           H          1.654558934058    -1.379361558089     1.771637024916     1.007825032070

  Charge       = 0
  Multiplicity = 1
  Basis Set: 6-31G*
  Basis Set:

    Orbital Energies (a.u.)
    -----------------------

    Doubly Occupied:

       1A    -20.602403     2A    -20.548618     3A    -11.380348
       4A    -11.272970     5A    -11.254765     6A    -11.254422
       7A    -11.250662     8A    -11.249207     9A    -11.247965
      10A    -11.246280    11A     -1.469344    12A     -1.370558
      13A     -1.179103    14A     -1.065645    15A     -1.045262
      16A     -1.001673    17A     -0.882044    18A     -0.872833
      19A     -0.801760    20A     -0.744077    21A     -0.726490
      22A     -0.679002    23A     -0.668914    24A     -0.651702
      25A     -0.629523    26A     -0.618115    27A     -0.564349
      28A     -0.560007    29A     -0.556972    30A     -0.524444
      31A     -0.517442    32A     -0.478922    33A     -0.444681
      34A     -0.417483    35A     -0.352976    36A     -0.350214

  @DF-RHF Final Energy:  -457.19087925944694

   => Energetics <=

    Nuclear Repulsion Energy =            506.5990504706979323
    One-Electron Energy =               -1626.6176295259626841
    Two-Electron Energy =                 662.8276997958174661
    DFT Exchange-Correlation Energy =       0.0000000000000000
    Empirical Dispersion Energy =           0.0000000000000000
    PCM Polarization Energy =               0.0000000000000000
    EFP Energy =                            0.0000000000000000
    Total Energy =                       -457.1908792594473425

  Mulliken Charges: (a.u.)
   Center  Symbol    Alpha    Beta     Spin     Total
       1     H     0.39387  0.39387  0.00000  0.21227
       2     C     3.08993  3.08993  0.00000 -0.17987
       3     C     3.10526  3.10526  0.00000 -0.21052
       4     C     3.10652  3.10652  0.00000 -0.21303
       5     H     0.39276  0.39276  0.00000  0.21448
       6     C     3.08417  3.08417  0.00000 -0.16835
       7     H     0.39535  0.39535  0.00000  0.20930
       8     C     3.11012  3.11012  0.00000 -0.22025
       9     H     0.37261  0.37261  0.00000  0.25477
      10     C     3.08204  3.08204  0.00000 -0.16408
      11     H     0.36630  0.36630  0.00000  0.26741
      12     C     2.57819  2.57819  0.00000  0.84361
      13     O     4.30919  4.30919  0.00000 -0.61839
      14     O     4.27105  4.27105  0.00000 -0.54209
      15     C     3.09512  3.09512  0.00000 -0.19025
      16     H     0.43510  0.43510  0.00000  0.12981
      17     H     0.40375  0.40375  0.00000  0.19250
      18     H     0.40866  0.40866  0.00000  0.18268

   Total alpha = 36.00000, Total beta = 36.00000, Total charge =  0.00000
