                              Psi4 1.0.54 Driver

  ==> Input File <==

--------------------------------------------------------------------------
set {
	reference rhf
	basis cc-pvtz
}

set_num_threads( 4 )
memory 2 gb

molecule MOL {
0 1

H	 -1.088256	 -1.364742	 0.152233
O	 -1.432053	 -0.565244	 -0.200812
C	 -0.727158	 0.534527	 0.310686
C	 0.680222	 0.664433	 -0.252229
H	 -1.306802	 1.408001	 0.044211
H	 -0.690821	 0.490158	 1.397609
C	 1.254319	 2.075269	 -0.162791
H	 1.328616	 -0.029144	 0.272907
H	 0.655481	 0.349841	 -1.291974
H	 1.350571	 2.401549	 0.866967
H	 2.241801	 2.121283	 -0.605864
H	 0.625478	 2.789842	 -0.685191

	symmetry c1
}
set optking {
	frozen_dihedral = ("
		8 4 3 2
	")
}

ee,wfn = optimize('scf', return_wfn=True)
oeprop( wfn, 'DIPOLE', 'QUADRUPOLE', 'MULLIKEN_CHARGES')
f=open( 'psi4out.xyz', 'w' )
f.write( "12  " )
f.write( str(ee) + "\n" )
f.write( MOL.save_string_xyz() )
f.close()
--------------------------------------------------------------------------

    Molecular point group: c1
  Charge       = 0
  Multiplicity = 1
  Basis Set: CC-PVTZ
  Basis Set:
  @DF-RHF Final Energy:  -193.18928495655180
    Total Energy =                       -193.1892849565518304
    Molecular point group: c1
  Basis Set: CC-PVTZ
  Basis Set:
  Basis Set: CC-PVTZ
  Basis Set:
  @DF-RHF Final Energy:  -193.18958480190943
    Total Energy =                       -193.1895848019094046
  Basis Set: CC-PVTZ
  Basis Set:
  Basis Set: CC-PVTZ
  Basis Set:
  @DF-RHF Final Energy:  -193.18972399082239
    Total Energy =                       -193.1897239908224719
  Basis Set: CC-PVTZ
  Basis Set:
  Basis Set: CC-PVTZ
  Basis Set:
  @DF-RHF Final Energy:  -193.18973419158016
    Total Energy =                       -193.1897341915801576
  Basis Set: CC-PVTZ
  Basis Set:
  Basis Set: CC-PVTZ
  Basis Set:
  @DF-RHF Final Energy:  -193.18973527676553
    Total Energy =                       -193.1897352767656173
  Basis Set: CC-PVTZ
  Basis Set:
  Charge       = 0
  Multiplicity = 1
  Basis Set: CC-PVTZ
  Basis Set:

    Orbital Energies (a.u.)
    -----------------------

    Doubly Occupied:

       1A    -20.546166     2A    -11.265519     3A    -11.217016
       4A    -11.213468     5A     -1.363854     6A     -1.053667
       7A     -0.918465     8A     -0.819489     9A     -0.695607
      10A     -0.634834    11A     -0.602331    12A     -0.589344
      13A     -0.540516    14A     -0.504401    15A     -0.496994
      16A     -0.469398    17A     -0.432579

  @DF-RHF Final Energy:  -193.18973532725036

   => Energetics <=

    Nuclear Repulsion Energy =            131.1155871319355981
    One-Electron Energy =                -521.8833501761055231
    Two-Electron Energy =                 197.5780277169197348
    DFT Exchange-Correlation Energy =       0.0000000000000000
    Empirical Dispersion Energy =           0.0000000000000000
    PCM Polarization Energy =               0.0000000000000000
    EFP Energy =                            0.0000000000000000
    Total Energy =                       -193.1897353272501618
    Molecular point group: c1
  Basis Set: CC-PVTZ
  Basis Set:

  -Total Gradient:
     Atom            X                  Y                   Z
    ------   -----------------  -----------------  -----------------
       1        0.000000458807     0.000008290556     0.000001779353
       2       -0.001149877127     0.001910329172    -0.002320663749
       3        0.001738656537    -0.001941111018     0.003844457378
       4       -0.001321420278    -0.002717333050    -0.004389770002
       5        0.000001209307    -0.000007084279    -0.000004075982
       6        0.000004566360    -0.000001414924     0.000003964772
       7       -0.000000325583     0.000002185456     0.000002174681
       8        0.000723094226     0.002755059025     0.002870508883
       9        0.000003071657    -0.000004501408    -0.000008968797
      10        0.000000535231    -0.000002590707     0.000006830913
      11        0.000001733972     0.000001114551    -0.000002036741
      12       -0.000001703111    -0.000002943376    -0.000004200708

  **** Optimization is complete! (in 6 steps) ****
    Final optimized geometry and variables:
    Molecular point group: c1

    Geometry (in Angstrom), charge = 0, multiplicity = 1:

    H           -0.872060179667    -2.035303057784     0.016777104747
    O           -1.304747797048    -1.234445892128    -0.218283299978
    C           -0.639307309932    -0.140223993848     0.352588076728
    C            0.772371811154     0.052263849230    -0.187762854541
    H           -1.243810203059     0.722896016177     0.104209210356
    H           -0.622425031806    -0.218162820272     1.437142846053
    C            1.290720844639     1.468983741178     0.047160872125
    H            1.448810781285    -0.641874513563     0.305001333015
    H            0.772086322564    -0.176102377196    -1.246973202813
    H            1.274315151650     1.724455763348     1.101898086365
    H            2.311949427857     1.572879611089    -0.298936560761
    H            0.685659906959     2.199152129213    -0.478886550339

  Mulliken Charges: (a.u.)
   Center  Symbol    Alpha    Beta     Spin     Total
       1     H     0.39504  0.39504  0.00000  0.20991
       2     O     4.20066  4.20066  0.00000 -0.40132
       3     C     2.96460  2.96460  0.00000  0.07080
       4     C     3.09213  3.09213  0.00000 -0.18426
       5     H     0.45956  0.45956  0.00000  0.08089
       6     H     0.47017  0.47017  0.00000  0.05966
       7     C     3.15225  3.15225  0.00000 -0.30450
       8     H     0.46065  0.46065  0.00000  0.07869
       9     H     0.44821  0.44821  0.00000  0.10357
      10     H     0.45579  0.45579  0.00000  0.08842
      11     H     0.44778  0.44778  0.00000  0.10444
      12     H     0.45315  0.45315  0.00000  0.09370

   Total alpha = 17.00000, Total beta = 17.00000, Total charge = -0.00000

*** Psi4 exiting successfully. Buy a developer a beer!
