                              Psi4 1.0.54 Driver

  ==> Input File <==

--------------------------------------------------------------------------
set {
	reference rhf
	basis cc-pvtz
}

set_num_threads( 4 )
memory 2 gb

molecule MOL {
0 1

O	 -2.817697	 1.304178	 0.001046
C	 -2.664672	 0.129869	 0.003507
C	 -3.797908	 -0.860100	 -0.001145
O	 -1.481217	 -0.452708	 0.001092
H	 -4.408836	 -0.679689	 -0.875387
H	 -3.443486	 -1.878443	 -0.002770
H	 -4.412123	 -0.683688	 0.871605
C	 -0.332055	 0.384012	 -0.000250
C	 0.892252	 -0.506059	 -0.000295
H	 -0.360822	 1.020205	 -0.874146
H	 -0.359817	 1.021310	 0.872861
C	 1.333765	 -0.875886	 1.412736
H	 1.697808	 0.003683	 -0.518863
H	 0.673783	 -1.404995	 -0.567614
C	 2.567312	 -1.774143	 1.437677
H	 1.540479	 0.030225	 1.976836
H	 0.517597	 -1.375831	 1.928389
C	 3.008139	 -2.144910	 2.849489
H	 3.384110	 -1.274895	 0.924211
H	 2.361886	 -2.680024	 0.874412
H	 3.253896	 -1.260573	 3.427760
H	 3.884589	 -2.782114	 2.831856
H	 2.223617	 -2.676309	 3.377687

	symmetry c1
}
set optking {
	frozen_dihedral = ("
		13 9 8 10
	")
}

ee,wfn = optimize('scf', return_wfn=True)
oeprop( wfn, 'DIPOLE', 'QUADRUPOLE', 'MULLIKEN_CHARGES')
f=open( 'psi4out.xyz', 'w' )
f.write( "23  " )
f.write( str(ee) + "\n" )
f.write( MOL.save_string_xyz() )
f.close()
--------------------------------------------------------------------------

    Molecular point group: c1
  Charge       = 0
  Multiplicity = 1
  Basis Set: CC-PVTZ
  Basis Set:
  @DF-RHF Final Energy:  -423.13218426169720
    Total Energy =                       -423.1321842616966933
    Molecular point group: c1
  Basis Set: CC-PVTZ
  Basis Set:
  Basis Set: CC-PVTZ
  Basis Set:
  @DF-RHF Final Energy:  -423.13247084170536
    Total Energy =                       -423.1324708417050715
  Basis Set: CC-PVTZ
  Basis Set:
  Basis Set: CC-PVTZ
  Basis Set:
  @DF-RHF Final Energy:  -423.13086325694104
    Total Energy =                       -423.1308632569414385
  Basis Set: CC-PVTZ
  Basis Set:
  Basis Set: CC-PVTZ
  Basis Set:
  @DF-RHF Final Energy:  -423.13264711477763
    Total Energy =                       -423.1326471147772281
  Basis Set: CC-PVTZ
  Basis Set:
  Basis Set: CC-PVTZ
  Basis Set:
  @DF-RHF Final Energy:  -423.13266887687809
    Total Energy =                       -423.1326688768783697
  Basis Set: CC-PVTZ
  Basis Set:
  Basis Set: CC-PVTZ
  Basis Set:
  @DF-RHF Final Energy:  -423.13267391314122
    Total Energy =                       -423.1326739131407066
  Basis Set: CC-PVTZ
  Basis Set:
  Charge       = 0
  Multiplicity = 1
  Basis Set: CC-PVTZ
  Basis Set:

    Orbital Energies (a.u.)
    -----------------------

    Doubly Occupied:

       1A    -20.596813     2A    -20.530050     3A    -11.366871
       4A    -11.279619     5A    -11.231207     6A    -11.222616
       7A    -11.218225     8A    -11.217600     9A    -11.209940
      10A     -1.471748    11A     -1.364650    12A     -1.093099
      13A     -1.042560    14A     -1.003746    15A     -0.931946
      16A     -0.843710    17A     -0.800290    18A     -0.782871
      19A     -0.691405    20A     -0.684283    21A     -0.670348
      22A     -0.644606    23A     -0.609388    24A     -0.585212
      25A     -0.578273    26A     -0.575054    27A     -0.560014
      28A     -0.535340    29A     -0.530492    30A     -0.505542
      31A     -0.497505    32A     -0.475104    33A     -0.470479
      34A     -0.464537    35A     -0.447899    36A     -0.440618

  @DF-RHF Final Energy:  -423.13267442417225

   => Energetics <=

    Nuclear Repulsion Energy =            456.5419698468646175
    One-Electron Energy =               -1481.0019737330335374
    Two-Electron Energy =                 601.3273294619968965
    DFT Exchange-Correlation Energy =       0.0000000000000000
    Empirical Dispersion Energy =           0.0000000000000000
    PCM Polarization Energy =               0.0000000000000000
    EFP Energy =                            0.0000000000000000
    Total Energy =                       -423.1326744241721372
    Molecular point group: c1
  Basis Set: CC-PVTZ
  Basis Set:

  -Total Gradient:
     Atom            X                  Y                   Z
    ------   -----------------  -----------------  -----------------
       1        0.000018509927    -0.000116260544     0.000011509921
       2        0.000016752861     0.000049797698    -0.000030327935
       3       -0.000019060913     0.000016642484     0.000021694242
       4       -0.000100949555     0.000021938648    -0.000012369485
       5        0.000016145641    -0.000007552332     0.000021822595
       6       -0.000009335079     0.000014234853    -0.000000997496
       7        0.000012412014    -0.000006755320    -0.000029915766
       8       -0.002789296644    -0.004501809335    -0.003452136015
       9        0.001895282120     0.003251193233     0.005027647843
      10        0.002054920395     0.003237938954     0.002109592481
      11        0.000012321259    -0.000015077704    -0.000017540242
      12       -0.000006861242    -0.000015286176    -0.000007596589
      13       -0.001087104987    -0.001923216758    -0.003662525727
      14       -0.000003881128     0.000004221493     0.000014757260
      15       -0.000015576209    -0.000013558345     0.000000069205
      16       -0.000001500145    -0.000026926719    -0.000009287923
      17        0.000021789998     0.000002219686    -0.000000408714
      18        0.000015924892     0.000011032530     0.000011695881
      19       -0.000025216274    -0.000008247132     0.000004897218
      20       -0.000006026635     0.000018827639     0.000008142448
      21       -0.000003747552    -0.000015276106    -0.000000270811
      22       -0.000011123602     0.000015526161     0.000005469651
      23        0.000015620857     0.000006393094    -0.000013922041

  **** Optimization is complete! (in 7 steps) ****
    Final optimized geometry and variables:
    Molecular point group: c1

    Geometry (in Angstrom), charge = 0, multiplicity = 1:

    O           -2.468786384140     1.776501049117    -0.696467331438
    C           -2.284417579125     0.607583377835    -0.655275807760
    C           -3.391035568970    -0.411193768536    -0.607928012308
    O           -1.085646699114     0.056831445798    -0.647107598414
    H           -4.017335070911    -0.279386009464    -1.479956364155
    H           -3.010122752625    -1.419482031733    -0.576733983218
    H           -3.998717878479    -0.218313137446     0.265938645534
    C            0.040505916553     0.922770683056    -0.686826128208
    C            1.301456156381     0.078187256080    -0.618734481756
    H            0.009674782254     1.525964786418    -1.582727101899
    H           -0.019050856083     1.607770454054     0.148536594361
    C            1.724999683562    -0.296259279928     0.797313807670
    H            2.097129779199     0.605785492899    -1.135503793218
    H            1.129971204805    -0.822791648978    -1.199657236817
    C            2.953709523213    -1.199458992111     0.838366459662
    H            1.926773815052     0.610420390811     1.362361502189
    H            0.897094756591    -0.791442682670     1.297133938570
    C            3.383139169758    -1.560866398718     2.256203559359
    H            3.777217819726    -0.708577326560     0.326660027734
    H            2.748220104134    -2.109127285148     0.281068907280
    H            3.629255838906    -0.673070400410     2.829085464573
    H            4.256461110435    -2.202667836937     2.250171840551
    H            2.591948107722    -2.083781977912     2.782974719457

  Mulliken Charges: (a.u.)
   Center  Symbol    Alpha    Beta     Spin     Total
       1     O     4.20222  4.20222  0.00000 -0.40445
       2     C     2.81304  2.81304  0.00000  0.37393
       3     C     3.13949  3.13949  0.00000 -0.27899
       4     O     4.14849  4.14849  0.00000 -0.29698
       5     H     0.44171  0.44171  0.00000  0.11658
       6     H     0.44229  0.44229  0.00000  0.11543
       7     H     0.44202  0.44202  0.00000  0.11595
       8     C     2.98639  2.98639  0.00000  0.02723
       9     C     3.08889  3.08889  0.00000 -0.17779
      10     H     0.44584  0.44584  0.00000  0.10832
      11     H     0.45487  0.45487  0.00000  0.09026
      12     C     3.08896  3.08896  0.00000 -0.17792
      13     H     0.44896  0.44896  0.00000  0.10209
      14     H     0.45134  0.45134  0.00000  0.09733
      15     C     3.08586  3.08586  0.00000 -0.17172
      16     H     0.45398  0.45398  0.00000  0.09204
      17     H     0.45069  0.45069  0.00000  0.09861
      18     C     3.14969  3.14969  0.00000 -0.29938
      19     H     0.45460  0.45460  0.00000  0.09079
      20     H     0.45329  0.45329  0.00000  0.09342
      21     H     0.45473  0.45473  0.00000  0.09054
      22     H     0.44791  0.44791  0.00000  0.10417
      23     H     0.45474  0.45474  0.00000  0.09052

   Total alpha = 36.00000, Total beta = 36.00000, Total charge = -0.00000

*** Psi4 exiting successfully. Buy a developer a beer!
