                              Psi4 1.0.54 Driver

  ==> Input File <==

--------------------------------------------------------------------------
set {
	reference rhf
	basis cc-pvtz
}

set_num_threads( 4 )
memory 2 gb

molecule MOL {
0 1

H	 -0.939693	 0.000281	 1.681345
O	 -0.046262	 -0.000157	 1.387678
C	 -0.000837	 0.000006	 -0.025491
C	 1.454175	 -0.000709	 -0.490344
C	 -0.740862	 -1.224208	 -0.561036
C	 -0.701951	 1.282513	 -0.451874
H	 1.521345	 0.035804	 -1.571524
H	 1.964246	 -0.899507	 -0.157087
H	 1.978486	 0.854763	 -0.083248
H	 -0.754094	 -1.232445	 -1.644800
H	 -0.260977	 -2.139858	 -0.228819
H	 -1.762987	 -1.230755	 -0.203709
H	 -0.718006	 1.373624	 -1.531563
H	 -0.190824	 2.143561	 -0.040099
H	 -1.722114	 1.290070	 -0.089349

	symmetry c1
}
set optking {
	frozen_dihedral = ("
		4 3 2 1
	")
}

ee,wfn = optimize('scf', return_wfn=True)
oeprop( wfn, 'DIPOLE', 'QUADRUPOLE', 'MULLIKEN_CHARGES')
f=open( 'psi4out.xyz', 'w' )
f.write( "15  " )
f.write( str(ee) + "\n" )
f.write( MOL.save_string_xyz() )
f.close()
--------------------------------------------------------------------------

    Molecular point group: c1
  Charge       = 0
  Multiplicity = 1
  Basis Set: CC-PVTZ
  Basis Set:
  @DF-RHF Final Energy:  -232.24475384866619
    Total Energy =                       -232.2447538486661074
    Molecular point group: c1
  Basis Set: CC-PVTZ
  Basis Set:
  Basis Set: CC-PVTZ
  Basis Set:
  @DF-RHF Final Energy:  -232.19561698276732
    Total Energy =                       -232.1956169827674330
  Basis Set: CC-PVTZ
  Basis Set:
  Basis Set: CC-PVTZ
  Basis Set:
  @DF-RHF Final Energy:  -232.24438545074628
    Total Energy =                       -232.2443854507463925
  Basis Set: CC-PVTZ
  Basis Set:
  Basis Set: CC-PVTZ
  Basis Set:
  @DF-RHF Final Energy:  -232.24672099575872
    Total Energy =                       -232.2467209957588921
  Basis Set: CC-PVTZ
  Basis Set:
  Basis Set: CC-PVTZ
  Basis Set:
  @DF-RHF Final Energy:  -232.24679698249756
    Total Energy =                       -232.2467969824976990
  Basis Set: CC-PVTZ
  Basis Set:
  Basis Set: CC-PVTZ
  Basis Set:
  @DF-RHF Final Energy:  -232.24680345238016
    Total Energy =                       -232.2468034523803340
  Basis Set: CC-PVTZ
  Basis Set:
  Charge       = 0
  Multiplicity = 1
  Basis Set: CC-PVTZ
  Basis Set:

    Orbital Energies (a.u.)
    -----------------------

    Doubly Occupied:

       1A    -20.542260     2A    -11.280767     3A    -11.209306
       4A    -11.209281     5A    -11.203877     6A     -1.365022
       7A     -1.065204     8A     -0.942073     9A     -0.940446
      10A     -0.778498    11A     -0.672681    12A     -0.624317
      13A     -0.622807    14A     -0.575955    15A     -0.557598
      16A     -0.532707    17A     -0.517033    18A     -0.511293
      19A     -0.504683    20A     -0.458805    21A     -0.428791

  @DF-RHF Final Energy:  -232.24680346879560

   => Energetics <=

    Nuclear Repulsion Energy =            200.6814093605065921
    One-Electron Energy =                -712.7696251514441883
    Two-Electron Energy =                 279.8414123221417640
    DFT Exchange-Correlation Energy =       0.0000000000000000
    Empirical Dispersion Energy =           0.0000000000000000
    PCM Polarization Energy =               0.0000000000000000
    EFP Energy =                            0.0000000000000000
    Total Energy =                       -232.2468034687958607
    Molecular point group: c1
  Basis Set: CC-PVTZ
  Basis Set:

  -Total Gradient:
     Atom            X                  Y                   Z
    ------   -----------------  -----------------  -----------------
       1        0.000009827347    -0.000006436006    -0.000011458971
       2        0.000015555023    -0.000024356727    -0.000001905595
       3       -0.000035286550     0.000056661710     0.000002812951
       4        0.000004595382    -0.000034885601     0.000011221653
       5        0.000035919009     0.000013360766     0.000016601620
       6       -0.000009060464    -0.000013194152     0.000022350747
       7        0.000010406715    -0.000027477291    -0.000014778162
       8        0.000020674071     0.000003910863     0.000024207699
       9       -0.000043646282     0.000020652975    -0.000025384399
      10        0.000011971336    -0.000007021727    -0.000020355456
      11       -0.000015113775    -0.000002117664     0.000004906492
      12       -0.000002957625     0.000023095753    -0.000007136142
      13       -0.000002933592    -0.000005852528    -0.000016764381
      14        0.000010113563    -0.000002946979     0.000006873367
      15       -0.000010064161     0.000006606607     0.000008808580

  **** Optimization is complete! (in 7 steps) ****
    Final optimized geometry and variables:
    Molecular point group: c1

    Geometry (in Angstrom), charge = 0, multiplicity = 1:

    H           -1.430673624271    -0.028468613114     1.289052147857
    O           -0.490443332890    -0.044568281957     1.298080113523
    C            0.007405928611     0.000882550269    -0.024381782661
    C            1.523344669364    -0.030101665669     0.113679684457
    C           -0.489601989080    -1.217439087670    -0.800044339893
    C           -0.447691831643     1.293985438118    -0.697969744188
    H            2.000710346844    -0.003211353941    -0.858788493020
    H            1.834489238586    -0.931453753501     0.626488340763
    H            1.864243563700     0.820988162701     0.689544563148
    H           -0.092576677946    -1.230075217575    -1.808514182848
    H           -0.188673452218    -2.129235895866    -0.299517263924
    H           -1.573137787845    -1.212676960648    -0.870846803879
    H           -0.051694642507     1.373581841768    -1.703781521685
    H           -0.114370000870     2.151677091398    -0.127253283981
    H           -1.530813542481     1.332688396039    -0.764514651154

  Mulliken Charges: (a.u.)
   Center  Symbol    Alpha    Beta     Spin     Total
       1     H     0.39577  0.39577  0.00000  0.20847
       2     O     4.21095  4.21095  0.00000 -0.42191
       3     C     2.87835  2.87835  0.00000  0.24330
       4     C     3.14316  3.14316  0.00000 -0.28632
       5     C     3.15027  3.15027  0.00000 -0.30055
       6     C     3.15020  3.15020  0.00000 -0.30040
       7     H     0.45873  0.45873  0.00000  0.08255
       8     H     0.44829  0.44829  0.00000  0.10343
       9     H     0.44843  0.44843  0.00000  0.10315
      10     H     0.45553  0.45553  0.00000  0.08894
      11     H     0.44643  0.44643  0.00000  0.10713
      12     H     0.45595  0.45595  0.00000  0.08811
      13     H     0.45552  0.45552  0.00000  0.08896
      14     H     0.44648  0.44648  0.00000  0.10704
      15     H     0.45595  0.45595  0.00000  0.08810

   Total alpha = 21.00000, Total beta = 21.00000, Total charge = -0.00000

*** Psi4 exiting successfully. Buy a developer a beer!
