  ==> Input File <==

--------------------------------------------------------------------------
set {
	reference rhf
	basis 6-31G*
}

set_num_threads( 4 )
memory 2 gb

molecule MOL {
0 1

O	 -2.821601	 1.309235	 -0.001213
C	 -2.668563	 0.129746	 -0.000350
C	 -3.801572	 -0.864014	 -0.000442
O	 -1.481751	 -0.454642	 0.000584
H	 -4.417280	 -0.689587	 -0.874708
H	 -3.443784	 -1.883046	 -0.000565
H	 -4.417179	 -0.689832	 0.873954
C	 -0.334255	 0.388708	 0.000906
C	 0.891947	 -0.504646	 0.000751
H	 -0.365390	 1.025305	 -0.873475
H	 -0.365484	 1.024911	 0.875569
C	 2.191998	 0.301789	 0.000897
H	 0.855148	 -1.151283	 -0.871571
H	 0.855132	 -1.151660	 0.872805
C	 3.441114	 -0.581407	 0.000108
H	 2.215074	 0.954890	 -0.869742
H	 2.215465	 0.953923	 0.872248
C	 4.737503	 0.221087	 0.101331
H	 3.456837	 -1.180588	 -0.907532
H	 3.385060	 -1.283656	 0.828827
H	 4.838872	 0.909443	 -0.732878
H	 5.604510	 -0.432002	 0.098221
H	 4.766714	 0.805321	 1.016660

	symmetry c1
}
set optking {
	frozen_dihedral = ("
		19 15 12 16
	")
}

ee = optimize('scf')
oeprop('DIPOLE', 'QUADRUPOLE', 'MULLIKEN_CHARGES')
f=open( 'psi4out.xyz', 'w' )
f.write( "23  " )
f.write( str(ee) + "\n" )
f.write( MOL.save_string_xyz() )
f.close()
--------------------------------------------------------------------------

    Molecular point group: c1
  Charge       = 0
  Multiplicity = 1
  Basis Set: 6-31G*
  Basis Set:
  @DF-RHF Final Energy:  -422.97946415132719
    Total Energy =                       -422.9794641513276474
    Molecular point group: c1
  Basis Set: 6-31G*
  Basis Set:
  Basis Set: 6-31G*
  Basis Set:
  @DF-RHF Final Energy:  -422.97946717825738
    Total Energy =                       -422.9794671782578916
  Basis Set: 6-31G*
  Basis Set:
  Basis Set: 6-31G*
  Basis Set:
  @DF-RHF Final Energy:  -422.97947162032915
    Total Energy =                       -422.9794716203293774
  Basis Set: 6-31G*
  Basis Set:
  Basis Set: 6-31G*
  Basis Set:
  @DF-RHF Final Energy:  -422.97946999920487
    Total Energy =                       -422.9794699992046390
  Basis Set: 6-31G*
  Basis Set:
  Basis Set: 6-31G*
  Basis Set:
  @DF-RHF Final Energy:  -422.97947545090562
    Total Energy =                       -422.9794754509047152
  Basis Set: 6-31G*
  Basis Set:
  Charge       = 0
  Multiplicity = 1
  Basis Set: 6-31G*
  Basis Set:

    Orbital Energies (a.u.)
    -----------------------

    Doubly Occupied:

       1A    -20.603015     2A    -20.540546     3A    -11.374094
       4A    -11.281499     5A    -11.232389     6A    -11.224426
       7A    -11.223830     8A    -11.221745     9A    -11.212929
      10A     -1.467971    11A     -1.360749    12A     -1.094258
      13A     -1.042255    14A     -1.003441    15A     -0.930900
      16A     -0.841583    17A     -0.802650    18A     -0.774400
      19A     -0.692281    20A     -0.685047    21A     -0.667931
      22A     -0.646915    23A     -0.606142    24A     -0.588439
      25A     -0.582148    26A     -0.566855    27A     -0.558524
      28A     -0.537074    29A     -0.523413    30A     -0.504850
      31A     -0.491153    32A     -0.477647    33A     -0.471492
      34A     -0.465684    35A     -0.451241    36A     -0.435310

  @DF-RHF Final Energy:  -422.97947554307808

   => Energetics <=

    Nuclear Repulsion Energy =            449.6190538959903620
    One-Electron Energy =               -1466.8274023344401940
    Two-Electron Energy =                 594.2288728953712962
    DFT Exchange-Correlation Energy =       0.0000000000000000
    Empirical Dispersion Energy =           0.0000000000000000
    PCM Polarization Energy =               0.0000000000000000
    EFP Energy =                            0.0000000000000000
    Total Energy =                       -422.9794755430784789
    Molecular point group: c1
  Basis Set: 6-31G*
  Basis Set:

  -Total Gradient:
     Atom            X                  Y                   Z
    ------   -----------------  -----------------  -----------------
       1       -0.000000429494    -0.000000386779     0.000000391227
       2       -0.000001202425     0.000000777988    -0.000003991988
       3        0.000000262949     0.000000276460     0.000006686949
       4        0.000000913373    -0.000000939878    -0.000007936746
       5        0.000001386289    -0.000000582835    -0.000001390186
       6        0.000000158079     0.000000072142    -0.000000329626
       7       -0.000001341610     0.000000618891    -0.000001332817
       8       -0.000001399780    -0.000000081326     0.000024926957
       9        0.000002954217     0.000000449176    -0.000008133858
      10        0.000000082838    -0.000002423993    -0.000001979549
      11        0.000000822199     0.000002921315    -0.000002278871
      12        0.000581219468     0.000814890200     0.000429018406
      13        0.000003389862    -0.000003710997    -0.000001024646
      14       -0.000004656624     0.000002975134    -0.000000949258
      15       -0.000594211266    -0.000842659017     0.000369159950
      16       -0.000396542568    -0.000549660570    -0.000426239443
      17        0.000002504936    -0.000001928140    -0.000001854353
      18       -0.000001824553    -0.000000107996     0.000001456518
      19        0.000406845165     0.000579616406    -0.000375237362
      20       -0.000000008455    -0.000000478960    -0.000000082066
      21       -0.000001491661     0.000000570734     0.000001084076
      22        0.000000091564    -0.000000193629    -0.000001303029
      23        0.000002477502    -0.000000014327     0.000001339713

  **** Optimization is complete! (in 6 steps) ****
    Final optimized geometry and variables:
    Molecular point group: c1

    Geometry (in Angstrom), charge = 0, multiplicity = 1:

    O           -2.821534467152     1.309624368367    -0.022228751293
    C           -2.668337173914     0.130160125490    -0.017020103544
    C           -3.801280246739    -0.863681176660    -0.017295618954
    O           -1.481516656368    -0.454162106091    -0.010180593305
    H           -4.414632813727    -0.691847090686    -0.893720630788
    H           -3.443424954122    -1.882685974417    -0.013436342343
    H           -4.419264503038    -0.686982977735     0.854918677035
    C           -0.334000976994     0.389213490454    -0.008890403456
    C            0.892261755379    -0.503998720270    -0.001479003049
    H           -0.362079744768     1.022693029393    -0.885630794361
    H           -0.368282474706     1.028588633182     0.863370096036
    C            2.192500658683     0.302703141116     0.003087785577
    H            0.859575778053    -1.152581651933    -0.872599769747
    H            0.851386383825    -1.149103256633     0.871743714633
    C            3.440680949503    -0.581959065904    -0.007112823458
    H            2.212822885743     0.957574526932    -0.866221387574
    H            2.216202253047     0.949642279004     0.878090205535
    C            4.738167804384     0.221077838745     0.079570277133
    H            3.449310256881    -1.177890097680    -0.916899700401
    H            3.393667349513    -1.283935180334     0.822210694696
    H            4.826511196133     0.914550351465    -0.751936853584
    H            5.605474199533    -0.431318139551     0.059221853866
    H            4.780908318664     0.799842715670     0.997804008742

  Mulliken Charges: (a.u.)
   Center  Symbol    Alpha    Beta     Spin     Total
       1     O     4.28391  4.28391  0.00000 -0.56782
       2     C     2.61531  2.61531  0.00000  0.76937
       3     C     3.28774  3.28774  0.00000 -0.57548
       4     O     4.31273  4.31273  0.00000 -0.62546
       5     H     0.39750  0.39750  0.00000  0.20500
       6     H     0.39986  0.39986  0.00000  0.20028
       7     H     0.39750  0.39750  0.00000  0.20499
       8     C     2.99559  2.99559  0.00000  0.00882
       9     C     3.16488  3.16488  0.00000 -0.32975
      10     H     0.41067  0.41067  0.00000  0.17867
      11     H     0.41068  0.41068  0.00000  0.17864
      12     C     3.15996  3.15996  0.00000 -0.31993
      13     H     0.41431  0.41431  0.00000  0.17138
      14     H     0.41424  0.41424  0.00000  0.17152
      15     C     3.15144  3.15144  0.00000 -0.30289
      16     H     0.42069  0.42069  0.00000  0.15863
      17     H     0.42070  0.42070  0.00000  0.15859
      18     C     3.23989  3.23989  0.00000 -0.47978
      19     H     0.42125  0.42125  0.00000  0.15749
      20     H     0.42135  0.42135  0.00000  0.15731
      21     H     0.42088  0.42088  0.00000  0.15825
      22     H     0.41805  0.41805  0.00000  0.16390
      23     H     0.42087  0.42087  0.00000  0.15826

   Total alpha = 36.00000, Total beta = 36.00000, Total charge = -0.00000
