  ==> Input File <==

--------------------------------------------------------------------------
set {
	reference rhf
	basis 6-31G*
}

set_num_threads( 1 )
memory 2 gb

molecule MOL {
0 1

H	 -3.420663	 1.227371	 -1.044276
O	 -3.452007	 0.283848	 -0.965577
C	 -3.181085	 -0.079926	 0.364119
C	 -1.765924	 0.277073	 0.805136
H	 -3.327791	 -1.152017	 0.410903
H	 -3.905698	 0.375695	 1.036898
C	 -1.020921	 1.164215	 -0.193096
H	 -1.811189	 0.773098	 1.775122
H	 -1.213278	 -0.647462	 0.963370
C	 0.389658	 1.535004	 0.269465
H	 -1.598379	 2.066778	 -0.368112
H	 -0.962809	 0.648872	 -1.150404
C	 1.131256	 2.418176	 -0.737572
H	 0.325366	 2.040351	 1.230147
H	 0.965301	 0.626168	 0.440515
C	 2.580976	 2.743608	 -0.360001
H	 0.579846	 3.346898	 -0.875843
H	 1.130480	 1.919262	 -1.704475
C	 2.732953	 3.609798	 0.891807
H	 3.047727	 3.256991	 -1.197182
H	 3.134727	 1.816328	 -0.226903
H	 2.178783	 4.539400	 0.792430
H	 3.774954	 3.863965	 1.060536
H	 2.373952	 3.104155	 1.782092

	symmetry c1
}
set optking {
	frozen_dihedral = ("
		20 16 13 17,
		17 13 10 7,
		13 10 7 11,
		11 7 4 3,
		1 2 3 5
	")
}

ee = energy('scf')
oeprop('DIPOLE', 'QUADRUPOLE', 'MULLIKEN_CHARGES')
f=open( 'psi4out.xyz', 'w' )
f.write( "24  " )
f.write( str(ee) + "\n" )
f.write( MOL.save_string_xyz() )
f.close()
--------------------------------------------------------------------------

    Molecular point group: c1

    Geometry (in Angstrom), charge = 0, multiplicity = 1:

       Center              X                  Y                   Z               Mass
    ------------   -----------------  -----------------  -----------------  -----------------
           H         -3.045789757830    -0.258839507277    -1.044118224761     1.007825032070
           O         -3.077133757830    -1.202362507277    -0.965419224761    15.994914619560
           C         -2.806211757830    -1.566136507277     0.364276775239    12.000000000000
           C         -1.391050757830    -1.209137507277     0.805293775239    12.000000000000
           H         -2.952917757830    -2.638227507277     0.411060775239     1.007825032070
           H         -3.530824757830    -1.110515507277     1.037055775239     1.007825032070
           C         -0.646047757830    -0.321995507277    -0.192938224761    12.000000000000
           H         -1.436315757830    -0.713112507277     1.775279775239     1.007825032070
           H         -0.838404757830    -2.133672507277     0.963527775239     1.007825032070
           C          0.764531242170     0.048793492723     0.269622775239    12.000000000000
           H         -1.223505757830     0.580567492723    -0.367954224761     1.007825032070
           H         -0.587935757830    -0.837338507277    -1.150246224761     1.007825032070
           C          1.506129242170     0.931965492723    -0.737414224761    12.000000000000
           H          0.700239242170     0.554140492723     1.230304775239     1.007825032070
           H          1.340174242170    -0.860042507277     0.440672775239     1.007825032070
           C          2.955849242170     1.257397492723    -0.359843224761    12.000000000000
           H          0.954719242170     1.860687492723    -0.875685224761     1.007825032070
           H          1.505353242170     0.433051492723    -1.704317224761     1.007825032070
           C          3.107826242170     2.123587492723     0.891964775239    12.000000000000
           H          3.422600242170     1.770780492723    -1.197024224761     1.007825032070
           H          3.509600242170     0.330117492723    -0.226745224761     1.007825032070
           H          2.553656242170     3.053189492723     0.792587775239     1.007825032070
           H          4.149827242170     2.377754492723     1.060693775239     1.007825032070
           H          2.748825242170     1.617944492723     1.782249775239     1.007825032070

  Charge       = 0
  Multiplicity = 1
  Basis Set: 6-31G*
  Basis Set:

    Orbital Energies (a.u.)
    -----------------------

    Doubly Occupied:

       1A    -20.551058     2A    -11.265868     3A    -11.217444
       4A    -11.215669     5A    -11.214936     6A    -11.214652
       7A    -11.213802     8A    -11.208686     9A     -1.359621
      10A     -1.090289    11A     -1.048516    12A     -0.987107
      13A     -0.919904    14A     -0.853896    15A     -0.792223
      16A     -0.778830    17A     -0.692128    18A     -0.648189
      19A     -0.628179    20A     -0.613125    21A     -0.604126
      22A     -0.587451    23A     -0.557844    24A     -0.543250
      25A     -0.518148    26A     -0.511141    27A     -0.495304
      28A     -0.483634    29A     -0.463827    30A     -0.459572
      31A     -0.454533    32A     -0.443900    33A     -0.423115

  @DF-RHF Final Energy:  -349.23814379363176

   => Energetics <=

    Nuclear Repulsion Energy =            387.2158263092027823
    One-Electron Energy =               -1240.7881715516014083
    Two-Electron Energy =                 504.3342014487662937
    DFT Exchange-Correlation Energy =       0.0000000000000000
    Empirical Dispersion Energy =           0.0000000000000000
    PCM Polarization Energy =               0.0000000000000000
    EFP Energy =                            0.0000000000000000
    Total Energy =                       -349.2381437936322754

  Mulliken Charges: (a.u.)
   Center  Symbol    Alpha    Beta     Spin     Total
       1     H     0.27994  0.27994  0.00000  0.44012
       2     O     4.36968  4.36968  0.00000 -0.73935
       3     C     2.99392  2.99392  0.00000  0.01217
       4     C     3.17808  3.17808  0.00000 -0.35615
       5     H     0.41416  0.41416  0.00000  0.17168
       6     H     0.42936  0.42936  0.00000  0.14128
       7     C     3.15538  3.15538  0.00000 -0.31076
       8     H     0.42147  0.42147  0.00000  0.15705
       9     H     0.41749  0.41749  0.00000  0.16502
      10     C     3.15365  3.15365  0.00000 -0.30729
      11     H     0.43489  0.43489  0.00000  0.13023
      12     H     0.40794  0.40794  0.00000  0.18413
      13     C     3.15262  3.15262  0.00000 -0.30525
      14     H     0.42258  0.42258  0.00000  0.15484
      15     H     0.42280  0.42280  0.00000  0.15441
      16     C     3.15242  3.15242  0.00000 -0.30483
      17     H     0.42532  0.42532  0.00000  0.14936
      18     H     0.42126  0.42126  0.00000  0.15748
      19     C     3.24115  3.24115  0.00000 -0.48229
      20     H     0.42085  0.42085  0.00000  0.15831
      21     H     0.42309  0.42309  0.00000  0.15383
      22     H     0.42266  0.42266  0.00000  0.15469
      23     H     0.41916  0.41916  0.00000  0.16169
      24     H     0.42016  0.42016  0.00000  0.15968

   Total alpha = 33.00000, Total beta = 33.00000, Total charge =  0.00000
