                              Psi4 1.0.54 Driver

  ==> Input File <==

--------------------------------------------------------------------------
set {
	reference rhf
	basis cc-pvtz
}

set_num_threads( 4 )
memory 2 gb

molecule MOL {
0 1

O	 3.219313	 0.959291	 -0.614106
C	 2.698710	 0.058177	 -0.050237
C	 1.246364	 -0.005813	 0.348416
O	 3.344101	 -1.038700	 0.312317
C	 0.453207	 1.232821	 -0.049003
H	 0.839270	 -0.907818	 -0.092281
H	 1.216683	 -0.160521	 1.422434
C	 -0.998367	 1.217982	 0.432195
H	 0.481498	 1.345443	 -1.127236
H	 0.951413	 2.105557	 0.354893
C	 -1.882951	 0.151251	 -0.211235
H	 -1.429490	 2.193659	 0.228843
H	 -1.019755	 1.099323	 1.513279
C	 -1.230220	 -0.516158	 -1.418834
H	 -2.123732	 -0.606765	 0.530592
H	 -2.828697	 0.586327	 -0.520766
C	 -2.107404	 -1.579544	 -2.073457
H	 -0.288771	 -0.967046	 -1.114345
H	 -0.978337	 0.242748	 -2.156047
C	 -1.447787	 -2.242922	 -3.277870
H	 -2.359749	 -2.338670	 -1.338085
H	 -3.047688	 -1.129876	 -2.380898
H	 -2.096267	 -2.991425	 -3.718551
H	 -0.521482	 -2.732600	 -2.996294
H	 -1.213976	 -1.514080	 -4.046849
C	 4.720529	 -1.114346	 0.001449
H	 4.874321	 -1.055557	 -1.065852
H	 5.057824	 -2.067950	 0.373977
H	 5.264321	 -0.313596	 0.480350

	symmetry c1
}
set optking {
	frozen_dihedral = ("
		15 11 8 5
	")
}

ee,wfn = optimize('scf', return_wfn=True)
oeprop( wfn, 'DIPOLE', 'QUADRUPOLE', 'MULLIKEN_CHARGES')
f=open( 'psi4out.xyz', 'w' )
f.write( "29  " )
f.write( str(ee) + "\n" )
f.write( MOL.save_string_xyz() )
f.close()
--------------------------------------------------------------------------

    Molecular point group: c1
  Charge       = 0
  Multiplicity = 1
  Basis Set: CC-PVTZ
  Basis Set:
  @DF-RHF Final Energy:  -501.20220154465449
    Total Energy =                       -501.2022015446545993
    Molecular point group: c1
  Basis Set: CC-PVTZ
  Basis Set:
  Basis Set: CC-PVTZ
  Basis Set:
  @DF-RHF Final Energy:  -501.21253087588605
    Total Energy =                       -501.2125308758862730
  Basis Set: CC-PVTZ
  Basis Set:
  Basis Set: CC-PVTZ
  Basis Set:
  @DF-RHF Final Energy:  -501.21462267216975
    Total Energy =                       -501.2146226721695257
  Basis Set: CC-PVTZ
  Basis Set:
  Basis Set: CC-PVTZ
  Basis Set:
  @DF-RHF Final Energy:  -501.21482112655985
    Total Energy =                       -501.2148211265598547
  Basis Set: CC-PVTZ
  Basis Set:
  @DF-RHF Final Energy:  -501.21329420511927
    Total Energy =                       -501.2132942051199507
  @DF-RHF Final Energy:  -501.21513325058754
    Total Energy =                       -501.2151332505874279
  @DF-RHF Final Energy:  -501.21519260975572
    Total Energy =                       -501.2151926097560590
  @DF-RHF Final Energy:  -501.21523111579472
    Total Energy =                       -501.2152311157944951
  @DF-RHF Final Energy:  -501.21523708303914
    Total Energy =                       -501.2152370830384598
  @DF-RHF Final Energy:  -501.21523830697026
    Total Energy =                       -501.2152383069703774
  Basis Set: CC-PVTZ
  Basis Set:
  @DF-RHF Final Energy:  -501.21523726895725
    Total Energy =                       -501.2152372689575941
  Basis Set: CC-PVTZ
  Basis Set:
  Basis Set: CC-PVTZ
  Basis Set:
  @DF-RHF Final Energy:  -501.21522143156790
    Total Energy =                       -501.2152214315677838
  Basis Set: CC-PVTZ
  Basis Set:
  Basis Set: CC-PVTZ
  Basis Set:
  @DF-RHF Final Energy:  -501.21523810972099
    Total Energy =                       -501.2152381097200760
  Basis Set: CC-PVTZ
  Basis Set:
  Charge       = 0
  Multiplicity = 1
  Basis Set: CC-PVTZ
  Basis Set:

    Orbital Energies (a.u.)
    -----------------------

    Doubly Occupied:

       1A    -20.595872     2A    -20.533695     3A    -11.363964
       4A    -11.278225     5A    -11.232309     6A    -11.216435
       7A    -11.215837     8A    -11.214119     9A    -11.213918
      10A    -11.212948    11A    -11.206876    12A     -1.471647
      13A     -1.365207    14A     -1.097079    15A     -1.066143
      16A     -1.018357    17A     -0.976537    18A     -0.931228
      19A     -0.867552    20A     -0.809618    21A     -0.778908
      22A     -0.760816    23A     -0.702394    24A     -0.685536
      25A     -0.675724    26A     -0.648028    27A     -0.634582
      28A     -0.603702    29A     -0.594926    30A     -0.581834
      31A     -0.565485    32A     -0.551037    33A     -0.541922
      34A     -0.527209    35A     -0.522684    36A     -0.507117
      37A     -0.494580    38A     -0.481144    39A     -0.472653
      40A     -0.460327    41A     -0.457393    42A     -0.450955
      43A     -0.442913    44A     -0.436612

  @DF-RHF Final Energy:  -501.21523807573817

   => Energetics <=

    Nuclear Repulsion Energy =            629.6974020652962736
    One-Electron Energy =               -1930.8931941166772503
    Two-Electron Energy =                 799.9805539756429198
    DFT Exchange-Correlation Energy =       0.0000000000000000
    Empirical Dispersion Energy =           0.0000000000000000
    PCM Polarization Energy =               0.0000000000000000
    EFP Energy =                            0.0000000000000000
    Total Energy =                       -501.2152380757380570
    Molecular point group: c1
  Basis Set: CC-PVTZ
  Basis Set:

  -Total Gradient:
     Atom            X                  Y                   Z
    ------   -----------------  -----------------  -----------------
       1        0.000070114662     0.000087000159    -0.000028420871
       2       -0.000146945419    -0.000156269264     0.000016731651
       3       -0.000042498276     0.000020858745    -0.000022580705
       4       -0.000000445379     0.000123972033    -0.000066270702
       5       -0.001000406075     0.003640339632    -0.003408405696
       6        0.000011540703    -0.000006785910     0.000009546983
       7       -0.000018201896     0.000014423290     0.000021105334
       8        0.000142198226    -0.004457556174     0.005554054081
       9       -0.000009972222    -0.000020123291    -0.000019148254
      10        0.000004541751     0.000018058341    -0.000009990077
      11        0.006238473040    -0.002607535491    -0.003832177177
      12        0.000050736022     0.000007419673    -0.000012837280
      13        0.000020045247     0.000011156779     0.000005920085
      14        0.000034364583    -0.000104961190     0.000009073207
      15       -0.005403889712     0.003476604259     0.001700691237
      16       -0.000018978506     0.000005590149    -0.000008514482
      17       -0.000035271874     0.000058434101     0.000004399523
      18       -0.000079773125     0.000053896271    -0.000040325555
      19       -0.000030388871    -0.000071956435     0.000087442806
      20        0.000018005555    -0.000053080616    -0.000024895818
      21        0.000018764548     0.000077747173    -0.000058546224
      22        0.000078079483    -0.000049677018     0.000022526466
      23        0.000065229352     0.000041894447     0.000027680135
      24       -0.000063684165     0.000047253508    -0.000024720703
      25       -0.000023985121    -0.000058813629     0.000049206462
      26        0.000044888762    -0.000101493041     0.000066738270
      27       -0.000005218014     0.000005201207    -0.000032456243
      28        0.000066098902    -0.000037268403     0.000006440018
      29        0.000016577823     0.000035670697     0.000007733527

  **** Optimization is complete! (in 14 steps) ****
    Final optimized geometry and variables:
    Molecular point group: c1

    Geometry (in Angstrom), charge = 0, multiplicity = 1:

    O            2.552358534487     1.123402645565     0.146707432673
    C            2.029395308524     0.286023549764     0.799954348755
    C            0.566036482276     0.241713525177     1.158589608375
    O            2.682291084275    -0.744219886610     1.313214530088
    C           -0.237563240838     1.409291541657     0.596798349376
    H            0.184641942746    -0.715782328839     0.824399617392
    H            0.504052751201     0.218449466009     2.241879992151
    C           -1.727775209268     1.348561510901     0.947554252202
    H           -0.096336771870     1.469263591494    -0.473222815466
    H            0.172542006493     2.327175222522     1.000483645282
    C           -2.625734249795     0.350372096202     0.170688146515
    H           -2.121856797515     2.344750740731     0.778211776073
    H           -1.837426359218     1.170424442445     2.012436158702
    C           -2.104985114613    -0.210178948068    -1.150350351120
    H           -2.933294568269    -0.456561189408     0.829437684058
    H           -3.556339342991     0.867476023601    -0.046498221036
    C           -3.120015910813    -1.122890395692    -1.834413856750
    H           -1.184741764780    -0.764332718403    -1.000012577746
    H           -1.859999331575     0.608151682247    -1.821498381867
    C           -2.620085576399    -1.686119930159    -3.160537805162
    H           -3.372061018090    -1.942672663549    -1.167419448277
    H           -4.041854608282    -0.573137044465    -2.001675803493
    H           -3.362580662581    -2.329141463056    -3.618759224085
    H           -1.716835725542    -2.270993149470    -3.022574418341
    H           -2.392797605780    -0.891127130965    -3.862747792287
    C            4.069656468765    -0.826943473810     1.057132833545
    H            4.258209277581    -0.893808201014    -0.004161138989
    H            4.411554400108    -1.721085441789     1.552796919058
    H            4.582590257406     0.037509035101     1.452118034254

  Mulliken Charges: (a.u.)
   Center  Symbol    Alpha    Beta     Spin     Total
       1     O     4.19697  4.19697  0.00000 -0.39394
       2     C     2.80414  2.80414  0.00000  0.39171
       3     C     3.10366  3.10366  0.00000 -0.20732
       4     O     4.14765  4.14765  0.00000 -0.29530
       5     C     3.10139  3.10139  0.00000 -0.20277
       6     H     0.43952  0.43952  0.00000  0.12096
       7     H     0.43647  0.43647  0.00000  0.12706
       8     C     3.10858  3.10858  0.00000 -0.21715
       9     H     0.44128  0.44128  0.00000  0.11743
      10     H     0.43662  0.43662  0.00000  0.12676
      11     C     3.10322  3.10322  0.00000 -0.20643
      12     H     0.44407  0.44407  0.00000  0.11185
      13     H     0.44951  0.44951  0.00000  0.10099
      14     C     3.09166  3.09166  0.00000 -0.18331
      15     H     0.44887  0.44887  0.00000  0.10225
      16     H     0.44934  0.44934  0.00000  0.10131
      17     C     3.08532  3.08532  0.00000 -0.17063
      18     H     0.45287  0.45287  0.00000  0.09427
      19     H     0.45098  0.45098  0.00000  0.09803
      20     C     3.15009  3.15009  0.00000 -0.30017
      21     H     0.45473  0.45473  0.00000  0.09053
      22     H     0.45312  0.45312  0.00000  0.09376
      23     H     0.44809  0.44809  0.00000  0.10382
      24     H     0.45551  0.45551  0.00000  0.08899
      25     H     0.45452  0.45452  0.00000  0.09095
      26     C     3.03789  3.03789  0.00000 -0.07578
      27     H     0.45432  0.45432  0.00000  0.09136
      28     H     0.44534  0.44534  0.00000  0.10931
      29     H     0.45427  0.45427  0.00000  0.09146

   Total alpha = 44.00000, Total beta = 44.00000, Total charge = -0.00000

*** Psi4 exiting successfully. Buy a developer a beer!
