  ==> Input File <==

--------------------------------------------------------------------------
set {
	reference rhf
	basis 6-31G*
}

set_num_threads( 4 )
memory 2 gb

molecule MOL {
0 1

H	 -2.786295	 0.397684	 0.042023
C	 -2.331321	 0.440307	 -0.940081
C	 -1.063937	 -0.404528	 -0.992529
H	 -2.114542	 1.479591	 -1.154969
H	 -3.052988	 0.083502	 -1.667517
C	 -0.000005	 0.033229	 -0.000001
H	 -0.624227	 -0.379281	 -1.987724
H	 -1.290082	 -1.451754	 -0.801287
C	 1.290528	 -0.768786	 0.000276
O	 -0.168490	 0.955373	 0.737866
C	 2.545731	 0.095645	 -0.000061
H	 1.275672	 -1.427874	 -0.865626
H	 1.275566	 -1.427086	 0.866768
H	 2.577157	 0.734767	 -0.874036
H	 3.433520	 -0.528139	 0.000137
H	 2.577172	 0.735117	 0.873581

	symmetry c1
}
set optking {
	frozen_dihedral = ("
		3 6 9 12
	")
}

ee = optimize('scf')
oeprop('DIPOLE', 'QUADRUPOLE', 'MULLIKEN_CHARGES')
f=open( 'psi4out.xyz', 'w' )
f.write( "16  " )
f.write( str(ee) + "\n" )
f.write( MOL.save_string_xyz() )
f.close()
--------------------------------------------------------------------------

    Molecular point group: c1
  Charge       = 0
  Multiplicity = 1
  Basis Set: 6-31G*
  Basis Set:
  @DF-RHF Final Energy:  -270.03144826668404
    Total Energy =                       -270.0314482666841513
    Molecular point group: c1
  Basis Set: 6-31G*
  Basis Set:
  Basis Set: 6-31G*
  Basis Set:
  @DF-RHF Final Energy:  -270.03191277164723
    Total Energy =                       -270.0319127716472849
  Basis Set: 6-31G*
  Basis Set:
  Basis Set: 6-31G*
  Basis Set:
  @DF-RHF Final Energy:  -270.03117901359667
    Total Energy =                       -270.0311790135966135
  Basis Set: 6-31G*
  Basis Set:
  Basis Set: 6-31G*
  Basis Set:
  @DF-RHF Final Energy:  -270.03194660503220
    Total Energy =                       -270.0319466050320329
  Basis Set: 6-31G*
  Basis Set:
  Basis Set: 6-31G*
  Basis Set:
  @DF-RHF Final Energy:  -270.03194987139329
    Total Energy =                       -270.0319498713931807
  Basis Set: 6-31G*
  Basis Set:
  Charge       = 0
  Multiplicity = 1
  Basis Set: 6-31G*
  Basis Set:

    Orbital Energies (a.u.)
    -----------------------

    Doubly Occupied:

       1A    -20.549074     2A    -11.323772     3A    -11.234506
       4A    -11.232906     5A    -11.218831     6A    -11.213395
       7A     -1.395165     8A     -1.068343     9A     -1.036743
      10A     -0.914697    11A     -0.849354    12A     -0.725259
      13A     -0.666411    14A     -0.642498    15A     -0.622170
      16A     -0.602743    17A     -0.563458    18A     -0.534113
      19A     -0.526541    20A     -0.511593    21A     -0.502401
      22A     -0.496291    23A     -0.477683    24A     -0.397208

  @DF-RHF Final Energy:  -270.03195002558499

   => Energetics <=

    Nuclear Repulsion Energy =            239.9589140635510489
    One-Electron Energy =                -841.3714159673486392
    Two-Electron Energy =                 331.3805518782126001
    DFT Exchange-Correlation Energy =       0.0000000000000000
    Empirical Dispersion Energy =           0.0000000000000000
    PCM Polarization Energy =               0.0000000000000000
    EFP Energy =                            0.0000000000000000
    Total Energy =                       -270.0319500255850471
    Molecular point group: c1
  Basis Set: 6-31G*
  Basis Set:

  -Total Gradient:
     Atom            X                  Y                   Z
    ------   -----------------  -----------------  -----------------
       1       -0.000000383558     0.000004990042    -0.000005118639
       2       -0.000013267789    -0.000026982685     0.000027239660
       3        0.000403377675     0.000609270059    -0.000709758887
       4        0.000007004774    -0.000001344054    -0.000002871449
       5       -0.000001057808     0.000001619968    -0.000000535661
       6       -0.000705979103    -0.001050727428     0.001143826221
       7       -0.000008915200    -0.000012590113    -0.000003015250
       8        0.000002308549     0.000005646767     0.000011778767
       9        0.000896402747     0.001340334051    -0.001167045714
      10       -0.000001489326     0.000008855897     0.000001499860
      11       -0.000004488296     0.000009501008    -0.000001857409
      12       -0.000576063370    -0.000864077219     0.000709179093
      13        0.000007180063    -0.000010141458     0.000000043268
      14       -0.000002761780    -0.000004144208     0.000003330100
      15       -0.000000099225    -0.000007524726    -0.000001943835
      16       -0.000001768352    -0.000002685902    -0.000004750128

  **** Optimization is complete! (in 6 steps) ****
    Final optimized geometry and variables:
    Molecular point group: c1

    Geometry (in Angstrom), charge = 0, multiplicity = 1:

    H           -2.835604520059     0.275859409223     0.285822122033
    C           -2.399489983032     0.356344957701    -0.702700432478
    C           -1.119011759937    -0.462534863399    -0.802598373776
    H           -2.204092679507     1.405163037574    -0.889017713611
    H           -3.128571288420     0.009028965740    -1.427333495424
    C           -0.040612216529    -0.035111524475     0.173394554679
    H           -0.692944189609    -0.398496206880    -1.802938760861
    H           -1.317476564168    -1.520953037748    -0.641358657243
    C            1.239191769679    -0.858631186244     0.195254481282
    O           -0.177190645084     0.903506760457     0.897849696407
    C            2.496299487481     0.010864594348     0.220410811472
    H            1.256807144971    -1.551886332262    -0.639768563044
    H            1.198253195569    -1.466761321862     1.096818446123
    H            2.583393351147     0.600152285921    -0.687042242207
    H            3.384159703220    -0.606566046443     0.304028214384
    H            2.468125701483     0.691814794890     1.060764730409

  Mulliken Charges: (a.u.)
   Center  Symbol    Alpha    Beta     Spin     Total
       1     H     0.41136  0.41136  0.00000  0.17727
       2     C     3.23539  3.23539  0.00000 -0.47078
       3     C     3.20884  3.20884  0.00000 -0.41768
       4     H     0.40950  0.40950  0.00000  0.18099
       5     H     0.41999  0.41999  0.00000  0.16002
       6     C     2.73305  2.73305  0.00000  0.53389
       7     H     0.40800  0.40800  0.00000  0.18401
       8     H     0.40919  0.40919  0.00000  0.18162
       9     C     3.20213  3.20213  0.00000 -0.40426
      10     O     4.26686  4.26686  0.00000 -0.53371
      11     C     3.24182  3.24182  0.00000 -0.48364
      12     H     0.41436  0.41436  0.00000  0.17127
      13     H     0.40293  0.40293  0.00000  0.19415
      14     H     0.41833  0.41833  0.00000  0.16334
      15     H     0.41685  0.41685  0.00000  0.16630
      16     H     0.40140  0.40140  0.00000  0.19721

   Total alpha = 24.00000, Total beta = 24.00000, Total charge =  0.00000
