  ==> Input File <==

--------------------------------------------------------------------------
set {
	reference rhf
	basis cc-pvtz
}

set_num_threads( 4 )
memory 2 gb

molecule MOL {
0 1

H	 1.336186	 -1.227230	 0.505155
C	 0.788096	 -0.429819	 0.000000
N	 -0.537714	 -0.645117	 0.000000
O	 1.344574	 0.505650	 -0.481611
C	 -1.522613	 0.412524	 0.000000
H	 -0.845894	 -1.585866	 0.000000
H	 -2.150256	 0.356137	 -0.880771
H	 -1.005621	 1.357208	 0.000000
H	 -2.150256	 0.356137	 0.880771

	symmetry c1
}
set optking {
	frozen_dihedral = ("
		1 2 3 6
	")
}

ee = optimize('scf')
oeprop('DIPOLE', 'QUADRUPOLE', 'MULLIKEN_CHARGES')
f=open( 'psi4out.xyz', 'w' )
f.write( "9  " )
f.write( str(ee) + "\n" )
f.write( MOL.save_string_xyz() )
f.close()
--------------------------------------------------------------------------

    Molecular point group: c1
  Charge       = 0
  Multiplicity = 1
  Basis Set: CC-PVTZ
  Basis Set:
  @DF-RHF Final Energy:  -208.03370645231638
    Total Energy =                       -208.0337064523163519
    Molecular point group: c1
  Basis Set: CC-PVTZ
  Basis Set:
  Basis Set: CC-PVTZ
  Basis Set:
  @DF-RHF Final Energy:  -208.03681294724669
    Total Energy =                       -208.0368129472466592
  Basis Set: CC-PVTZ
  Basis Set:
  Basis Set: CC-PVTZ
  Basis Set:
  @DF-RHF Final Energy:  -208.04054075776563
    Total Energy =                       -208.0405407577656831
  Basis Set: CC-PVTZ
  Basis Set:
  Basis Set: CC-PVTZ
  Basis Set:
  @DF-RHF Final Energy:  -208.04129047512515
    Total Energy =                       -208.0412904751251233
  Basis Set: CC-PVTZ
  Basis Set:
  @DF-RHF Final Energy:  -208.04148107556364
    Total Energy =                       -208.0414810755636381
  @DF-RHF Final Energy:  -208.04177662428376
    Total Energy =                       -208.0417766242838127
  Basis Set: CC-PVTZ
  Basis Set:
  @DF-RHF Final Energy:  -208.04206491859605
    Total Energy =                       -208.0420649185960826
  Basis Set: CC-PVTZ
  Basis Set:
  Basis Set: CC-PVTZ
  Basis Set:
  @DF-RHF Final Energy:  -208.04213247805541
    Total Energy =                       -208.0421324780553505
  Basis Set: CC-PVTZ
  Basis Set:
  Basis Set: CC-PVTZ
  Basis Set:
  @DF-RHF Final Energy:  -208.04214286471640
    Total Energy =                       -208.0421428647164532
  Basis Set: CC-PVTZ
  Basis Set:
  Charge       = 0
  Multiplicity = 1
  Basis Set: CC-PVTZ
  Basis Set:

    Orbital Energies (a.u.)
    -----------------------

    Doubly Occupied:

       1A    -20.524283     2A    -15.583497     3A    -11.338616
       4A    -11.257705     5A     -1.400117     6A     -1.238511
       7A     -0.965504     8A     -0.806853     9A     -0.746078
      10A     -0.648325    11A     -0.634387    12A     -0.590516
      13A     -0.555320    14A     -0.538718    15A     -0.433502
      16A     -0.402699

  @DF-RHF Final Energy:  -208.04214305529274

   => Energetics <=

    Nuclear Repulsion Energy =            122.9738459882542969
    One-Electron Energy =                -526.7027236159102586
    Two-Electron Energy =                 195.6867345723632354
    DFT Exchange-Correlation Energy =       0.0000000000000000
    Empirical Dispersion Energy =           0.0000000000000000
    PCM Polarization Energy =               0.0000000000000000
    EFP Energy =                            0.0000000000000000
    Total Energy =                       -208.0421430552927120
    Molecular point group: c1
  Basis Set: CC-PVTZ
  Basis Set:

  -Total Gradient:
     Atom            X                  Y                   Z
    ------   -----------------  -----------------  -----------------
       1        0.001089407091     0.001896745578     0.003713639146
       2       -0.001861547366    -0.002372143112    -0.006323439623
       3        0.002379764693     0.000176628875     0.007127405341
       4       -0.000044135068    -0.000034026332     0.000029545619
       5        0.000011632864     0.000015686734    -0.000010133180
       6       -0.001574898734     0.000307830542    -0.004551431332
       7        0.000002919710    -0.000010041165     0.000008422748
       8       -0.000007425823     0.000019855535     0.000003414170
       9        0.000004282634    -0.000000536656     0.000002577112

  **** Optimization is complete! (in 10 steps) ****
    Final optimized geometry and variables:
    Molecular point group: c1

    Geometry (in Angstrom), charge = 0, multiplicity = 1:

    H            1.402425235493    -1.300958284587     0.264762934117
    C            0.783608669550    -0.440242698068     0.004676212768
    N           -0.491585279509    -0.562185287224     0.442386720335
    O            1.233966080719     0.519318416434    -0.531452360460
    C           -1.469126480732     0.456681563455     0.113130054631
    H           -0.833090656716    -1.492727518105     0.499144584512
    H           -1.695659262187     0.485123900110    -0.946688943520
    H           -1.088320052295     1.423336808934     0.402580183915
    H           -2.376691234799     0.258729507230     0.665360776770

  Mulliken Charges: (a.u.)
   Center  Symbol    Alpha    Beta     Spin     Total
       1     H     0.46115  0.46115  0.00000  0.07769
       2     C     2.88112  2.88112  0.00000  0.23777
       3     N     3.60355  3.60355  0.00000 -0.20710
       4     O     4.20647  4.20647  0.00000 -0.41294
       5     C     3.07997  3.07997  0.00000 -0.15994
       6     H     0.41885  0.41885  0.00000  0.16231
       7     H     0.45599  0.45599  0.00000  0.08802
       8     H     0.44033  0.44033  0.00000  0.11934
       9     H     0.45257  0.45257  0.00000  0.09486

   Total alpha = 16.00000, Total beta = 16.00000, Total charge =  0.00000
