  ==> Input File <==

--------------------------------------------------------------------------
set {
	reference rhf
	basis cc-pvtz
}

set_num_threads( 4 )
memory 2 gb

molecule MOL {
0 1

H	 -1.976364	 -1.391877	 0.201977
C	 -1.582593	 -1.131450	 -0.775145
O	 -0.775228	 0.000056	 -0.739966
H	 -2.416322	 -0.899190	 -1.422526
H	 -1.069109	 -1.996032	 -1.183143
C	 0.406133	 -0.000384	 0.036994
C	 1.526415	 -0.003194	 -0.997339
C	 0.498772	 1.259027	 0.900673
C	 0.495883	 -1.257378	 0.904465
H	 1.452279	 0.872071	 -1.630204
H	 1.451276	 -0.881020	 -1.626529
H	 2.497919	 -0.002741	 -0.517601
H	 0.368981	 2.144239	 0.289753
H	 1.470064	 1.313479	 1.377660
H	 -0.248448	 1.271586	 1.684297
H	 0.363971	 -2.144195	 0.296316
H	 1.467114	 -1.312636	 1.381470
H	 -0.251246	 -1.265768	 1.688235

	symmetry c1
}
set optking {
	frozen_dihedral = ("
		2 3 6 7
	")
}

ee = optimize('scf')
oeprop('DIPOLE', 'QUADRUPOLE', 'MULLIKEN_CHARGES')
f=open( 'psi4out.xyz', 'w' )
f.write( "18  " )
f.write( str(ee) + "\n" )
f.write( MOL.save_string_xyz() )
f.close()
--------------------------------------------------------------------------

    Molecular point group: c1
  Charge       = 0
  Multiplicity = 1
  Basis Set: CC-PVTZ
  Basis Set:
  @DF-RHF Final Energy:  -271.26856024347171
    Total Energy =                       -271.2685602434717680
    Molecular point group: c1
  Basis Set: CC-PVTZ
  Basis Set:
  Basis Set: CC-PVTZ
  Basis Set:
  @DF-RHF Final Energy:  -271.27001476935868
    Total Energy =                       -271.2700147693587382
  Basis Set: CC-PVTZ
  Basis Set:
  Basis Set: CC-PVTZ
  Basis Set:
  @DF-RHF Final Energy:  -271.27253791311949
    Total Energy =                       -271.2725379131194927
  Basis Set: CC-PVTZ
  Basis Set:
  Basis Set: CC-PVTZ
  Basis Set:
  @DF-RHF Final Energy:  -271.27267657146638
    Total Energy =                       -271.2726765714664339
  Basis Set: CC-PVTZ
  Basis Set:
  Basis Set: CC-PVTZ
  Basis Set:
  @DF-RHF Final Energy:  -271.27278279275089
    Total Energy =                       -271.2727827927507178
  Basis Set: CC-PVTZ
  Basis Set:
  Basis Set: CC-PVTZ
  Basis Set:
  @DF-RHF Final Energy:  -271.27281835059625
    Total Energy =                       -271.2728183505963671
  Basis Set: CC-PVTZ
  Basis Set:
  Basis Set: CC-PVTZ
  Basis Set:
  @DF-RHF Final Energy:  -271.27281597346342
    Total Energy =                       -271.2728159734635938
  Basis Set: CC-PVTZ
  Basis Set:
  Charge       = 0
  Multiplicity = 1
  Basis Set: CC-PVTZ
  Basis Set:

    Orbital Energies (a.u.)
    -----------------------

    Doubly Occupied:

       1A    -20.537487     2A    -11.280624     3A    -11.259469
       4A    -11.211766     5A    -11.202594     6A    -11.201686
       7A     -1.369785     8A     -1.075509     9A     -0.951664
      10A     -0.935326    11A     -0.912365    12A     -0.752310
      13A     -0.657635    14A     -0.647997    15A     -0.638714
      16A     -0.583532    17A     -0.577550    18A     -0.549198
      19A     -0.542109    20A     -0.527082    21A     -0.515291
      22A     -0.491042    23A     -0.484388    24A     -0.443724
      25A     -0.399082

  @DF-RHF Final Energy:  -271.27281951941393

   => Energetics <=

    Nuclear Repulsion Energy =            272.0767192698446024
    One-Electron Energy =                -907.2032321030060302
    Two-Electron Energy =                 363.8536933137474421
    DFT Exchange-Correlation Energy =       0.0000000000000000
    Empirical Dispersion Energy =           0.0000000000000000
    PCM Polarization Energy =               0.0000000000000000
    EFP Energy =                            0.0000000000000000
    Total Energy =                       -271.2728195194139857
    Molecular point group: c1
  Basis Set: CC-PVTZ
  Basis Set:

  -Total Gradient:
     Atom            X                  Y                   Z
    ------   -----------------  -----------------  -----------------
       1       -0.000003981650    -0.000007594540    -0.000007351897
       2       -0.001102965657     0.000731596401     0.001907652586
       3        0.001690329453    -0.000522486928    -0.002823089167
       4        0.000002248530     0.000000518046    -0.000001757555
       5        0.000010858763     0.000004642027    -0.000002264746
       6       -0.000652276934    -0.002056970103     0.000836006844
       7        0.000049005979     0.001849215478     0.000092049721
       8        0.000005330710     0.000005296593     0.000000773975
       9        0.000009110466    -0.000000157441     0.000003105123
      10       -0.000001536563    -0.000000977890    -0.000002681604
      11       -0.000002335432     0.000000213248     0.000004068666
      12        0.000001091525     0.000001806811     0.000000032153
      13        0.000000302938     0.000001292146    -0.000001701384
      14       -0.000002330379    -0.000003015268    -0.000001857986
      15       -0.000000771339    -0.000001202015     0.000000009525
      16       -0.000000390154    -0.000004536721    -0.000003476903
      17       -0.000002646385     0.000002447831    -0.000000432065
      18        0.000000956129    -0.000000087678     0.000000914713

  **** Optimization is complete! (in 8 steps) ****
    Final optimized geometry and variables:
    Molecular point group: c1

    Geometry (in Angstrom), charge = 0, multiplicity = 1:

    H           -2.115548995520    -1.167190893792     0.306499834524
    C           -1.728410371248    -0.867621275253    -0.661546312094
    O           -0.868336929105     0.220707118571    -0.582046380194
    H           -2.561637649944    -0.557023409043    -1.276097038333
    H           -1.267474389504    -1.731552060959    -1.132537632168
    C            0.353446130180     0.161665757713     0.139699196829
    C            1.481930852168     0.188014604969    -0.890002495940
    C            0.388093484837     1.431658174150     0.986702045947
    C            0.485078132870    -1.063363217232     1.044137511855
    H            1.379768031478     1.057573592374    -1.526260053431
    H            1.446220232163    -0.694568518389    -1.518968577239
    H            2.453295715024     0.222566964012    -0.409476551129
    H            0.259363795194     2.301184446671     0.355009359273
    H            1.330251020058     1.525109288513     1.515018758595
    H           -0.414956498521     1.422872833165     1.713943077565
    H            0.470749513493    -1.989469033659     0.484074168686
    H            1.431367311947    -1.012430919868     1.567874086048
    H           -0.300598861138    -1.098045666790     1.788211750883

  Mulliken Charges: (a.u.)
   Center  Symbol    Alpha    Beta     Spin     Total
       1     H     0.46854  0.46854  0.00000  0.06293
       2     C     3.04123  3.04123  0.00000 -0.08247
       3     O     4.19907  4.19907  0.00000 -0.39814
       4     H     0.44273  0.44273  0.00000  0.11453
       5     H     0.46998  0.46998  0.00000  0.06004
       6     C     2.87043  2.87043  0.00000  0.25915
       7     C     3.14349  3.14349  0.00000 -0.28698
       8     C     3.14060  3.14060  0.00000 -0.28120
       9     C     3.17663  3.17663  0.00000 -0.35326
      10     H     0.44800  0.44800  0.00000  0.10399
      11     H     0.45180  0.45180  0.00000  0.09641
      12     H     0.45672  0.45672  0.00000  0.08655
      13     H     0.44773  0.44773  0.00000  0.10454
      14     H     0.45888  0.45888  0.00000  0.08224
      15     H     0.45234  0.45234  0.00000  0.09532
      16     H     0.44433  0.44433  0.00000  0.11133
      17     H     0.44249  0.44249  0.00000  0.11502
      18     H     0.44500  0.44500  0.00000  0.10999

   Total alpha = 25.00000, Total beta = 25.00000, Total charge = -0.00000
