  ==> Input File <==

--------------------------------------------------------------------------
set {
	reference rhf
	basis 6-31G*
}

set_num_threads( 4 )
memory 2 gb

molecule MOL {
0 1

O	 -1.276010	 1.052711	 -0.768302
C	 -1.204840	 0.067374	 -0.106123
C	 -2.388195	 -0.672128	 0.458071
O	 -0.067104	 -0.527208	 0.221609
H	 -2.388023	 -1.694060	 0.097175
H	 -3.300579	 -0.174919	 0.164318
H	 -2.315377	 -0.706351	 1.539059
C	 1.170111	 0.034140	 -0.238951
C	 0.979912	 0.302593	 -1.721296
C	 2.310614	 -0.929299	 0.050329
H	 1.331547	 0.961135	 0.291261
H	 0.149132	 0.979708	 -1.884290
H	 1.875384	 0.752182	 -2.137627
H	 0.778976	 -0.619926	 -2.255371
H	 3.246652	 -0.520358	 -0.316572
H	 2.410149	 -1.097816	 1.115069
H	 2.137077	 -1.880962	 -0.441840

	symmetry c1
}
set optking {
	frozen_dihedral = ("
		11 8 4 2
	")
}

ee = optimize('scf')
oeprop('DIPOLE', 'QUADRUPOLE', 'MULLIKEN_CHARGES')
f=open( 'psi4out.xyz', 'w' )
f.write( "17  " )
f.write( str(ee) + "\n" )
f.write( MOL.save_string_xyz() )
f.close()
--------------------------------------------------------------------------

    Molecular point group: c1
  Charge       = 0
  Multiplicity = 1
  Basis Set: 6-31G*
  Basis Set:
  @DF-RHF Final Energy:  -344.89469867098541
    Total Energy =                       -344.8946986709851217
    Molecular point group: c1
  Basis Set: 6-31G*
  Basis Set:
  Basis Set: 6-31G*
  Basis Set:
  @DF-RHF Final Energy:  -344.90827675798857
    Total Energy =                       -344.9082767579887445
  Basis Set: 6-31G*
  Basis Set:
  Basis Set: 6-31G*
  Basis Set:
  @DF-RHF Final Energy:  -344.91030950023094
    Total Energy =                       -344.9103095002306532
  Basis Set: 6-31G*
  Basis Set:
  Basis Set: 6-31G*
  Basis Set:
  @DF-RHF Final Energy:  -344.90677847097362
    Total Energy =                       -344.9067784709739044
  Basis Set: 6-31G*
  Basis Set:
  @DF-RHF Final Energy:  -344.91073856087337
    Total Energy =                       -344.9107385608735399
  @DF-RHF Final Energy:  -344.91082114792033
    Total Energy =                       -344.9108211479202737
  @DF-RHF Final Energy:  -344.91083014660961
    Total Energy =                       -344.9108301466095554
  @DF-RHF Final Energy:  -344.91083153059122
    Total Energy =                       -344.9108315305911674
  @DF-RHF Final Energy:  -344.90363348755949
    Total Energy =                       -344.9036334875596594
  @DF-RHF Final Energy:  -344.87368280715913
    Total Energy =                       -344.8736828071588434
  @DF-RHF Final Energy:  -344.90420862377664
    Total Energy =                       -344.9042086237765830
  @DF-RHF Final Energy:  -344.90974637772052
    Total Energy =                       -344.9097463777208077
  @DF-RHF Final Energy:  -344.91064652503320
    Total Energy =                       -344.9106465250332008
  @DF-RHF Final Energy:  -344.91080349240031
    Total Energy =                       -344.9108034924002482
  Basis Set: 6-31G*
  Basis Set:
  @DF-RHF Final Energy:  -344.91082089571387
    Total Energy =                       -344.9108208957136412
  Basis Set: 6-31G*
  Basis Set:
  Basis Set: 6-31G*
  Basis Set:
  @DF-RHF Final Energy:  -344.91082366323525
    Total Energy =                       -344.9108236632351918
  Basis Set: 6-31G*
  Basis Set:
  Basis Set: 6-31G*
  Basis Set:
  @DF-RHF Final Energy:  -344.91082474971051
    Total Energy =                       -344.9108247497101161
  Basis Set: 6-31G*
  Basis Set:
  Charge       = 0
  Multiplicity = 1
  Basis Set: 6-31G*
  Basis Set:

    Orbital Energies (a.u.)
    -----------------------

    Doubly Occupied:

       1A    -20.598264     2A    -20.542443     3A    -11.374481
       4A    -11.293814     5A    -11.231675     6A    -11.219010
       7A    -11.213618     8A     -1.463484     9A     -1.361703
      10A     -1.079098    11A     -1.004397    12A     -0.946695
      13A     -0.852947    14A     -0.756250    15A     -0.691147
      16A     -0.675804    17A     -0.657600    18A     -0.615447
      19A     -0.585280    20A     -0.578462    21A     -0.553071
      22A     -0.549958    23A     -0.541036    24A     -0.518563
      25A     -0.500698    26A     -0.484112    27A     -0.447633
      28A     -0.431852

  @DF-RHF Final Energy:  -344.91082468817280

   => Energetics <=

    Nuclear Repulsion Energy =            323.8191368167077258
    One-Electron Energy =               -1111.9228404384653004
    Two-Electron Energy =                 443.1928789335844385
    DFT Exchange-Correlation Energy =       0.0000000000000000
    Empirical Dispersion Energy =           0.0000000000000000
    PCM Polarization Energy =               0.0000000000000000
    EFP Energy =                            0.0000000000000000
    Total Energy =                       -344.9108246881731930
    Molecular point group: c1
  Basis Set: 6-31G*
  Basis Set:

  -Total Gradient:
     Atom            X                  Y                   Z
    ------   -----------------  -----------------  -----------------
       1       -0.000010580634     0.000003630320    -0.000014659777
       2       -0.000610889529    -0.003175057921    -0.004561644375
       3        0.000001556063     0.000006363806     0.000006858871
       4        0.001673144246     0.003975679519     0.007778875892
       5       -0.000000883444     0.000000378473    -0.000004357355
       6       -0.000000142396     0.000000295330    -0.000001259548
       7        0.000000430654    -0.000002136887    -0.000003122762
       8       -0.003940507539     0.002095290069    -0.007234759036
       9       -0.000000272270     0.000049428819     0.000010758021
      10       -0.000031083461    -0.000081409260    -0.000063720110
      11        0.002930438098    -0.002873740885     0.004080799774
      12        0.000064131411     0.000069796516     0.000005914838
      13        0.000010655108    -0.000091528956    -0.000012529282
      14       -0.000094569585     0.000027115810     0.000007513409
      15        0.000004229505     0.000009347326     0.000020608399
      16       -0.000011306017    -0.000015836113    -0.000003133675
      17        0.000015649793     0.000002384037    -0.000012143284

  **** Optimization is complete! (in 18 steps) ****
    Final optimized geometry and variables:
    Molecular point group: c1

    Geometry (in Angstrom), charge = 0, multiplicity = 1:

    O           -1.307485647637     1.235210588280    -0.258956658777
    C           -1.156021018468     0.178884283827     0.264744664155
    C           -2.276205868857    -0.684232312449     0.782500568728
    O            0.021088795645    -0.383589706621     0.494465691341
    H           -2.275978034632    -1.633993378600     0.259718270741
    H           -3.219997938673    -0.181220378259     0.633424394168
    H           -2.125197965276    -0.889908521081     1.835695331392
    C            1.232534293374     0.162220991962    -0.050525353275
    C            1.179690808346     0.354663782813    -1.559006679952
    C            2.307624833040    -0.836891502212     0.353348601544
    H            1.428717765880     1.094348067890     0.464950162742
    H            0.494167348483     1.135856881883    -1.846914547130
    H            2.171208440558     0.613373789132    -1.916582612349
    H            0.882012636219    -0.571905140057    -2.041223126832
    H            3.286943147927    -0.471225630561     0.063195223840
    H            2.302102394672    -0.989445110129     1.426339894477
    H            2.140566726183    -1.794364294526    -0.128510903949

  Mulliken Charges: (a.u.)
   Center  Symbol    Alpha    Beta     Spin     Total
       1     O     4.28523  4.28523  0.00000 -0.57045
       2     C     2.61445  2.61445  0.00000  0.77110
       3     C     3.28105  3.28105  0.00000 -0.56211
       4     O     4.31831  4.31831  0.00000 -0.63662
       5     H     0.40188  0.40188  0.00000  0.19624
       6     H     0.39764  0.39764  0.00000  0.20471
       7     H     0.40054  0.40054  0.00000  0.19892
       8     C     2.91681  2.91681  0.00000  0.16639
       9     C     3.26175  3.26175  0.00000 -0.52351
      10     C     3.24299  3.24299  0.00000 -0.48598
      11     H     0.41037  0.41037  0.00000  0.17926
      12     H     0.38892  0.38892  0.00000  0.22215
      13     H     0.41782  0.41782  0.00000  0.16435
      14     H     0.41826  0.41826  0.00000  0.16347
      15     H     0.41818  0.41818  0.00000  0.16365
      16     H     0.41082  0.41082  0.00000  0.17836
      17     H     0.41496  0.41496  0.00000  0.17007

   Total alpha = 28.00000, Total beta = 28.00000, Total charge = -0.00000
