  ==> Input File <==

--------------------------------------------------------------------------
set {
	reference rhf
	basis cc-pvtz
}

set_num_threads( 4 )
memory 2 gb

molecule MOL {
0 1

H	 0.132593	 -2.501853	 -0.456901
C	 -0.733469	 -1.846735	 -0.567380
N	 -0.537714	 -0.645117	 0.000000
O	 -1.718484	 -2.200098	 -1.134477
C	 -1.522613	 0.412524	 0.000000
H	 0.334659	 -0.486508	 0.440219
H	 -2.150256	 0.356137	 -0.880771
H	 -1.005621	 1.357208	 0.000000
H	 -2.150256	 0.356137	 0.880771

	symmetry c1
}
set optking {
	frozen_dihedral = ("
		6 3 5 7
	")
}

ee = optimize('scf')
oeprop('DIPOLE', 'QUADRUPOLE', 'MULLIKEN_CHARGES')
f=open( 'psi4out.xyz', 'w' )
f.write( "9  " )
f.write( str(ee) + "\n" )
f.write( MOL.save_string_xyz() )
f.close()
--------------------------------------------------------------------------

    Molecular point group: c1
  Charge       = 0
  Multiplicity = 1
  Basis Set: CC-PVTZ
  Basis Set:
  @DF-RHF Final Energy:  -208.04335883036072
    Total Energy =                       -208.0433588303607166
    Molecular point group: c1
  Basis Set: CC-PVTZ
  Basis Set:
  Basis Set: CC-PVTZ
  Basis Set:
  @DF-RHF Final Energy:  -208.04357816561858
    Total Energy =                       -208.0435781656186123
  Basis Set: CC-PVTZ
  Basis Set:
  Basis Set: CC-PVTZ
  Basis Set:
  @DF-RHF Final Energy:  -208.04358738492957
    Total Energy =                       -208.0435873849295092
  Basis Set: CC-PVTZ
  Basis Set:
  Basis Set: CC-PVTZ
  Basis Set:
  @DF-RHF Final Energy:  -208.04364295002759
    Total Energy =                       -208.0436429500275040
  Basis Set: CC-PVTZ
  Basis Set:
  Basis Set: CC-PVTZ
  Basis Set:
  @DF-RHF Final Energy:  -208.04366335051901
    Total Energy =                       -208.0436633505190684
  Basis Set: CC-PVTZ
  Basis Set:
  Basis Set: CC-PVTZ
  Basis Set:
  @DF-RHF Final Energy:  -208.04367073272908
    Total Energy =                       -208.0436707327291401
  Basis Set: CC-PVTZ
  Basis Set:
  Charge       = 0
  Multiplicity = 1
  Basis Set: CC-PVTZ
  Basis Set:

    Orbital Energies (a.u.)
    -----------------------

    Doubly Occupied:

       1A    -20.516638     2A    -15.584641     3A    -11.336664
       4A    -11.259990     5A     -1.393986     6A     -1.239587
       7A     -0.969974     8A     -0.808740     9A     -0.748898
      10A     -0.646141    11A     -0.629790    12A     -0.596370
      13A     -0.557932    14A     -0.538956    15A     -0.428503
      16A     -0.396524

  @DF-RHF Final Energy:  -208.04367163978014

   => Energetics <=

    Nuclear Repulsion Energy =            122.8395265081797447
    One-Electron Energy =                -526.4597270131359892
    Two-Electron Energy =                 195.5765288651760443
    DFT Exchange-Correlation Energy =       0.0000000000000000
    Empirical Dispersion Energy =           0.0000000000000000
    PCM Polarization Energy =               0.0000000000000000
    EFP Energy =                            0.0000000000000000
    Total Energy =                       -208.0436716397802002
    Molecular point group: c1
  Basis Set: CC-PVTZ
  Basis Set:

  -Total Gradient:
     Atom            X                  Y                   Z
    ------   -----------------  -----------------  -----------------
       1       -0.000003751865    -0.000001064360     0.000004298881
       2        0.000068065272     0.000047439489    -0.000059226302
       3       -0.000072176567    -0.000092075835     0.000162737553
       4       -0.000014867648     0.000009976424    -0.000010482585
       5        0.000001098568     0.000033502418    -0.000064225276
       6        0.000018623561     0.000008203884    -0.000042908986
       7       -0.000013884741    -0.000014962127     0.000009886665
       8       -0.000002380911    -0.000006663172    -0.000019121069
       9        0.000019274328     0.000015643278     0.000019041119

  **** Optimization is complete! (in 7 steps) ****
    Final optimized geometry and variables:
    Molecular point group: c1

    Geometry (in Angstrom), charge = 0, multiplicity = 1:

    H            1.258290247489    -1.459246249701    -0.049242398397
    C            0.397236377118    -0.794410776423    -0.140469876151
    N            0.628645765786     0.424419286579     0.373037751783
    O           -0.617518548885    -1.143020767517    -0.655603754326
    C           -0.378448887348     1.461014605099     0.409059677444
    H            1.488384723373     0.571729117449     0.840470944413
    H           -0.966974497082     1.419742561508    -0.493741478310
    H            0.106763284654     2.424991568564     0.469430893831
    H           -1.044320152098     1.349184236088     1.256819442769

  Mulliken Charges: (a.u.)
   Center  Symbol    Alpha    Beta     Spin     Total
       1     H     0.46383  0.46383  0.00000  0.07234
       2     C     2.88046  2.88046  0.00000  0.23908
       3     N     3.60639  3.60639  0.00000 -0.21278
       4     O     4.21418  4.21418  0.00000 -0.42837
       5     C     3.07753  3.07753  0.00000 -0.15506
       6     H     0.41022  0.41022  0.00000  0.17956
       7     H     0.43862  0.43862  0.00000  0.12276
       8     H     0.45402  0.45402  0.00000  0.09197
       9     H     0.45475  0.45475  0.00000  0.09051

   Total alpha = 16.00000, Total beta = 16.00000, Total charge = -0.00000
