                              Psi4 1.0.54 Driver

  ==> Input File <==

--------------------------------------------------------------------------
set {
	reference rhf
	basis cc-pvtz
}

set_num_threads( 4 )
memory 2 gb

molecule MOL {
0 1

H	 1.368954	 1.151303	 1.422151
C	 0.467328	 1.267998	 0.838915
O	 0.000000	 0.000000	 0.518769
H	 -0.260164	 1.824299	 1.426402
H	 0.700167	 1.844187	 -0.054196
C	 -1.165153	 0.000000	 -0.236961
H	 -1.229451	 0.882440	 -0.870223
H	 -2.002557	 0.000000	 0.445289
H	 -1.229451	 -0.882440	 -0.870223

	symmetry c1
}
set optking {
	frozen_dihedral = ("
		2 3 6 7
	")
}

ee,wfn = optimize('scf', return_wfn=True)
oeprop( wfn, 'DIPOLE', 'QUADRUPOLE', 'MULLIKEN_CHARGES')
f=open( 'psi4out.xyz', 'w' )
f.write( "9  " )
f.write( str(ee) + "\n" )
f.write( MOL.save_string_xyz() )
f.close()
--------------------------------------------------------------------------

    Molecular point group: c1
  Charge       = 0
  Multiplicity = 1
  Basis Set: CC-PVTZ
  Basis Set:
  @DF-RHF Final Energy:  -154.12452192708201
    Total Energy =                       -154.1245219270820712
    Molecular point group: c1
  Basis Set: CC-PVTZ
  Basis Set:
  Basis Set: CC-PVTZ
  Basis Set:
  @DF-RHF Final Energy:  -154.12515220915051
    Total Energy =                       -154.1251522091504285
  Basis Set: CC-PVTZ
  Basis Set:
  Basis Set: CC-PVTZ
  Basis Set:
  @DF-RHF Final Energy:  -154.12529499879449
    Total Energy =                       -154.1252949987944021
  Basis Set: CC-PVTZ
  Basis Set:
  Charge       = 0
  Multiplicity = 1
  Basis Set: CC-PVTZ
  Basis Set:

    Orbital Energies (a.u.)
    -----------------------

    Doubly Occupied:

       1A    -20.548504     2A    -11.263491     3A    -11.262942
       4A     -1.380332     5A     -0.975845     6A     -0.872784
       7A     -0.661295     8A     -0.655567     9A     -0.646115
      10A     -0.554849    11A     -0.529126    12A     -0.476603
      13A     -0.417200

  @DF-RHF Final Energy:  -154.12529628420626

   => Energetics <=

    Nuclear Repulsion Energy =             84.7252897982884292
    One-Electron Energy =                -377.2118641653868281
    Two-Electron Energy =                 138.3612780828920847
    DFT Exchange-Correlation Energy =       0.0000000000000000
    Empirical Dispersion Energy =           0.0000000000000000
    PCM Polarization Energy =               0.0000000000000000
    EFP Energy =                            0.0000000000000000
    Total Energy =                       -154.1252962842063141
    Molecular point group: c1
  Basis Set: CC-PVTZ
  Basis Set:

  -Total Gradient:
     Atom            X                  Y                   Z
    ------   -----------------  -----------------  -----------------
       1       -0.000024332120    -0.000063667881    -0.000002063980
       2        0.001299171017     0.000092696014    -0.002001506150
       3       -0.002357615822     0.000378704471     0.003309110719
       4       -0.000005972908    -0.000053373177    -0.000007434948
       5        0.000001535359     0.000003956603    -0.000008700695
       6        0.002428345674    -0.001854201312    -0.003393290630
       7       -0.001397059284     0.001494195466     0.002067094222
       8       -0.000000772000    -0.000009896882     0.000007785029
       9        0.000056700083     0.000011586698     0.000029006434

  **** Optimization is complete! (in 4 steps) ****
    Final optimized geometry and variables:
    Molecular point group: c1

    Geometry (in Angstrom), charge = 0, multiplicity = 1:

    H            1.589814567821     0.693261779977     1.100602376398
    C            0.712269349288     0.827920684830     0.484856151980
    O            0.225372995307    -0.432097266868     0.161094977460
    H           -0.017087495135     1.411537478414     1.043313186649
    H            0.991123486208     1.386709102292    -0.405442119133
    C           -0.918002965435    -0.434156032043    -0.632470145505
    H           -0.957137595425     0.434722426049    -1.283800579796
    H           -1.816251160102    -0.425140401216    -0.019304945931
    H           -0.917659866088    -1.331881457477    -1.234447581996

  Mulliken Charges: (a.u.)
   Center  Symbol    Alpha    Beta     Spin     Total
       1     H     0.44914  0.44914  0.00000  0.10171
       2     C     3.02153  3.02153  0.00000 -0.04305
       3     O     4.17012  4.17012  0.00000 -0.34024
       4     H     0.47370  0.47370  0.00000  0.05260
       5     H     0.47216  0.47216  0.00000  0.05568
       6     C     3.01904  3.01904  0.00000 -0.03809
       7     H     0.47555  0.47555  0.00000  0.04891
       8     H     0.46700  0.46700  0.00000  0.06600
       9     H     0.45176  0.45176  0.00000  0.09649

   Total alpha = 13.00000, Total beta = 13.00000, Total charge =  0.00000

*** Psi4 exiting successfully. Buy a developer a beer!
