  ==> Input File <==

--------------------------------------------------------------------------
set {
	reference rhf
	basis 6-31G*
}

set_num_threads( 1 )
memory 2 gb

molecule MOL {
0 1

H	 3.463771	 0.168298	 -0.756243
C	 2.752674	 -0.045734	 0.033351
C	 1.322923	 0.120767	 -0.479465
H	 2.934561	 -1.059086	 0.377456
H	 2.958358	 0.631174	 0.856809
C	 0.306652	 -0.176050	 0.621399
H	 1.144658	 -0.551717	 -1.312180
H	 1.166477	 1.131798	 -0.836680
N	 -1.068537	 -0.011044	 0.085269
H	 0.372515	 -1.192590	 0.973735
H	 0.391664	 0.520566	 1.441230
O	 -1.227352	 0.784137	 -0.788710
O	 -1.928508	 -0.665844	 0.590948

	symmetry c1
}
set optking {
	frozen_dihedral = ("
		7 3 6 9
	")
}

ee = energy('scf')
oeprop('DIPOLE', 'QUADRUPOLE', 'MULLIKEN_CHARGES')
f=open( 'psi4out.xyz', 'w' )
f.write( "13  " )
f.write( str(ee) + "\n" )
f.write( MOL.save_string_xyz() )
f.close()
--------------------------------------------------------------------------

    Molecular point group: c1

    Geometry (in Angstrom), charge = 0, multiplicity = 1:

       Center              X                  Y                   Z               Mass
    ------------   -----------------  -----------------  -----------------  -----------------
           H          3.467412207887     0.166378527826    -0.766172642694     1.007825032070
           C          2.756315207887    -0.047653472174     0.023421357306    12.000000000000
           C          1.326564207887     0.118847527826    -0.489394642694    12.000000000000
           H          2.938202207887    -1.061005472174     0.367526357306     1.007825032070
           H          2.961999207887     0.629254527826     0.846879357306     1.007825032070
           C          0.310293207887    -0.177969472174     0.611469357306    12.000000000000
           H          1.148299207887    -0.553636472174    -1.322109642694     1.007825032070
           H          1.170118207887     1.129878527826    -0.846609642694     1.007825032070
           N         -1.064895792113    -0.012963472174     0.075339357306    14.003074004780
           H          0.376156207887    -1.194509472174     0.963805357306     1.007825032070
           H          0.395305207887     0.518646527826     1.431300357306     1.007825032070
           O         -1.223710792113     0.782217527826    -0.798639642694    15.994914619560
           O         -1.924866792113    -0.667763472174     0.581018357306    15.994914619560

  Charge       = 0
  Multiplicity = 1
  Basis Set: 6-31G*
  Basis Set:

    Orbital Energies (a.u.)
    -----------------------

    Doubly Occupied:

       1A    -20.602535     2A    -20.601340     3A    -15.848620
       4A    -11.300260     5A    -11.248618     6A    -11.235796
       7A     -1.632076     8A     -1.417854     9A     -1.133885
      10A     -1.026118    11A     -0.882647    12A     -0.826018
      13A     -0.762044    14A     -0.746869    15A     -0.726175
      16A     -0.659947    17A     -0.604661    18A     -0.581739
      19A     -0.549835    20A     -0.519630    21A     -0.510660
      22A     -0.484309    23A     -0.472757    24A     -0.449602

  @DF-RHF Final Energy:  -321.73408529875104

   => Energetics <=

    Nuclear Repulsion Energy =            248.0083127218347840
    One-Electron Energy =                -929.8368566175417982
    Two-Electron Energy =                 360.0944585969556329
    DFT Exchange-Correlation Energy =       0.0000000000000000
    Empirical Dispersion Energy =           0.0000000000000000
    PCM Polarization Energy =               0.0000000000000000
    EFP Energy =                            0.0000000000000000
    Total Energy =                       -321.7340852987514381

  Mulliken Charges: (a.u.)
   Center  Symbol    Alpha    Beta     Spin     Total
       1     H     0.40814  0.40814  0.00000  0.18372
       2     C     3.24863  3.24863  0.00000 -0.49726
       3     C     3.16900  3.16900  0.00000 -0.33799
       4     H     0.41714  0.41714  0.00000  0.16573
       5     H     0.41701  0.41701  0.00000  0.16597
       6     C     3.09040  3.09040  0.00000 -0.18080
       7     H     0.40629  0.40629  0.00000  0.18743
       8     H     0.39423  0.39423  0.00000  0.21153
       9     N     3.22183  3.22183  0.00000  0.55635
      10     H     0.38578  0.38578  0.00000  0.22844
      11     H     0.38464  0.38464  0.00000  0.23072
      12     O     4.22769  4.22769  0.00000 -0.45539
      13     O     4.22922  4.22922  0.00000 -0.45843

   Total alpha = 24.00000, Total beta = 24.00000, Total charge = -0.00000
