  ==> Input File <==

--------------------------------------------------------------------------
set {
	reference rhf
	basis 6-31G*
}

set_num_threads( 1 )
memory 2 gb

molecule MOL {
0 1

O	 3.889261	 -0.330230	 -0.290258
C	 2.843464	 0.164689	 -0.000222
C	 1.546494	 -0.624492	 -0.000609
C	 2.742930	 1.625040	 0.390193
C	 0.291004	 0.242674	 0.000989
H	 1.557904	 -1.283758	 -0.867573
H	 1.558622	 -1.285963	 0.864672
C	 -0.994322	 -0.586602	 0.000262
H	 0.309117	 0.896430	 -0.865270
H	 0.309661	 0.894078	 0.869017
C	 -2.259874	 0.272531	 0.000494
H	 -1.004862	 -1.240012	 -0.870939
H	 -1.005220	 -1.241071	 0.870675
C	 -3.549786	 -0.549746	 -0.000374
H	 -2.250389	 0.926680	 -0.869574
H	 -2.250838	 0.925513	 0.871430
C	 -4.809590	 0.315458	 -0.000369
H	 -3.560515	 -1.202009	 -0.871156
H	 -3.561123	 -1.202955	 0.869711
H	 -4.844746	 0.956611	 -0.876632
H	 -5.706986	 -0.295590	 -0.001609
H	 -4.845960	 0.954827	 0.877144
H	 2.332550	 1.722394	 1.391058
H	 3.723032	 2.080089	 0.356095
H	 2.074861	 2.152273	 -0.284598

	symmetry c1
}
set optking {
	frozen_dihedral = ("
		9 5 8 12,
		15 11 8 12,
		15 11 14 18,
		9 5 3 6
	")
}

ee = energy('scf')
oeprop('DIPOLE', 'QUADRUPOLE', 'MULLIKEN_CHARGES')
f=open( 'psi4out.xyz', 'w' )
f.write( "25  " )
f.write( str(ee) + "\n" )
f.write( MOL.save_string_xyz() )
f.close()
--------------------------------------------------------------------------

    Molecular point group: c1

    Geometry (in Angstrom), charge = 0, multiplicity = 1:

       Center              X                  Y                   Z               Mass
    ------------   -----------------  -----------------  -----------------  -----------------
           O          3.931151145015    -0.399068239675    -0.302087608464    15.994914619560
           C          2.885354145015     0.095850760325    -0.012051608464    12.000000000000
           C          1.588384145015    -0.693330239675    -0.012438608464    12.000000000000
           C          2.784820145015     1.556201760325     0.378363391536    12.000000000000
           C          0.332894145015     0.173835760325    -0.010840608464    12.000000000000
           H          1.599794145015    -1.352596239675    -0.879402608464     1.007825032070
           H          1.600512145015    -1.354801239675     0.852842391536     1.007825032070
           C         -0.952431854985    -0.655440239675    -0.011567608464    12.000000000000
           H          0.351007145015     0.827591760325    -0.877099608464     1.007825032070
           H          0.351551145015     0.825239760325     0.857187391536     1.007825032070
           C         -2.217983854985     0.203692760325    -0.011335608464    12.000000000000
           H         -0.962971854985    -1.308850239675    -0.882768608464     1.007825032070
           H         -0.963329854985    -1.309909239675     0.858845391536     1.007825032070
           C         -3.507895854985    -0.618584239675    -0.012203608464    12.000000000000
           H         -2.208498854985     0.857841760325    -0.881403608464     1.007825032070
           H         -2.208947854985     0.856674760325     0.859600391536     1.007825032070
           C         -4.767699854985     0.246619760325    -0.012198608464    12.000000000000
           H         -3.518624854985    -1.270847239675    -0.882985608464     1.007825032070
           H         -3.519232854985    -1.271793239675     0.857881391536     1.007825032070
           H         -4.802855854985     0.887772760325    -0.888461608464     1.007825032070
           H         -5.665095854985    -0.364428239675    -0.013438608464     1.007825032070
           H         -4.804069854985     0.885988760325     0.865314391536     1.007825032070
           H          2.374440145015     1.653555760325     1.379228391536     1.007825032070
           H          3.764922145015     2.011250760325     0.344265391536     1.007825032070
           H          2.116751145015     2.083434760325    -0.296427608464     1.007825032070

  Charge       = 0
  Multiplicity = 1
  Basis Set: 6-31G*
  Basis Set:

    Orbital Energies (a.u.)
    -----------------------

    Doubly Occupied:

       1A    -20.546731     2A    -11.325433     3A    -11.230996
       4A    -11.230210     5A    -11.225773     6A    -11.224741
       7A    -11.220982     8A    -11.220338     9A    -11.212926
      10A     -1.392493    11A     -1.104270    12A     -1.064341
      13A     -1.009860    14A     -0.969987    15A     -0.898658
      16A     -0.823389    17A     -0.798155    18A     -0.731400
      19A     -0.669590    20A     -0.650514    21A     -0.636252
      22A     -0.625484    23A     -0.596075    24A     -0.590558
      25A     -0.563278    26A     -0.558275    27A     -0.546794
      28A     -0.532271    29A     -0.524725    30A     -0.499257
      31A     -0.491666    32A     -0.471250    33A     -0.469960
      34A     -0.468032    35A     -0.459537    36A     -0.395378

  @DF-RHF Final Energy:  -387.13004520383032

   => Energetics <=

    Nuclear Repulsion Energy =            440.8039361793965440
    One-Electron Energy =               -1397.9088637018091958
    Two-Electron Energy =                 569.9748823185824449
    DFT Exchange-Correlation Energy =       0.0000000000000000
    Empirical Dispersion Energy =           0.0000000000000000
    PCM Polarization Energy =               0.0000000000000000
    EFP Energy =                            0.0000000000000000
    Total Energy =                       -387.1300452038302637

  Mulliken Charges: (a.u.)
   Center  Symbol    Alpha    Beta     Spin     Total
       1     O     4.26334  4.26334  0.00000 -0.52668
       2     C     2.73109  2.73109  0.00000  0.53783
       3     C     3.20683  3.20683  0.00000 -0.41366
       4     C     3.29609  3.29609  0.00000 -0.59217
       5     C     3.16591  3.16591  0.00000 -0.33183
       6     H     0.39965  0.39965  0.00000  0.20070
       7     H     0.40197  0.40197  0.00000  0.19606
       8     C     3.15154  3.15154  0.00000 -0.30307
       9     H     0.41808  0.41808  0.00000  0.16383
      10     H     0.41821  0.41821  0.00000  0.16358
      11     C     3.15101  3.15101  0.00000 -0.30203
      12     H     0.42052  0.42052  0.00000  0.15896
      13     H     0.42160  0.42160  0.00000  0.15680
      14     C     3.15200  3.15200  0.00000 -0.30400
      15     H     0.42324  0.42324  0.00000  0.15351
      16     H     0.42364  0.42364  0.00000  0.15272
      17     C     3.23956  3.23956  0.00000 -0.47913
      18     H     0.42214  0.42214  0.00000  0.15573
      19     H     0.42244  0.42244  0.00000  0.15512
      20     H     0.42138  0.42138  0.00000  0.15724
      21     H     0.41828  0.41828  0.00000  0.16343
      22     H     0.42156  0.42156  0.00000  0.15688
      23     H     0.40786  0.40786  0.00000  0.18428
      24     H     0.39579  0.39579  0.00000  0.20841
      25     H     0.40626  0.40626  0.00000  0.18747

   Total alpha = 36.00000, Total beta = 36.00000, Total charge = -0.00000
