  ==> Input File <==

--------------------------------------------------------------------------
set {
	reference rhf
	basis cc-pvtz
}

set_num_threads( 4 )
memory 2 gb

molecule MOL {
0 1

H	 -2.319302	 -1.714294	 -1.642443
N	 -1.409636	 -1.705817	 -1.233169
C	 -1.380845	 -0.873763	 -0.044473
H	 -0.774952	 -1.348724	 -1.915560
C	 0.004407	 -0.861060	 0.560148
H	 -1.684655	 0.155926	 -0.228817
H	 -2.065820	 -1.288982	 0.686590
O	 0.881195	 -0.248324	 -0.336237
H	 -0.008716	 -0.315417	 1.502631
H	 0.324848	 -1.880810	 0.761031
C	 2.208068	 -0.234417	 0.074171
H	 2.725499	 -1.027054	 -0.446768
H	 2.688377	 0.712084	 -0.164856
H	 2.295137	 -0.403407	 1.144883

	symmetry c1
}
set optking {
	frozen_dihedral = ("
		5 8 11 13
	")
}

ee = optimize('scf')
oeprop('DIPOLE', 'QUADRUPOLE', 'MULLIKEN_CHARGES')
f=open( 'psi4out.xyz', 'w' )
f.write( "14  " )
f.write( str(ee) + "\n" )
f.write( MOL.save_string_xyz() )
f.close()
--------------------------------------------------------------------------

    Molecular point group: c1
  Charge       = 0
  Multiplicity = 1
  Basis Set: CC-PVTZ
  Basis Set:
  @DF-RHF Final Energy:  -248.22273311390069
    Total Energy =                       -248.2227331139006878
    Molecular point group: c1
  Basis Set: CC-PVTZ
  Basis Set:
  Basis Set: CC-PVTZ
  Basis Set:
  @DF-RHF Final Energy:  -248.22338580595809
    Total Energy =                       -248.2233858059579461
  Basis Set: CC-PVTZ
  Basis Set:
  Basis Set: CC-PVTZ
  Basis Set:
  @DF-RHF Final Energy:  -248.22351093107414
    Total Energy =                       -248.2235109310738608
  Basis Set: CC-PVTZ
  Basis Set:
  Charge       = 0
  Multiplicity = 1
  Basis Set: CC-PVTZ
  Basis Set:

    Orbital Energies (a.u.)
    -----------------------

    Doubly Occupied:

       1A    -20.548078     2A    -15.523231     3A    -11.264279
       4A    -11.263301     5A    -11.239480     6A     -1.380905
       7A     -1.175642     8A     -1.000391     9A     -0.907842
      10A     -0.815441    11A     -0.684537    12A     -0.674247
      13A     -0.645039    14A     -0.611551    15A     -0.607626
      16A     -0.540901    17A     -0.535381    18A     -0.496568
      19A     -0.473600    20A     -0.416344    21A     -0.383606

  @DF-RHF Final Energy:  -248.22351136303513

   => Energetics <=

    Nuclear Repulsion Energy =            194.4790228965214851
    One-Electron Energy =                -723.0290919163358012
    Two-Electron Energy =                 280.3265576567789594
    DFT Exchange-Correlation Energy =       0.0000000000000000
    Empirical Dispersion Energy =           0.0000000000000000
    PCM Polarization Energy =               0.0000000000000000
    EFP Energy =                            0.0000000000000000
    Total Energy =                       -248.2235113630354135
    Molecular point group: c1
  Basis Set: CC-PVTZ
  Basis Set:

  -Total Gradient:
     Atom            X                  Y                   Z
    ------   -----------------  -----------------  -----------------
       1        0.000006242107     0.000001993641    -0.000012335035
       2       -0.000007040303     0.000006161752    -0.000009133304
       3       -0.000002712175    -0.000069219810     0.000026885711
       4       -0.000001264402     0.000007566427    -0.000016559001
       5       -0.000346702931     0.001909140619     0.000996654255
       6        0.000034020114    -0.000019604199     0.000007986044
       7       -0.000023219626    -0.000004602936     0.000010583131
       8        0.000356341250    -0.002366774315    -0.000833147339
       9       -0.000004675524    -0.000021462514     0.000031854996
      10        0.000001726581     0.000033786216    -0.000047822154
      11        0.000693242909    -0.000391831007    -0.002354200616
      12        0.000002396828    -0.000000768793    -0.000012765508
      13       -0.000691541009     0.000912202841     0.002213245810
      14       -0.000016813818     0.000003412080    -0.000001246990

  **** Optimization is complete! (in 4 steps) ****
    Final optimized geometry and variables:
    Molecular point group: c1

    Geometry (in Angstrom), charge = 0, multiplicity = 1:

    H           -2.394255336826    -0.913627823389    -1.440593009233
    N           -1.486187026077    -0.912348306967    -1.027735183229
    C           -1.457489598469    -0.087273988223     0.165793519083
    H           -0.847261133522    -0.554099800322    -1.705537253983
    C           -0.075560342963    -0.087616304304     0.777900705540
    H           -1.752155341712     0.945763099769    -0.014685544095
    H           -2.149456801459    -0.501026286325     0.891241750708
    O            0.808168425346     0.523675261179    -0.114290319327
    H           -0.089453264403     0.455420514625     1.721089964406
    H            0.232396386171    -1.111360088060     0.976649075454
    C            2.145831974945     0.542042127809     0.275580901613
    H            2.705197577880    -0.249127362109    -0.213436180029
    H            2.571962955298     1.501059117763     0.011358888909
    H            2.250117986033     0.420765151485     1.349795186527

  Mulliken Charges: (a.u.)
   Center  Symbol    Alpha    Beta     Spin     Total
       1     H     0.43032  0.43032  0.00000  0.13936
       2     N     3.69424  3.69424  0.00000 -0.38848
       3     C     3.02390  3.02390  0.00000 -0.04779
       4     H     0.42225  0.42225  0.00000  0.15549
       5     C     2.96752  2.96752  0.00000  0.06497
       6     H     0.46482  0.46482  0.00000  0.07037
       7     H     0.45873  0.45873  0.00000  0.08253
       8     O     4.18358  4.18358  0.00000 -0.36715
       9     H     0.46923  0.46923  0.00000  0.06154
      10     H     0.46952  0.46952  0.00000  0.06095
      11     C     3.02821  3.02821  0.00000 -0.05642
      12     H     0.46105  0.46105  0.00000  0.07791
      13     H     0.45405  0.45405  0.00000  0.09191
      14     H     0.47259  0.47259  0.00000  0.05482

   Total alpha = 21.00000, Total beta = 21.00000, Total charge = -0.00000
