                              Psi4 1.0.54 Driver

  ==> Input File <==

--------------------------------------------------------------------------
set {
	reference rhf
	basis cc-pvtz
}

set_num_threads( 4 )
memory 2 gb

molecule MOL {
0 1

H	 -4.096534	 0.566897	 -0.558421
C	 -3.331669	 0.138776	 0.056397
C	 -2.185659	 -0.199349	 -0.481822
H	 -3.524985	 -0.000635	 1.101860
O	 -1.189946	 -0.765863	 0.237511
H	 -1.978229	 -0.056276	 -1.526633
C	 0.026572	 -0.995256	 -0.379403
C	 1.057223	 0.049888	 -0.004615
H	 -0.054361	 -1.010670	 -1.459674
H	 0.397526	 -1.952058	 -0.044198
F	 2.203233	 -0.234060	 -0.590375
F	 0.698147	 1.254887	 -0.392621
F	 1.266440	 0.094219	 1.288722

	symmetry c1
}
set optking {
	frozen_dihedral = ("
		3 5 7 9
	")
}

ee,wfn = optimize('scf', return_wfn=True)
oeprop( wfn, 'DIPOLE', 'QUADRUPOLE', 'MULLIKEN_CHARGES')
f=open( 'psi4out.xyz', 'w' )
f.write( "13  " )
f.write( str(ee) + "\n" )
f.write( MOL.save_string_xyz() )
f.close()
--------------------------------------------------------------------------

    Molecular point group: c1
  Charge       = 0
  Multiplicity = 1
  Basis Set: CC-PVTZ
  Basis Set:
  @DF-RHF Final Energy:  -527.74179105867063
    Total Energy =                       -527.7417910586707421
    Molecular point group: c1
  Basis Set: CC-PVTZ
  Basis Set:
  Basis Set: CC-PVTZ
  Basis Set:
  @DF-RHF Final Energy:  -527.74186058988187
    Total Energy =                       -527.7418605898817532
  Basis Set: CC-PVTZ
  Basis Set:
  Basis Set: CC-PVTZ
  Basis Set:
  @DF-RHF Final Energy:  -527.74188341167712
    Total Energy =                       -527.7418834116770086
  Basis Set: CC-PVTZ
  Basis Set:
  Basis Set: CC-PVTZ
  Basis Set:
  @DF-RHF Final Energy:  -527.74189363129699
    Total Energy =                       -527.7418936312972164
  Basis Set: CC-PVTZ
  Basis Set:
  Basis Set: CC-PVTZ
  Basis Set:
  @DF-RHF Final Energy:  -527.74189709190773
    Total Energy =                       -527.7418970919079584
  Basis Set: CC-PVTZ
  Basis Set:
  Basis Set: CC-PVTZ
  Basis Set:
  @DF-RHF Final Energy:  -527.74190091374317
    Total Energy =                       -527.7419009137429384
  Basis Set: CC-PVTZ
  Basis Set:
  Basis Set: CC-PVTZ
  Basis Set:
  @DF-RHF Final Energy:  -527.74190224018457
    Total Energy =                       -527.7419022401850270
  Basis Set: CC-PVTZ
  Basis Set:
  Charge       = 0
  Multiplicity = 1
  Basis Set: CC-PVTZ
  Basis Set:

    Orbital Energies (a.u.)
    -----------------------

    Doubly Occupied:

       1A    -26.341492     2A    -26.339757     3A    -26.337599
       4A    -20.604069     5A    -11.497358     6A    -11.320350
       7A    -11.299626     8A    -11.214125     9A     -1.749929
      10A     -1.646465    11A     -1.644841    12A     -1.444959
      13A     -1.089131    14A     -1.020328    15A     -0.931858
      16A     -0.844019    17A     -0.839311    18A     -0.824127
      19A     -0.800862    20A     -0.729307    21A     -0.719210
      22A     -0.704884    23A     -0.682161    24A     -0.667371
      25A     -0.661159    26A     -0.650411    27A     -0.638918
      28A     -0.588334    29A     -0.566378    30A     -0.530330
      31A     -0.518839    32A     -0.356604

  @DF-RHF Final Energy:  -527.74190241681504

   => Energetics <=

    Nuclear Repulsion Energy =            412.1551156902686444
    One-Electron Energy =               -1548.1858024128866873
    Two-Electron Energy =                 608.2887843058031194
    DFT Exchange-Correlation Energy =       0.0000000000000000
    Empirical Dispersion Energy =           0.0000000000000000
    PCM Polarization Energy =               0.0000000000000000
    EFP Energy =                            0.0000000000000000
    Total Energy =                       -527.7419024168150372
    Molecular point group: c1
  Basis Set: CC-PVTZ
  Basis Set:

  -Total Gradient:
     Atom            X                  Y                   Z
    ------   -----------------  -----------------  -----------------
       1       -0.000008928432    -0.000003773341    -0.000002081443
       2        0.000006368978    -0.000005516222     0.000002380234
       3       -0.000265974218    -0.000600571663    -0.000200928564
       4        0.000000249135     0.000003568810    -0.000010420374
       5        0.000370257423     0.001185986370     0.000296079585
       6       -0.000005045071    -0.000009991354     0.000005267176
       7       -0.000283408872    -0.001391999773    -0.000067228037
       8        0.000079304423    -0.000105144598     0.000012076885
       9        0.000156189850     0.000833713017    -0.000016575756
      10        0.000007668259     0.000006633936    -0.000001572355
      11       -0.000031818007     0.000031353534     0.000011079694
      12       -0.000016300745     0.000047295697    -0.000018972088
      13       -0.000008562720     0.000008445589    -0.000009104956

  **** Optimization is complete! (in 8 steps) ****
    Final optimized geometry and variables:
    Molecular point group: c1

    Geometry (in Angstrom), charge = 0, multiplicity = 1:

    H           -4.081676964417     0.568640677372    -0.588655764863
    C           -3.337072831076     0.109425170071     0.028599662622
    C           -2.145565181891    -0.124201187646    -0.465004459468
    H           -3.586360300116    -0.142590132166     1.040573624827
    O           -1.163648421428    -0.702560486258     0.261743322962
    H           -1.884194259025     0.132179689053    -1.475549170204
    C            0.053988918102    -0.957434748877    -0.343995507863
    C            1.076216734103     0.097153999161     0.024696449359
    H           -0.017099546118    -0.979003352239    -1.424215824376
    H            0.422778809164    -1.911092124546     0.003918305057
    F            2.227749702796    -0.184354902750    -0.551402029412
    F            0.707738641776     1.293384605416    -0.380431492091
    F            1.278537900603     0.158876240749     1.318441634069

  Mulliken Charges: (a.u.)
   Center  Symbol    Alpha    Beta     Spin     Total
       1     H     0.42500  0.42500  0.00000  0.15001
       2     C     3.19853  3.19853  0.00000 -0.39706
       3     C     2.95900  2.95900  0.00000  0.08201
       4     H     0.42474  0.42474  0.00000  0.15051
       5     O     4.14443  4.14443  0.00000 -0.28885
       6     H     0.43499  0.43499  0.00000  0.13001
       7     C     3.01561  3.01561  0.00000 -0.03123
       8     C     2.67539  2.67539  0.00000  0.64922
       9     H     0.45607  0.45607  0.00000  0.08786
      10     H     0.43653  0.43653  0.00000  0.12695
      11     F     4.61277  4.61277  0.00000 -0.22554
      12     F     4.61030  4.61030  0.00000 -0.22059
      13     F     4.60665  4.60665  0.00000 -0.21329

   Total alpha = 32.00000, Total beta = 32.00000, Total charge = -0.00000

*** Psi4 exiting successfully. Buy a developer a beer!
