  ==> Input File <==

--------------------------------------------------------------------------
set {
	reference rhf
	basis 6-31G*
}

set_num_threads( 4 )
memory 2 gb

molecule MOL {
0 1

O	 0.927333	 0.961857	 -0.775111
C	 0.576249	 0.131685	 -0.000108
C	 -0.766779	 -0.556801	 -0.000461
O	 1.341591	 -0.307333	 0.990941
C	 -1.945214	 0.412366	 0.000161
H	 -0.796911	 -1.211249	 -0.867467
H	 -0.796854	 -1.212390	 0.865687
C	 -3.287791	 -0.317055	 0.000105
H	 -1.876087	 1.060580	 -0.866812
H	 -1.875822	 1.059691	 0.867761
H	 -3.394745	 -0.949193	 -0.877058
H	 -4.111778	 0.388953	 0.000015
H	 -3.394954	 -0.949187	 0.877259
C	 2.634006	 0.260060	 1.104679
H	 3.212005	 0.070751	 0.211582
H	 3.092670	 -0.219044	 1.955533
H	 2.568065	 1.326461	 1.265768

	symmetry c1
}
set optking {
	frozen_dihedral = ("
		1 2 3 6
	")
}

ee = optimize('scf')
oeprop('DIPOLE', 'QUADRUPOLE', 'MULLIKEN_CHARGES')
f=open( 'psi4out.xyz', 'w' )
f.write( "17  " )
f.write( str(ee) + "\n" )
f.write( MOL.save_string_xyz() )
f.close()
--------------------------------------------------------------------------

    Molecular point group: c1
  Charge       = 0
  Multiplicity = 1
  Basis Set: 6-31G*
  Basis Set:
  @DF-RHF Final Energy:  -344.90494648337301
    Total Energy =                       -344.9049464833726120
    Molecular point group: c1
  Basis Set: 6-31G*
  Basis Set:
  Basis Set: 6-31G*
  Basis Set:
  @DF-RHF Final Energy:  -344.90549570863681
    Total Energy =                       -344.9054957086366358
  Basis Set: 6-31G*
  Basis Set:
  Basis Set: 6-31G*
  Basis Set:
  @DF-RHF Final Energy:  -344.90472606744834
    Total Energy =                       -344.9047260674483368
  Basis Set: 6-31G*
  Basis Set:
  Basis Set: 6-31G*
  Basis Set:
  @DF-RHF Final Energy:  -344.90558091812193
    Total Energy =                       -344.9055809181218137
  Basis Set: 6-31G*
  Basis Set:
  Basis Set: 6-31G*
  Basis Set:
  @DF-RHF Final Energy:  -344.90558256588469
    Total Energy =                       -344.9055825658846857
  Basis Set: 6-31G*
  Basis Set:
  Charge       = 0
  Multiplicity = 1
  Basis Set: 6-31G*
  Basis Set:

    Orbital Energies (a.u.)
    -----------------------

    Doubly Occupied:

       1A    -20.606328     2A    -20.543006     3A    -11.372191
       4A    -11.281147     5A    -11.234752     6A    -11.226927
       7A    -11.216285     8A     -1.470185     9A     -1.362045
      10A     -1.081391    11A     -1.000782    12A     -0.941193
      13A     -0.828100    14A     -0.771072    15A     -0.699099
      16A     -0.681315    17A     -0.672644    18A     -0.636689
      19A     -0.594493    20A     -0.581049    21A     -0.562062
      22A     -0.533178    23A     -0.524802    24A     -0.501644
      25A     -0.484796    26A     -0.481047    27A     -0.455087
      28A     -0.435329

  @DF-RHF Final Energy:  -344.90558321778803

   => Energetics <=

    Nuclear Repulsion Energy =            312.7161733497891873
    One-Electron Energy =               -1089.6862380693114574
    Two-Electron Energy =                 432.0644815017339511
    DFT Exchange-Correlation Energy =       0.0000000000000000
    Empirical Dispersion Energy =           0.0000000000000000
    PCM Polarization Energy =               0.0000000000000000
    EFP Energy =                            0.0000000000000000
    Total Energy =                       -344.9055832177883190
    Molecular point group: c1
  Basis Set: 6-31G*
  Basis Set:

  -Total Gradient:
     Atom            X                  Y                   Z
    ------   -----------------  -----------------  -----------------
       1        0.000312148447    -0.000647075183    -0.000474974825
       2       -0.000546894723     0.001062054939     0.000600816981
       3        0.000567830493    -0.001036930334     0.000300414393
       4        0.000006328292    -0.000007669595     0.000000072749
       5       -0.000005230539     0.000038729720     0.000009991741
       6       -0.000325618793     0.000622171554    -0.000423380243
       7       -0.000000757385     0.000001254326     0.000009131028
       8        0.000002793941    -0.000015459090    -0.000021005419
       9       -0.000007767674     0.000000156059     0.000010302252
      10        0.000013595130    -0.000012533468    -0.000007404973
      11       -0.000002651110    -0.000011804599     0.000003047785
      12        0.000007005821     0.000006258259    -0.000005400740
      13        0.000001016582     0.000008883934     0.000003698126
      14       -0.000041454560    -0.000024095165    -0.000009497750
      15        0.000006251527     0.000002695577    -0.000000813172
      16        0.000011146887     0.000006210796     0.000002795955
      17        0.000002257663     0.000007152269     0.000002206117

  **** Optimization is complete! (in 6 steps) ****
    Final optimized geometry and variables:
    Molecular point group: c1

    Geometry (in Angstrom), charge = 0, multiplicity = 1:

    O            0.912498776712     0.886926004628    -0.930969674502
    C            0.609444309983     0.039519144167    -0.152674203021
    C           -0.724978833304    -0.667649085023    -0.142110770172
    O            1.425536900085    -0.400867517502     0.793565643813
    C           -1.896839164987     0.318110528030    -0.197977793593
    H           -0.747315601311    -1.302240783621    -1.024351580620
    H           -0.789967670938    -1.308547326033     0.727807155537
    C           -3.245751029707    -0.395189245689    -0.265023390053
    H           -1.771527743650     0.962480988785    -1.060107790948
    H           -1.868563185491     0.960352321464     0.678521604799
    H           -3.314980253147    -1.021620433813    -1.149802864192
    H           -4.060404207902     0.320616861298    -0.302380323612
    H           -3.401852560587    -1.029315248588     0.602974712358
    C            2.715985668931     0.180649908801     0.849061515064
    H            3.249272660838     0.009516726501    -0.074866516489
    H            3.222520077921    -0.303507125582     1.669343282318
    H            2.645309770397     1.243994272325     1.026763946109

  Mulliken Charges: (a.u.)
   Center  Symbol    Alpha    Beta     Spin     Total
       1     O     4.28704  4.28704  0.00000 -0.57407
       2     C     2.60710  2.60710  0.00000  0.78579
       3     C     3.20456  3.20456  0.00000 -0.40911
       4     O     4.30422  4.30422  0.00000 -0.60844
       5     C     3.16010  3.16010  0.00000 -0.32020
       6     H     0.40113  0.40113  0.00000  0.19774
       7     H     0.40062  0.40062  0.00000  0.19876
       8     C     3.24172  3.24172  0.00000 -0.48344
       9     H     0.40249  0.40249  0.00000  0.19502
      10     H     0.41675  0.41675  0.00000  0.16651
      11     H     0.41971  0.41971  0.00000  0.16059
      12     H     0.41514  0.41514  0.00000  0.16971
      13     H     0.42049  0.42049  0.00000  0.15903
      14     C     3.09367  3.09367  0.00000 -0.18733
      15     H     0.40856  0.40856  0.00000  0.18289
      16     H     0.40831  0.40831  0.00000  0.18338
      17     H     0.40840  0.40840  0.00000  0.18319

   Total alpha = 28.00000, Total beta = 28.00000, Total charge =  0.00000
