  ==> Input File <==

--------------------------------------------------------------------------
set {
	reference rhf
	basis 6-31G*
}

set_num_threads( 4 )
memory 2 gb

molecule MOL {
0 1

O	 1.214157	 1.307779	 0.031442
C	 1.120440	 0.124367	 0.093037
C	 -0.171726	 -0.655503	 0.090780
O	 2.169595	 -0.684134	 0.174125
C	 -1.412532	 0.227344	 -0.000452
H	 -0.126007	 -1.357118	 -0.737713
H	 -0.186017	 -1.262831	 0.991725
C	 -2.706999	 -0.587347	 -0.000541
H	 -1.357465	 0.830953	 -0.901079
H	 -1.417305	 0.925750	 0.830638
C	 -3.956778	 0.291888	 0.000910
H	 -2.726114	 -1.239230	 -0.871609
H	 -2.725217	 -1.240844	 0.869333
H	 -3.985213	 0.933254	 -0.875158
H	 -4.860123	 -0.309979	 0.000519
H	 -3.984618	 0.931166	 0.878514
C	 3.449053	 -0.077502	 0.185352
H	 3.610735	 0.485345	 -0.722694
H	 4.158858	 -0.886998	 0.254943
H	 3.549236	 0.582531	 1.034956

	symmetry c1
}
set optking {
	frozen_dihedral = ("
		9 5 8 12
	")
}

ee = optimize('scf')
oeprop('DIPOLE', 'QUADRUPOLE', 'MULLIKEN_CHARGES')
f=open( 'psi4out.xyz', 'w' )
f.write( "20  " )
f.write( str(ee) + "\n" )
f.write( MOL.save_string_xyz() )
f.close()
--------------------------------------------------------------------------

    Molecular point group: c1
  Charge       = 0
  Multiplicity = 1
  Basis Set: 6-31G*
  Basis Set:
  @DF-RHF Final Energy:  -383.94153595682911
    Total Energy =                       -383.9415359568291706
    Molecular point group: c1
  Basis Set: 6-31G*
  Basis Set:
  Basis Set: 6-31G*
  Basis Set:
  @DF-RHF Final Energy:  -383.94154202691811
    Total Energy =                       -383.9415420269184551
  Basis Set: 6-31G*
  Basis Set:
  Basis Set: 6-31G*
  Basis Set:
  @DF-RHF Final Energy:  -383.94154504370954
    Total Energy =                       -383.9415450437094250
  Basis Set: 6-31G*
  Basis Set:
  Basis Set: 6-31G*
  Basis Set:
  @DF-RHF Final Energy:  -383.94153590045960
    Total Energy =                       -383.9415359004598258
  Basis Set: 6-31G*
  Basis Set:
  Basis Set: 6-31G*
  Basis Set:
  @DF-RHF Final Energy:  -383.94154577047772
    Total Energy =                       -383.9415457704778873
  Basis Set: 6-31G*
  Basis Set:
  Charge       = 0
  Multiplicity = 1
  Basis Set: 6-31G*
  Basis Set:

    Orbital Energies (a.u.)
    -----------------------

    Doubly Occupied:

       1A    -20.603750     2A    -20.545562     3A    -11.372406
       4A    -11.280938     5A    -11.235683     6A    -11.220368
       7A    -11.219400     8A    -11.210627     9A     -1.469451
      10A     -1.362906    11A     -1.088759    12A     -1.024405
      13A     -0.969125    14A     -0.885808    15A     -0.803986
      16A     -0.767584    17A     -0.696812    18A     -0.683834
      19A     -0.671990    20A     -0.646313    21A     -0.597485
      22A     -0.592230    23A     -0.578794    24A     -0.539321
      25A     -0.537354    26A     -0.522767    27A     -0.500806
      28A     -0.477910    29A     -0.473420    30A     -0.470993
      31A     -0.455833    32A     -0.437031

  @DF-RHF Final Energy:  -383.94154578758440

   => Energetics <=

    Nuclear Repulsion Energy =            381.0753436523902451
    One-Electron Energy =               -1278.1464776645084385
    Two-Electron Energy =                 513.1295882245340181
    DFT Exchange-Correlation Energy =       0.0000000000000000
    Empirical Dispersion Energy =           0.0000000000000000
    PCM Polarization Energy =               0.0000000000000000
    EFP Energy =                            0.0000000000000000
    Total Energy =                       -383.9415457875841184
    Molecular point group: c1
  Basis Set: 6-31G*
  Basis Set:

  -Total Gradient:
     Atom            X                  Y                   Z
    ------   -----------------  -----------------  -----------------
       1       -0.000000368001    -0.000000035175    -0.000002471690
       2        0.000001965367    -0.000000208732     0.000011206728
       3       -0.000001946609     0.000000745181    -0.000002407468
       4       -0.000001203950    -0.000000590817    -0.000004017888
       5       -0.000521471408     0.000821765805     0.000339667848
       6       -0.000000806438    -0.000000524666     0.000001351183
       7        0.000004183423    -0.000002062894     0.000001846336
       8        0.000503883958    -0.000800644690     0.000403231337
       9        0.000351429299    -0.000559223740    -0.000355207884
      10        0.000001157238    -0.000002342775    -0.000000408226
      11        0.000001814342    -0.000001391965     0.000003651952
      12       -0.000334943373     0.000537456996    -0.000396478562
      13        0.000000282445     0.000003275191    -0.000000587465
      14        0.000000807425     0.000000747855     0.000000252827
      15       -0.000001265766     0.000000506117    -0.000000997888
      16       -0.000003946440     0.000002173934     0.000001134546
      17        0.000000763751     0.000000528872     0.000000403518
      18       -0.000000096121    -0.000000033684    -0.000000068654
      19       -0.000000105338    -0.000000088867    -0.000000097439
      20       -0.000000133806    -0.000000051949    -0.000000003112

  **** Optimization is complete! (in 6 steps) ****
    Final optimized geometry and variables:
    Molecular point group: c1

    Geometry (in Angstrom), charge = 0, multiplicity = 1:

    O            1.215564466976     1.305857725947    -0.042584947814
    C            1.121695957181     0.122550620993     0.020888260250
    C           -0.170742212233    -0.656867793506     0.024787871309
    O            2.170950510610    -0.686194635713     0.098654126769
    C           -1.411901376836     0.226535143486    -0.061444475829
    H           -0.129037123963    -1.358923724967    -0.803611505563
    H           -0.181104193085    -1.263794060053     0.926005692556
    C           -2.705307630929    -0.590007205373    -0.069740500907
    H           -1.354512513690     0.831789107842    -0.960711523981
    H           -1.416987222219     0.920212522116     0.773470426020
    C           -3.955550257142     0.289009025764    -0.081494150180
    H           -2.717695345580    -1.239181987245    -0.942849599017
    H           -2.732001456074    -1.242871160132     0.800221187512
    H           -3.971882580203     0.934485013683    -0.954895340729
    H           -4.858614914983    -0.313104423064    -0.097609060525
    H           -3.996008046044     0.924175069895     0.798588802731
    C            3.450609086195    -0.079945998658     0.104190406460
    H            3.608785751049     0.482144130950    -0.804954835642
    H            4.160442609528    -0.889613229681     0.171528320807
    H            3.554471808624     0.580724780434     0.952857612592

  Mulliken Charges: (a.u.)
   Center  Symbol    Alpha    Beta     Spin     Total
       1     O     4.28599  4.28599  0.00000 -0.57197
       2     C     2.60527  2.60527  0.00000  0.78947
       3     C     3.20821  3.20821  0.00000 -0.41642
       4     O     4.30722  4.30722  0.00000 -0.61443
       5     C     3.15103  3.15103  0.00000 -0.30205
       6     H     0.40070  0.40070  0.00000  0.19860
       7     H     0.40069  0.40069  0.00000  0.19862
       8     C     3.15427  3.15427  0.00000 -0.30855
       9     H     0.41174  0.41174  0.00000  0.17651
      10     H     0.41207  0.41207  0.00000  0.17586
      11     C     3.23932  3.23932  0.00000 -0.47864
      12     H     0.42269  0.42269  0.00000  0.15462
      13     H     0.42304  0.42304  0.00000  0.15391
      14     H     0.41992  0.41992  0.00000  0.16016
      15     H     0.41879  0.41879  0.00000  0.16242
      16     H     0.42007  0.42007  0.00000  0.15986
      17     C     3.09244  3.09244  0.00000 -0.18489
      18     H     0.40906  0.40906  0.00000  0.18188
      19     H     0.40841  0.40841  0.00000  0.18318
      20     H     0.40906  0.40906  0.00000  0.18189

   Total alpha = 32.00000, Total beta = 32.00000, Total charge = -0.00000
