  ==> Input File <==

--------------------------------------------------------------------------
set {
	reference rhf
	basis 6-31G*
}

set_num_threads( 1 )
memory 2 gb

molecule MOL {
0 1

H	 -2.499100	 -0.730091	 -0.745082
O	 -2.347518	 -0.290803	 0.079804
C	 -1.184022	 0.487508	 -0.006784
C	 0.062599	 -0.378592	 0.031606
H	 -1.176523	 1.099369	 -0.904519
H	 -1.187323	 1.153111	 0.844927
O	 1.171513	 0.459272	 -0.058250
H	 0.050699	 -1.089204	 -0.797170
H	 0.078739	 -0.954914	 0.954740
C	 2.033789	 0.394791	 1.033292
H	 2.442502	 -0.606114	 1.158886
H	 2.845969	 1.084274	 0.849227
H	 1.530230	 0.680104	 1.954604

	symmetry c1
}
set optking {
	frozen_dihedral = ("
		8 4 3 5,
		1 2 3 5,
		4 7 10 13
	")
}

ee = energy('scf')
oeprop('DIPOLE', 'QUADRUPOLE', 'MULLIKEN_CHARGES')
f=open( 'psi4out.xyz', 'w' )
f.write( "13  " )
f.write( str(ee) + "\n" )
f.write( MOL.save_string_xyz() )
f.close()
--------------------------------------------------------------------------

    Molecular point group: c1

    Geometry (in Angstrom), charge = 0, multiplicity = 1:

       Center              X                  Y                   Z               Mass
    ------------   -----------------  -----------------  -----------------  -----------------
           H         -2.423360172840    -0.853435477488    -0.960508124799     1.007825032070
           O         -2.271778172840    -0.414147477488    -0.135622124799    15.994914619560
           C         -1.108282172840     0.364163522512    -0.222210124799    12.000000000000
           C          0.138338827160    -0.501936477488    -0.183820124799    12.000000000000
           H         -1.100783172840     0.976024522512    -1.119945124799     1.007825032070
           H         -1.111583172840     1.029766522512     0.629500875201     1.007825032070
           O          1.247252827160     0.335927522512    -0.273676124799    15.994914619560
           H          0.126438827160    -1.212548477488    -1.012596124799     1.007825032070
           H          0.154478827160    -1.078258477488     0.739313875201     1.007825032070
           C          2.109528827160     0.271446522512     0.817865875201    12.000000000000
           H          2.518241827160    -0.729458477488     0.943459875201     1.007825032070
           H          2.921708827160     0.960929522512     0.633800875201     1.007825032070
           H          1.605969827160     0.556759522512     1.739177875201     1.007825032070

  Charge       = 0
  Multiplicity = 1
  Basis Set: 6-31G*
  Basis Set:

    Orbital Energies (a.u.)
    -----------------------

    Doubly Occupied:

       1A    -20.560343     2A    -20.558951     3A    -11.270780
       4A    -11.270207     5A    -11.267483     6A     -1.388635
       7A     -1.364295     8A     -1.016141     9A     -0.917979
      10A     -0.840148    11A     -0.708263    12A     -0.676506
      13A     -0.656629    14A     -0.636134    15A     -0.598032
      16A     -0.576038    17A     -0.529861    18A     -0.498659
      19A     -0.480033    20A     -0.453553    21A     -0.406599

  @DF-RHF Final Energy:  -267.94695681349469

   => Energetics <=

    Nuclear Repulsion Energy =            191.4170503482678498
    One-Electron Energy =                -745.3773766993256231
    Two-Electron Energy =                 286.0133695375628236
    DFT Exchange-Correlation Energy =       0.0000000000000000
    Empirical Dispersion Energy =           0.0000000000000000
    PCM Polarization Energy =               0.0000000000000000
    EFP Energy =                            0.0000000000000000
    Total Energy =                       -267.9469568134949782

  Mulliken Charges: (a.u.)
   Center  Symbol    Alpha    Beta     Spin     Total
       1     H     0.28120  0.28120  0.00000  0.43761
       2     O     4.37141  4.37141  0.00000 -0.74282
       3     C     3.00272  3.00272  0.00000 -0.00545
       4     C     3.00424  3.00424  0.00000 -0.00848
       5     H     0.42183  0.42183  0.00000  0.15633
       6     H     0.41385  0.41385  0.00000  0.17230
       7     O     4.30649  4.30649  0.00000 -0.61298
       8     H     0.42749  0.42749  0.00000  0.14501
       9     H     0.42189  0.42189  0.00000  0.15622
      10     C     3.08231  3.08231  0.00000 -0.16462
      11     H     0.42700  0.42700  0.00000  0.14601
      12     H     0.41152  0.41152  0.00000  0.17696
      13     H     0.42804  0.42804  0.00000  0.14392

   Total alpha = 21.00000, Total beta = 21.00000, Total charge =  0.00000
