                              Psi4 1.0.54 Driver

  ==> Input File <==

--------------------------------------------------------------------------
set {
	reference rhf
	basis cc-pvtz
}

set_num_threads( 4 )
memory 2 gb

molecule MOL {
0 1

O	 3.848244	 -0.275488	 -0.448648
C	 2.841259	 0.166180	 -0.000295
C	 1.542794	 -0.614730	 -0.000853
C	 2.789220	 1.550209	 0.606318
C	 0.288398	 0.247429	 0.000314
H	 1.557171	 -1.273139	 -0.866508
H	 1.557484	 -1.274998	 0.863344
C	 -0.993089	 -0.581367	 -0.000217
H	 0.305153	 0.900562	 -0.864701
H	 0.305567	 0.898805	 0.866656
C	 -2.258482	 0.271340	 0.000669
H	 -1.002280	 -1.233920	 -0.870484
H	 -1.002061	 -1.235367	 0.868958
C	 -3.544441	 -0.550271	 -0.000253
H	 -2.250545	 0.925250	 -0.867923
H	 -2.250598	 0.923423	 0.870642
C	 -4.804551	 0.308747	 0.000556
H	 -3.553737	 -1.201524	 -0.870151
H	 -3.553831	 -1.203282	 0.868313
H	 -4.842050	 0.949078	 -0.874436
H	 -5.698404	 -0.304480	 -0.000254
H	 -4.842277	 0.947103	 0.876982
H	 2.467407	 1.493571	 1.640376
H	 3.764061	 2.009901	 0.553775
H	 2.067592	 2.163189	 0.077593

	symmetry c1
}
set optking {
	frozen_dihedral = ("
		1 2 3 6
	")
}

ee,wfn = optimize('scf', return_wfn=True)
oeprop( wfn, 'DIPOLE', 'QUADRUPOLE', 'MULLIKEN_CHARGES')
f=open( 'psi4out.xyz', 'w' )
f.write( "25  " )
f.write( str(ee) + "\n" )
f.write( MOL.save_string_xyz() )
f.close()
--------------------------------------------------------------------------

    Molecular point group: c1
  Charge       = 0
  Multiplicity = 1
  Basis Set: CC-PVTZ
  Basis Set:
  @DF-RHF Final Energy:  -387.26941671970172
    Total Energy =                       -387.2694167197017805
    Molecular point group: c1
  Basis Set: CC-PVTZ
  Basis Set:
  Basis Set: CC-PVTZ
  Basis Set:
  @DF-RHF Final Energy:  -386.06057029013067
    Total Energy =                       -386.0605702901305563
  Basis Set: CC-PVTZ
  Basis Set:
  Basis Set: CC-PVTZ
  Basis Set:
  @DF-RHF Final Energy:  -386.31928626594299
    Total Energy =                       -386.3192862659428783
  Basis Set: CC-PVTZ
  Basis Set:
  Basis Set: CC-PVTZ
  Basis Set:
  @DF-RHF Final Energy:  -386.75291955410142
    Total Energy =                       -386.7529195541012541
  Basis Set: CC-PVTZ
  Basis Set:
  @DF-RHF Final Energy:  -387.07469377096436
    Total Energy =                       -387.0746937709648137
  @DF-RHF Final Energy:  -387.24008474340059
    Total Energy =                       -387.2400847434010984
  @DF-RHF Final Energy:  -387.26434752832193
    Total Energy =                       -387.2643475283221051
  @DF-RHF Final Energy:  -387.27016376962251
    Total Energy =                       -387.2701637696222861
  @DF-RHF Final Energy:  -387.26831516496554
    Total Energy =                       -387.2683151649654292
  @DF-RHF Final Energy:  -387.27105646278500
    Total Energy =                       -387.2710564627849408
  Basis Set: CC-PVTZ
  Basis Set:
  @DF-RHF Final Energy:  -387.27121602015507
    Total Energy =                       -387.2712160201552933
  Basis Set: CC-PVTZ
  Basis Set:
  Basis Set: CC-PVTZ
  Basis Set:
  @DF-RHF Final Energy:  -387.27125114729029
    Total Energy =                       -387.2712511472902861
  Basis Set: CC-PVTZ
  Basis Set:
  Basis Set: CC-PVTZ
  Basis Set:
  @DF-RHF Final Energy:  -387.27125273548296
    Total Energy =                       -387.2712527354829035
  Basis Set: CC-PVTZ
  Basis Set:
  Charge       = 0
  Multiplicity = 1
  Basis Set: CC-PVTZ
  Basis Set:

    Orbital Energies (a.u.)
    -----------------------

    Doubly Occupied:

       1A    -20.535382     2A    -11.320003     3A    -11.229025
       4A    -11.228402     5A    -11.226176     6A    -11.221806
       7A    -11.218609     8A    -11.217971     9A    -11.210706
      10A     -1.396214    11A     -1.102828    12A     -1.062034
      13A     -1.011330    14A     -0.972442    15A     -0.899052
      16A     -0.822214    17A     -0.797885    18A     -0.732028
      19A     -0.669727    20A     -0.650674    21A     -0.637701
      22A     -0.624954    23A     -0.600133    24A     -0.590707
      25A     -0.564231    26A     -0.561382    27A     -0.547991
      28A     -0.532018    29A     -0.521815    30A     -0.497806
      31A     -0.491138    32A     -0.475431    33A     -0.469763
      34A     -0.469334    35A     -0.460809    36A     -0.397989

  @DF-RHF Final Energy:  -387.27125291109274

   => Energetics <=

    Nuclear Repulsion Energy =            439.4732597783324195
    One-Electron Energy =               -1395.5536074818853649
    Two-Electron Energy =                 568.8090947924604279
    DFT Exchange-Correlation Energy =       0.0000000000000000
    Empirical Dispersion Energy =           0.0000000000000000
    PCM Polarization Energy =               0.0000000000000000
    EFP Energy =                            0.0000000000000000
    Total Energy =                       -387.2712529110924606
    Molecular point group: c1
  Basis Set: CC-PVTZ
  Basis Set:

  -Total Gradient:
     Atom            X                  Y                   Z
    ------   -----------------  -----------------  -----------------
       1       -0.000053351109    -0.001626367832     0.000735404935
       2       -0.000023108981     0.002611690052    -0.000950934192
       3        0.000396101507    -0.002704596091     0.000137606558
       4       -0.000011593587     0.000029135231    -0.000059145032
       5        0.000010083357    -0.000010039189     0.000030347426
       6       -0.000315094131     0.001729985708     0.000088278675
       7        0.000002907820     0.000011536251     0.000003295081
       8        0.000004976153    -0.000016333343     0.000010134910
       9        0.000005258091    -0.000001762741     0.000002425238
      10       -0.000004933425     0.000003049846     0.000007401725
      11        0.000009296051    -0.000000252667    -0.000005986798
      12       -0.000006102615    -0.000002758874     0.000003295371
      13       -0.000003115937     0.000002691925     0.000001709862
      14        0.000004061117     0.000005923200    -0.000006005996
      15       -0.000005030779    -0.000000918372     0.000002733630
      16        0.000004126750    -0.000005411245    -0.000008498345
      17       -0.000005609445     0.000004430738    -0.000005831011
      18       -0.000003557568    -0.000000073274     0.000003370034
      19        0.000005636412     0.000005801473     0.000001693455
      20       -0.000002308764    -0.000004831526     0.000000493632
      21        0.000004323269     0.000002904655     0.000005494338
      22        0.000001099082    -0.000001780849    -0.000005367523
      23       -0.000006815524    -0.000004047388     0.000004863352
      24       -0.000010248578    -0.000001724299    -0.000005583127
      25        0.000003000833    -0.000026251390     0.000008803799

  **** Optimization is complete! (in 14 steps) ****
    Final optimized geometry and variables:
    Molecular point group: c1

    Geometry (in Angstrom), charge = 0, multiplicity = 1:

    O            3.772166872240    -0.906582506533    -0.477474523488
    C            2.831234085974    -0.595042759054     0.177818091761
    C            1.425718630208    -0.825589921857    -0.353256318730
    C            3.007673190008    -0.029490001588     1.567770700726
    C            0.322156028773     0.091090086534     0.172307229660
    H            1.490199287468    -0.751374300731    -1.431176770259
    H            1.184935292816    -1.860797552780    -0.122204478086
    C           -1.030921121082    -0.208888777605    -0.467781774409
    H            0.585642201844     1.127122842351    -0.023441475086
    H            0.233088402387    -0.005407908783     1.249497199531
    C           -2.150100801552     0.698539829125     0.034238457555
    H           -0.945896604171    -0.111843477636    -1.546924799948
    H           -1.295131075061    -1.246004085825    -0.276021997310
    C           -3.503245606270     0.402088538898    -0.606048158342
    H           -1.884280884738     1.735729076780    -0.155872639265
    H           -2.236232355373     0.600148517705     1.113886100430
    C           -4.617475496744     1.312387529424    -0.100706198080
    H           -3.418814876646     0.501236777741    -1.684706052413
    H           -3.770662578706    -0.633755428778    -0.416007673240
    H           -4.395901612978     2.354130942437    -0.307448329623
    H           -5.563040096040     1.075629713811    -0.574559410314
    H           -4.750365972327     1.210537398900     0.971257887573
    H            2.457542847530    -0.623362888700     2.289543534230
    H            4.056566476084    -0.026869095234     1.820269530645
    H            2.618731164794     0.980606020792     1.619208699440

  Mulliken Charges: (a.u.)
   Center  Symbol    Alpha    Beta     Spin     Total
       1     O     4.17404  4.17404  0.00000 -0.34808
       2     C     2.86089  2.86089  0.00000  0.27822
       3     C     3.09851  3.09851  0.00000 -0.19702
       4     C     3.16515  3.16515  0.00000 -0.33030
       5     C     3.10556  3.10556  0.00000 -0.21113
       6     H     0.43730  0.43730  0.00000  0.12539
       7     H     0.44232  0.44232  0.00000  0.11536
       8     C     3.09058  3.09058  0.00000 -0.18115
       9     H     0.44835  0.44835  0.00000  0.10331
      10     H     0.45014  0.45014  0.00000  0.09973
      11     C     3.08547  3.08547  0.00000 -0.17094
      12     H     0.45083  0.45083  0.00000  0.09835
      13     H     0.45309  0.45309  0.00000  0.09381
      14     C     3.08525  3.08525  0.00000 -0.17049
      15     H     0.45444  0.45444  0.00000  0.09111
      16     H     0.45512  0.45512  0.00000  0.08977
      17     C     3.15030  3.15030  0.00000 -0.30060
      18     H     0.45366  0.45366  0.00000  0.09268
      19     H     0.45411  0.45411  0.00000  0.09177
      20     H     0.45482  0.45482  0.00000  0.09036
      21     H     0.44763  0.44763  0.00000  0.10473
      22     H     0.45512  0.45512  0.00000  0.08977
      23     H     0.44816  0.44816  0.00000  0.10369
      24     H     0.43187  0.43187  0.00000  0.13625
      25     H     0.44730  0.44730  0.00000  0.10540

   Total alpha = 36.00000, Total beta = 36.00000, Total charge = -0.00000

*** Psi4 exiting successfully. Buy a developer a beer!
