  ==> Input File <==

--------------------------------------------------------------------------
set {
	reference rhf
	basis 6-31G*
}

set_num_threads( 4 )
memory 2 gb

molecule MOL {
0 1

H	 -2.436592	 0.114959	 0.943863
O	 -2.035884	 -0.060112	 0.102722
C	 -0.955155	 0.788182	 -0.092531
C	 0.353668	 0.040312	 -0.004810
H	 -0.985057	 1.290372	 -1.054184
H	 -0.974469	 1.533190	 0.688632
F	 0.394464	 -0.937475	 -0.903053
F	 1.368604	 0.853376	 -0.249821
F	 0.546173	 -0.502608	 1.179981

	symmetry c1
}
set optking {
	frozen_dihedral = ("
		1 2 3 5
	")
}

ee = optimize('scf')
oeprop('DIPOLE', 'QUADRUPOLE', 'MULLIKEN_CHARGES')
f=open( 'psi4out.xyz', 'w' )
f.write( "9  " )
f.write( str(ee) + "\n" )
f.write( MOL.save_string_xyz() )
f.close()
--------------------------------------------------------------------------

    Molecular point group: c1
  Charge       = 0
  Multiplicity = 1
  Basis Set: 6-31G*
  Basis Set:
  @DF-RHF Final Energy:  -450.65885851192672
    Total Energy =                       -450.6588585119267236
    Molecular point group: c1
  Basis Set: 6-31G*
  Basis Set:
  Basis Set: 6-31G*
  Basis Set:
  @DF-RHF Final Energy:  -450.66018903804371
    Total Energy =                       -450.6601890380438249
  Basis Set: 6-31G*
  Basis Set:
  Basis Set: 6-31G*
  Basis Set:
  @DF-RHF Final Energy:  -450.66045175514711
    Total Energy =                       -450.6604517551470508
  Basis Set: 6-31G*
  Basis Set:
  Basis Set: 6-31G*
  Basis Set:
  @DF-RHF Final Energy:  -450.66046117183623
    Total Energy =                       -450.6604611718362889
  Basis Set: 6-31G*
  Basis Set:
  Charge       = 0
  Multiplicity = 1
  Basis Set: 6-31G*
  Basis Set:

    Orbital Energies (a.u.)
    -----------------------

    Doubly Occupied:

       1A    -26.337639     2A    -26.335478     3A    -26.333525
       4A    -20.589496     5A    -11.495182     6A    -11.309934
       7A     -1.734156     8A     -1.632345     9A     -1.630842
      10A     -1.401164    11A     -1.047193    12A     -0.918658
      13A     -0.825114    14A     -0.823603    15A     -0.790691
      16A     -0.736459    17A     -0.706178    18A     -0.696164
      19A     -0.661632    20A     -0.651543    21A     -0.636052
      22A     -0.631731    23A     -0.598414    24A     -0.532792
      25A     -0.479246

  @DF-RHF Final Energy:  -450.66046269165651

   => Energetics <=

    Nuclear Repulsion Energy =            276.7631390308289951
    One-Electron Energy =               -1175.7767448121869620
    Two-Electron Energy =                 448.3531430897013479
    DFT Exchange-Correlation Energy =       0.0000000000000000
    Empirical Dispersion Energy =           0.0000000000000000
    PCM Polarization Energy =               0.0000000000000000
    EFP Energy =                            0.0000000000000000
    Total Energy =                       -450.6604626916565621
    Molecular point group: c1
  Basis Set: 6-31G*
  Basis Set:

  -Total Gradient:
     Atom            X                  Y                   Z
    ------   -----------------  -----------------  -----------------
       1       -0.001345816280     0.001486317606    -0.000970473844
       2        0.001431676469    -0.001406667879     0.001369603868
       3        0.000941944378    -0.001554303833    -0.001152543329
       4       -0.000030962379     0.000060205663     0.000162026321
       5       -0.001042422160     0.001431244907     0.000770818350
       6       -0.000006941097    -0.000015446286     0.000006011921
       7        0.000044411902     0.000013155120     0.000018559291
       8        0.000063252555    -0.000031057365    -0.000075367530
       9       -0.000055143383     0.000016552067    -0.000128635052

  **** Optimization is complete! (in 5 steps) ****
    Final optimized geometry and variables:
    Molecular point group: c1

    Geometry (in Angstrom), charge = 0, multiplicity = 1:

    H           -2.436276714112     0.090799557824     0.923568333512
    O           -2.020553784259    -0.076073344184     0.091309122600
    C           -0.948610908365     0.788844977011    -0.102824625042
    C            0.351825695921     0.026856597530    -0.031872688352
    H           -1.025438033897     1.254182168015    -1.076382501535
    H           -0.904281625673     1.574504132170     0.642476826427
    F            0.419822212849    -0.928156359917    -0.937177762627
    F            1.369846574355     0.851963374640    -0.236704423858
    F            0.520007859340    -0.529856009587     1.156111843384

  Mulliken Charges: (a.u.)
   Center  Symbol    Alpha    Beta     Spin     Total
       1     H     0.27078  0.27078  0.00000  0.45845
       2     O     4.36247  4.36247  0.00000 -0.72494
       3     C     3.05852  3.05852  0.00000 -0.11704
       4     C     2.45556  2.45556  0.00000  1.08888
       5     H     0.40037  0.40037  0.00000  0.19926
       6     H     0.40973  0.40973  0.00000  0.18055
       7     F     4.67601  4.67601  0.00000 -0.35203
       8     F     4.68468  4.68468  0.00000 -0.36936
       9     F     4.68188  4.68188  0.00000 -0.36376

   Total alpha = 25.00000, Total beta = 25.00000, Total charge = -0.00000
