                              Psi4 1.0.54 Driver

  ==> Input File <==

--------------------------------------------------------------------------
set {
	reference rhf
	basis cc-pvtz
}

set_num_threads( 4 )
memory 2 gb

molecule MOL {
0 1

H	 3.721907	 -0.933076	 -0.066039
O	 2.824271	 -1.154299	 0.131461
C	 2.076458	 -0.067370	 -0.038225
C	 0.626018	 -0.337582	 0.258241
O	 2.538288	 0.965419	 -0.381593
C	 -0.267326	 0.883135	 0.076490
H	 0.325620	 -1.161483	 -0.378003
H	 0.574537	 -0.713685	 1.275261
C	 -1.726822	 0.642622	 0.463839
H	 -0.210803	 1.217591	 -0.953497
H	 0.129920	 1.693110	 0.675679
C	 -2.480891	 -0.340606	 -0.429852
H	 -2.243098	 1.597649	 0.438609
H	 -1.776542	 0.301208	 1.495542
C	 -2.996386	 0.305074	 -1.711974
H	 -1.823768	 -1.168426	 -0.682712
H	 -3.319637	 -0.769574	 0.109080
H	 -3.524824	 -0.413079	 -2.328165
H	 -2.180637	 0.710230	 -2.301125
H	 -3.679864	 1.118637	 -1.492588

	symmetry c1
}
set optking {
	frozen_dihedral = ("
		16 12 9 6
	")
}

ee,wfn = optimize('scf', return_wfn=True)
oeprop( wfn, 'DIPOLE', 'QUADRUPOLE', 'MULLIKEN_CHARGES')
f=open( 'psi4out.xyz', 'w' )
f.write( "20  " )
f.write( str(ee) + "\n" )
f.write( MOL.save_string_xyz() )
f.close()
--------------------------------------------------------------------------

    Molecular point group: c1
  Charge       = 0
  Multiplicity = 1
  Basis Set: CC-PVTZ
  Basis Set:
  @DF-RHF Final Energy:  -384.09195339995591
    Total Energy =                       -384.0919533999558553
    Molecular point group: c1
  Basis Set: CC-PVTZ
  Basis Set:
  Basis Set: CC-PVTZ
  Basis Set:
  @DF-RHF Final Energy:  -384.09142434585181
    Total Energy =                       -384.0914243458518627
  Basis Set: CC-PVTZ
  Basis Set:
  Basis Set: CC-PVTZ
  Basis Set:
  @DF-RHF Final Energy:  -384.09229014280828
    Total Energy =                       -384.0922901428081673
  Basis Set: CC-PVTZ
  Basis Set:
  Basis Set: CC-PVTZ
  Basis Set:
  @DF-RHF Final Energy:  -384.09229171005290
    Total Energy =                       -384.0922917100533027
  Basis Set: CC-PVTZ
  Basis Set:
  Basis Set: CC-PVTZ
  Basis Set:
  @DF-RHF Final Energy:  -384.09203556333665
    Total Energy =                       -384.0920355633365944
  Basis Set: CC-PVTZ
  Basis Set:
  Basis Set: CC-PVTZ
  Basis Set:
  @DF-RHF Final Energy:  -384.09238823198621
    Total Energy =                       -384.0923882319861491
  Basis Set: CC-PVTZ
  Basis Set:
  Basis Set: CC-PVTZ
  Basis Set:
  @DF-RHF Final Energy:  -384.09239676420850
    Total Energy =                       -384.0923967642082744
  Basis Set: CC-PVTZ
  Basis Set:
  Charge       = 0
  Multiplicity = 1
  Basis Set: CC-PVTZ
  Basis Set:

    Orbital Energies (a.u.)
    -----------------------

    Doubly Occupied:

       1A    -20.604014     2A    -20.540647     3A    -11.373606
       4A    -11.238819     5A    -11.221090     6A    -11.218817
       7A    -11.218206     8A    -11.209444     9A     -1.477610
      10A     -1.369112    11A     -1.097154    12A     -1.040638
      13A     -0.960234    14A     -0.876472    15A     -0.817389
      16A     -0.772283    17A     -0.703780    18A     -0.693470
      19A     -0.669203    20A     -0.628554    21A     -0.618845
      22A     -0.585085    23A     -0.579495    24A     -0.567796
      25A     -0.524802    26A     -0.511425    27A     -0.510843
      28A     -0.484752    29A     -0.469997    30A     -0.461492
      31A     -0.458673    32A     -0.446706

  @DF-RHF Final Energy:  -384.09239717012605

   => Energetics <=

    Nuclear Repulsion Energy =            379.8387307484343296
    One-Electron Energy =               -1275.9613551438296781
    Two-Electron Energy =                 512.0302272252695275
    DFT Exchange-Correlation Energy =       0.0000000000000000
    Empirical Dispersion Energy =           0.0000000000000000
    PCM Polarization Energy =               0.0000000000000000
    EFP Energy =                            0.0000000000000000
    Total Energy =                       -384.0923971701258779
    Molecular point group: c1
  Basis Set: CC-PVTZ
  Basis Set:

  -Total Gradient:
     Atom            X                  Y                   Z
    ------   -----------------  -----------------  -----------------
       1        0.000003191343    -0.000003678851     0.000002326003
       2       -0.000001093615     0.000010856436    -0.000004434663
       3        0.000007763865     0.000001110834    -0.000026948110
       4        0.000000924059     0.000003660644    -0.000010376540
       5       -0.000009095579    -0.000017388378     0.000024952508
       6        0.000459448125    -0.001455156477     0.000904284352
       7        0.000006765575     0.000018600338     0.000015733778
       8        0.000004906172     0.000000899307     0.000008800012
       9       -0.000453113713     0.002400924778    -0.001749462228
      10        0.000006949792     0.000005596939     0.000007080734
      11        0.000001904498    -0.000016840583    -0.000012808162
      12       -0.000821616957    -0.002342152496     0.002625164058
      13       -0.000007465418    -0.000008914995    -0.000006297389
      14       -0.000007813632    -0.000000257820     0.000008757527
      15       -0.000023875468     0.000006408700    -0.000001999327
      16        0.000827492841     0.001388784934    -0.001780176161
      17        0.000004392377     0.000005698803    -0.000005431293
      18        0.000001362735     0.000008852312     0.000004113230
      19       -0.000003849665    -0.000007604567     0.000006888141
      20        0.000002822665     0.000000600143    -0.000010166472

  **** Optimization is complete! (in 8 steps) ****
    Final optimized geometry and variables:
    Molecular point group: c1

    Geometry (in Angstrom), charge = 0, multiplicity = 1:

    H            3.596184215396    -1.077331178260     0.266159327512
    O            2.695731182173    -1.291016830943     0.459171675795
    C            1.951717505186    -0.209301213184     0.245207202859
    C            0.497214633645    -0.468685503665     0.531273755642
    O            2.419072589339     0.811636577839    -0.125286763138
    C           -0.390652099895     0.750371241948     0.314923592045
    H            0.201657501198    -1.306688248397    -0.088882822313
    H            0.432715658143    -0.822175571852     1.555342523437
    C           -1.865992505488     0.490406719813     0.633173129429
    H           -0.277278154769     1.100059004944    -0.704305843594
    H           -0.027804615801     1.553759791944     0.944341447503
    C           -2.614407731940    -0.379807272666    -0.385162351538
    H           -2.377794342998     1.443516751731     0.719703264910
    H           -1.929317737868     0.028191634252     1.614689587121
    C           -3.094394936911     0.398589000251    -1.609108088092
    H           -1.978713794023    -1.191905960747    -0.722664701299
    H           -3.470823699656    -0.838319989081     0.097014266135
    H           -3.599027766807    -0.254101394988    -2.312269053576
    H           -2.270119924264     0.868990697013    -2.133330992868
    H           -3.791124265835     1.179427207295    -1.323607374720

  Mulliken Charges: (a.u.)
   Center  Symbol    Alpha    Beta     Spin     Total
       1     H     0.38241  0.38241  0.00000  0.23518
       2     O     4.16035  4.16035  0.00000 -0.32070
       3     C     2.80326  2.80326  0.00000  0.39347
       4     C     3.11126  3.11126  0.00000 -0.22252
       5     O     4.19114  4.19114  0.00000 -0.38228
       6     C     3.09369  3.09369  0.00000 -0.18739
       7     H     0.43749  0.43749  0.00000  0.12503
       8     H     0.43737  0.43737  0.00000  0.12526
       9     C     3.10745  3.10745  0.00000 -0.21491
      10     H     0.44436  0.44436  0.00000  0.11128
      11     H     0.43972  0.43972  0.00000  0.12055
      12     C     3.09054  3.09054  0.00000 -0.18108
      13     H     0.44511  0.44511  0.00000  0.10978
      14     H     0.44896  0.44896  0.00000  0.10207
      15     C     3.14822  3.14822  0.00000 -0.29644
      16     H     0.45613  0.45613  0.00000  0.08774
      17     H     0.44673  0.44673  0.00000  0.10654
      18     H     0.44793  0.44793  0.00000  0.10414
      19     H     0.45371  0.45371  0.00000  0.09258
      20     H     0.45415  0.45415  0.00000  0.09170

   Total alpha = 32.00000, Total beta = 32.00000, Total charge =  0.00000

*** Psi4 exiting successfully. Buy a developer a beer!
