                              Psi4 1.0.54 Driver

  ==> Input File <==

--------------------------------------------------------------------------
set {
	reference rhf
	basis cc-pvtz
}

set_num_threads( 4 )
memory 2 gb

molecule MOL {
0 1

H	 1.248768	 0.112550	 0.967449
C	 0.848385	 0.440008	 0.000011
C	 -0.623497	 0.751021	 0.000090
O	 1.560665	 0.525332	 -0.939468
C	 -1.523725	 -0.474323	 -0.000013
H	 -0.813143	 1.382932	 -0.864897
H	 -0.813071	 1.382716	 0.865253
H	 -1.342980	 -1.087348	 -0.873016
H	 -2.565269	 -0.177464	 0.000070
H	 -1.342898	 -1.087564	 0.872820

	symmetry c1
}
set optking {
	frozen_dihedral = ("
		4 2 3 6
	")
}

ee,wfn = optimize('scf', return_wfn=True)
oeprop( wfn, 'DIPOLE', 'QUADRUPOLE', 'MULLIKEN_CHARGES')
f=open( 'psi4out.xyz', 'w' )
f.write( "10  " )
f.write( str(ee) + "\n" )
f.write( MOL.save_string_xyz() )
f.close()
--------------------------------------------------------------------------

    Molecular point group: c1
  Charge       = 0
  Multiplicity = 1
  Basis Set: CC-PVTZ
  Basis Set:
  @DF-RHF Final Energy:  -192.02203197528689
    Total Energy =                       -192.0220319752868932
    Molecular point group: c1
  Basis Set: CC-PVTZ
  Basis Set:
  Basis Set: CC-PVTZ
  Basis Set:
  @DF-RHF Final Energy:  -192.02217235044805
    Total Energy =                       -192.0221723504480451
  Basis Set: CC-PVTZ
  Basis Set:
  Basis Set: CC-PVTZ
  Basis Set:
  @DF-RHF Final Energy:  -192.02277795019003
    Total Energy =                       -192.0227779501900329
  Basis Set: CC-PVTZ
  Basis Set:
  Basis Set: CC-PVTZ
  Basis Set:
  @DF-RHF Final Energy:  -192.02288321726041
    Total Energy =                       -192.0228832172604427
  Basis Set: CC-PVTZ
  Basis Set:
  Basis Set: CC-PVTZ
  Basis Set:
  @DF-RHF Final Energy:  -192.02288475459520
    Total Energy =                       -192.0228847545952533
  Basis Set: CC-PVTZ
  Basis Set:
  Charge       = 0
  Multiplicity = 1
  Basis Set: CC-PVTZ
  Basis Set:

    Orbital Energies (a.u.)
    -----------------------

    Doubly Occupied:

       1A    -20.553560     2A    -11.322593     3A    -11.237786
       4A    -11.232397     5A     -1.408564     6A     -1.067119
       7A     -0.905391     8A     -0.791959     9A     -0.681725
      10A     -0.643910    11A     -0.609245    12A     -0.576111
      13A     -0.544104    14A     -0.511833    15A     -0.501022
      16A     -0.414674

  @DF-RHF Final Energy:  -192.02288483314018

   => Energetics <=

    Nuclear Repulsion Energy =            118.0499970061445367
    One-Electron Energy =                -494.1417729832584200
    Two-Electron Energy =                 184.0688911439738149
    DFT Exchange-Correlation Energy =       0.0000000000000000
    Empirical Dispersion Energy =           0.0000000000000000
    PCM Polarization Energy =               0.0000000000000000
    EFP Energy =                            0.0000000000000000
    Total Energy =                       -192.0228848331400968
    Molecular point group: c1
  Basis Set: CC-PVTZ
  Basis Set:

  -Total Gradient:
     Atom            X                  Y                   Z
    ------   -----------------  -----------------  -----------------
       1       -0.000037524616    -0.000001103177    -0.000087086189
       2        0.000505873394     0.002098446186     0.000570424893
       3       -0.000311154116    -0.001816047049    -0.000913325817
       4       -0.000421607864    -0.001284760609    -0.000140980115
       5        0.000000554365    -0.000009531022    -0.000032998936
       6        0.000153465398     0.001035295214     0.000679424419
       7        0.000063739349    -0.000075677501    -0.000135866827
       8       -0.000001731927     0.000058139561     0.000085237950
       9        0.000043650850     0.000009915953    -0.000009616442
      10        0.000004735165    -0.000014677556    -0.000015212936

  **** Optimization is complete! (in 6 steps) ****
    Final optimized geometry and variables:
    Molecular point group: c1

    Geometry (in Angstrom), charge = 0, multiplicity = 1:

    H            1.123213770121    -0.185763561149     1.254931533916
    C            0.752399559432     0.173788217657     0.286294731144
    C           -0.725496545477     0.449194421151     0.223945701701
    O            1.493617046336     0.283150323394    -0.627923585222
    C           -1.516686139918    -0.859562767484     0.148192175193
    H           -0.923524838451     1.076307808727    -0.634792206836
    H           -1.010973989311     0.995004058333     1.118041096572
    H           -1.274795699526    -1.402880178894    -0.756447556057
    H           -2.579884707349    -0.658205025284     0.148794535993
    H           -1.300228495302    -1.501345148999     0.995231303139

  Mulliken Charges: (a.u.)
   Center  Symbol    Alpha    Beta     Spin     Total
       1     H     0.46384  0.46384  0.00000  0.07233
       2     C     2.90169  2.90169  0.00000  0.19661
       3     C     3.08028  3.08028  0.00000 -0.16056
       4     O     4.16564  4.16564  0.00000 -0.33128
       5     C     3.14860  3.14860  0.00000 -0.29721
       6     H     0.44271  0.44271  0.00000  0.11458
       7     H     0.45271  0.45271  0.00000  0.09457
       8     H     0.44540  0.44540  0.00000  0.10919
       9     H     0.44531  0.44531  0.00000  0.10937
      10     H     0.45380  0.45380  0.00000  0.09239

   Total alpha = 16.00000, Total beta = 16.00000, Total charge = -0.00000

*** Psi4 exiting successfully. Buy a developer a beer!
