                              Psi4 1.0.54 Driver

  ==> Input File <==

--------------------------------------------------------------------------
set {
	reference rhf
	basis cc-pvtz
}

set_num_threads( 4 )
memory 2 gb

molecule MOL {
0 1

H	 -2.649014	 -0.989077	 -0.259802
O	 -2.313989	 -0.142475	 -0.025864
C	 -0.943808	 -0.065018	 -0.330000
H	 -0.812293	 -0.225641	 -1.398673
C	 -0.231030	 -1.182113	 0.407592
C	 -0.353797	 1.300461	 0.050970
H	 -0.312800	 -0.992012	 1.473041
H	 -0.738841	 -2.119564	 0.220514
C	 1.246176	 -1.268044	 -0.015480
H	 -0.539537	 2.008579	 -0.751815
H	 -0.889989	 1.662858	 0.920677
C	 1.153605	 1.231851	 0.356834
H	 1.823096	 -1.684665	 0.802361
H	 1.352335	 -1.958223	 -0.845114
C	 1.826409	 0.100723	 -0.416008
H	 1.622968	 2.181508	 0.128734
H	 1.301983	 1.066493	 1.419367
H	 2.897299	 0.112407	 -0.249665
H	 1.683458	 0.265621	 -1.480024

	symmetry c1
}
set optking {
	frozen_dihedral = ("
		1 2 3 4
	")
}

ee,wfn = optimize('scf', return_wfn=True)
oeprop( wfn, 'DIPOLE', 'QUADRUPOLE', 'MULLIKEN_CHARGES')
f=open( 'psi4out.xyz', 'w' )
f.write( "19  " )
f.write( str(ee) + "\n" )
f.write( MOL.save_string_xyz() )
f.close()
--------------------------------------------------------------------------

    Molecular point group: c1
  Charge       = 0
  Multiplicity = 1
  Basis Set: CC-PVTZ
  Basis Set:
  @DF-RHF Final Energy:  -309.16190613837762
    Total Energy =                       -309.1619061383772760
    Molecular point group: c1
  Basis Set: CC-PVTZ
  Basis Set:
  Basis Set: CC-PVTZ
  Basis Set:
  @DF-RHF Final Energy:  -309.16359342506007
    Total Energy =                       -309.1635934250600712
  Basis Set: CC-PVTZ
  Basis Set:
  Basis Set: CC-PVTZ
  Basis Set:
  @DF-RHF Final Energy:  -309.16386768831399
    Total Energy =                       -309.1638676883142125
  Basis Set: CC-PVTZ
  Basis Set:
  Basis Set: CC-PVTZ
  Basis Set:
  @DF-RHF Final Energy:  -309.16387460176566
    Total Energy =                       -309.1638746017655421
  Basis Set: CC-PVTZ
  Basis Set:
  Charge       = 0
  Multiplicity = 1
  Basis Set: CC-PVTZ
  Basis Set:

    Orbital Energies (a.u.)
    -----------------------

    Doubly Occupied:

       1A    -20.543592     2A    -11.267510     3A    -11.216117
       4A    -11.213672     5A    -11.212381     6A    -11.211991
       7A    -11.206993     8A     -1.363590     9A     -1.110243
      10A     -1.003316    11A     -0.989534    12A     -0.848990
      13A     -0.831489    14A     -0.734028    15A     -0.707693
      16A     -0.657635    17A     -0.618218    18A     -0.611501
      19A     -0.570270    20A     -0.546975    21A     -0.531104
      22A     -0.520400    23A     -0.499139    24A     -0.486760
      25A     -0.468461    26A     -0.449512    27A     -0.429025
      28A     -0.413242

  @DF-RHF Final Energy:  -309.16387556452719

   => Energetics <=

    Nuclear Repulsion Energy =            332.0293318429835381
    One-Electron Energy =               -1077.8596524724148367
    Two-Electron Energy =                 436.6664450649041100
    DFT Exchange-Correlation Energy =       0.0000000000000000
    Empirical Dispersion Energy =           0.0000000000000000
    PCM Polarization Energy =               0.0000000000000000
    EFP Energy =                            0.0000000000000000
    Total Energy =                       -309.1638755645271885
    Molecular point group: c1
  Basis Set: CC-PVTZ
  Basis Set:

  -Total Gradient:
     Atom            X                  Y                   Z
    ------   -----------------  -----------------  -----------------
       1        0.000083389172    -0.000120769336     0.000328660982
       2       -0.000083178925     0.000202496167    -0.000432434336
       3        0.000044366557    -0.000391105324     0.000202724809
       4       -0.000018085282     0.000305344368    -0.000011033576
       5       -0.000057533228     0.000028826785    -0.000054680746
       6        0.000016265713     0.000019566029    -0.000012108256
       7        0.000001186642     0.000004908390    -0.000011445169
       8        0.000000244403     0.000001404116    -0.000004926148
       9        0.000043277413     0.000018773779    -0.000003112005
      10        0.000002991591     0.000008066086    -0.000003497435
      11       -0.000014223831    -0.000035777142    -0.000010504439
      12        0.000010443266     0.000017763401    -0.000011628584
      13        0.000022525410    -0.000006958707     0.000016307363
      14        0.000000880506     0.000005513484     0.000015043073
      15       -0.000032560746    -0.000036625021    -0.000000584079
      16       -0.000008711005     0.000000562621     0.000001447707
      17       -0.000008888872    -0.000002379240     0.000001263289
      18        0.000000544042    -0.000030691090    -0.000006724969
      19       -0.000002932831     0.000011080632    -0.000002767482

  **** Optimization is complete! (in 5 steps) ****
    Final optimized geometry and variables:
    Molecular point group: c1

    Geometry (in Angstrom), charge = 0, multiplicity = 1:

    H           -2.709224139624    -0.887045825970    -0.278763831939
    O           -2.317342957393    -0.071710695658    -0.023426909067
    C           -0.945178492937    -0.082537694704    -0.328355757001
    H           -0.823946022824    -0.224515335492    -1.401007276642
    C           -0.200099416442    -1.197612418966     0.389653821183
    C           -0.381469322504     1.286680331115     0.059423049804
    H           -0.277935270141    -1.026057922640     1.458404844792
    H           -0.679507173471    -2.152417140959     0.195405849242
    C            1.275195734116    -1.249017150170    -0.046108233877
    H           -0.576000873644     1.988415041318    -0.743605276657
    H           -0.935493351876     1.638154323527     0.921091251125
    C            1.122581404788     1.239066511870     0.378803500672
    H            1.865042490176    -1.676219767946     0.756926221806
    H            1.387031453031    -1.916242839115    -0.893686122333
    C            1.825672375928     0.141146147834    -0.414710721655
    H            1.573604397214     2.203217886902     0.176223027762
    H            1.267202287069     1.052827210997     1.438677695265
    H            2.895352072052     0.172248917835    -0.243383667044
    H            1.682616426224     0.325859594334    -1.475342320304

  Mulliken Charges: (a.u.)
   Center  Symbol    Alpha    Beta     Spin     Total
       1     H     0.39616  0.39616  0.00000  0.20768
       2     O     4.20146  4.20146  0.00000 -0.40293
       3     C     2.92734  2.92734  0.00000  0.14532
       4     H     0.46323  0.46323  0.00000  0.07354
       5     C     3.10245  3.10245  0.00000 -0.20490
       6     C     3.11097  3.11097  0.00000 -0.22194
       7     H     0.45232  0.45232  0.00000  0.09537
       8     H     0.45070  0.45070  0.00000  0.09859
       9     C     3.11437  3.11437  0.00000 -0.22873
      10     H     0.44755  0.44755  0.00000  0.10491
      11     H     0.44366  0.44366  0.00000  0.11267
      12     C     3.10074  3.10074  0.00000 -0.20148
      13     H     0.44702  0.44702  0.00000  0.10595
      14     H     0.44792  0.44792  0.00000  0.10416
      15     C     3.10177  3.10177  0.00000 -0.20355
      16     H     0.44181  0.44181  0.00000  0.11638
      17     H     0.45377  0.45377  0.00000  0.09245
      18     H     0.44291  0.44291  0.00000  0.11418
      19     H     0.45383  0.45383  0.00000  0.09234

   Total alpha = 28.00000, Total beta = 28.00000, Total charge =  0.00000

*** Psi4 exiting successfully. Buy a developer a beer!
