  ==> Input File <==

--------------------------------------------------------------------------
set {
	reference rhf
	basis 6-31G*
}

set_num_threads( 4 )
memory 2 gb

molecule MOL {
0 1

H	 -2.698709	 -0.000305	 0.034435
C	 -1.693833	 0.000034	 0.434417
O	 -0.828952	 -0.000968	 -0.659236
H	 -1.574200	 0.882896	 1.055746
H	 -1.574147	 -0.881698	 1.057355
C	 0.559449	 -0.000018	 -0.420814
C	 1.368013	 -0.344340	 -1.670048
C	 1.038487	 1.289121	 0.243717
H	 0.687756	 -0.807352	 0.290368
H	 0.968864	 -1.235277	 -2.142763
H	 2.402248	 -0.535505	 -1.401629
H	 1.363575	 0.461259	 -2.397478
H	 0.410849	 1.529177	 1.095127
H	 2.058257	 1.168353	 0.595781
H	 1.027228	 2.132394	 -0.439369

	symmetry c1
}
set optking {
	frozen_dihedral = ("
		9 6 3 2
	")
}

ee = optimize('scf')
oeprop('DIPOLE', 'QUADRUPOLE', 'MULLIKEN_CHARGES')
f=open( 'psi4out.xyz', 'w' )
f.write( "15  " )
f.write( str(ee) + "\n" )
f.write( MOL.save_string_xyz() )
f.close()
--------------------------------------------------------------------------

    Molecular point group: c1
  Charge       = 0
  Multiplicity = 1
  Basis Set: 6-31G*
  Basis Set:
  @DF-RHF Final Energy:  -232.13642774028398
    Total Energy =                       -232.1364277402839207
    Molecular point group: c1
  Basis Set: 6-31G*
  Basis Set:
  Basis Set: 6-31G*
  Basis Set:
  @DF-RHF Final Energy:  -232.14047597552025
    Total Energy =                       -232.1404759755203600
  Basis Set: 6-31G*
  Basis Set:
  Basis Set: 6-31G*
  Basis Set:
  @DF-RHF Final Energy:  -232.14136647208676
    Total Energy =                       -232.1413664720867587
  Basis Set: 6-31G*
  Basis Set:
  Basis Set: 6-31G*
  Basis Set:
  @DF-RHF Final Energy:  -232.14139506534869
    Total Energy =                       -232.1413950653489451
  Basis Set: 6-31G*
  Basis Set:
  Basis Set: 6-31G*
  Basis Set:
  @DF-RHF Final Energy:  -232.14140626985136
    Total Energy =                       -232.1414062698514726
  Basis Set: 6-31G*
  Basis Set:
  Charge       = 0
  Multiplicity = 1
  Basis Set: 6-31G*
  Basis Set:

    Orbital Energies (a.u.)
    -----------------------

    Doubly Occupied:

       1A    -20.550543     2A    -11.274464     3A    -11.262873
       4A    -11.209630     5A    -11.205832     6A     -1.374871
       7A     -1.052367     8A     -0.942587     9A     -0.914821
      10A     -0.792228    11A     -0.673349    12A     -0.638259
      13A     -0.636136    14A     -0.589825    15A     -0.550371
      16A     -0.541697    17A     -0.528063    18A     -0.497700
      19A     -0.491214    20A     -0.453394    21A     -0.408695

  @DF-RHF Final Energy:  -232.14140667974880

   => Energetics <=

    Nuclear Repulsion Energy =            197.5146686435515448
    One-Electron Energy =                -706.1343151644575755
    Two-Electron Energy =                 276.4782398411570057
    DFT Exchange-Correlation Energy =       0.0000000000000000
    Empirical Dispersion Energy =           0.0000000000000000
    PCM Polarization Energy =               0.0000000000000000
    EFP Energy =                            0.0000000000000000
    Total Energy =                       -232.1414066797490250
    Molecular point group: c1
  Basis Set: 6-31G*
  Basis Set:

  -Total Gradient:
     Atom            X                  Y                   Z
    ------   -----------------  -----------------  -----------------
       1       -0.000017420704     0.000001107773     0.000015216139
       2       -0.000030165113     0.000511912394     0.000002252610
       3        0.000004667241    -0.000853865913    -0.000129079870
       4        0.000034563876     0.000006814239    -0.000014612341
       5        0.000013115301     0.000005767603     0.000000144236
       6       -0.000150262612     0.000762153648     0.000571817259
       7        0.000053198583    -0.000050416329    -0.000019390558
       8        0.000019859161    -0.000005368544     0.000051373285
       9        0.000131413276    -0.000388301414    -0.000491036462
      10        0.000003742435    -0.000001198303    -0.000016850424
      11       -0.000018063526    -0.000001556215    -0.000009861716
      12       -0.000017482844     0.000006058540     0.000023650081
      13       -0.000007891835     0.000022643472     0.000023823068
      14       -0.000014054255     0.000008952071     0.000011283018
      15       -0.000005218985    -0.000024703022    -0.000018728325

  **** Optimization is complete! (in 6 steps) ****
    Final optimized geometry and variables:
    Molecular point group: c1

    Geometry (in Angstrom), charge = 0, multiplicity = 1:

    H           -2.760207050393    -0.270586326827     0.327837500359
    C           -1.773308583025    -0.160146269714     0.756741713441
    O           -0.863336257395    -0.158303152365    -0.297331570259
    H           -1.747988987522     0.764024611785     1.327004951450
    H           -1.593550900464    -0.991273381303     1.436681606754
    C            0.497773683302    -0.224324471511     0.046879346763
    C            1.247312693605    -0.540133494318    -1.238343014968
    C            0.993736543381     1.069269552115     0.688529368829
    H            0.642612003724    -1.047407118101     0.747644251036
    H            0.872619872250    -1.458648850759    -1.674846077400
    H            2.309945246592    -0.653940758191    -1.048805130504
    H            1.108934997587     0.258848133425    -1.959237473044
    H            0.497094863504     1.273864536696     1.630624297889
    H            2.058980979198     1.007381354873     0.887816998825
    H            0.817118082641     1.907618563302     0.022105464932

  Mulliken Charges: (a.u.)
   Center  Symbol    Alpha    Beta     Spin     Total
       1     H     0.41243  0.41243  0.00000  0.17513
       2     C     3.07943  3.07943  0.00000 -0.15886
       3     O     4.30930  4.30930  0.00000 -0.61860
       4     H     0.42865  0.42865  0.00000  0.14269
       5     H     0.43158  0.43158  0.00000  0.13684
       6     C     2.91211  2.91211  0.00000  0.17577
       7     C     3.23943  3.23943  0.00000 -0.47885
       8     C     3.25017  3.25017  0.00000 -0.50033
       9     H     0.43152  0.43152  0.00000  0.13696
      10     H     0.41264  0.41264  0.00000  0.17471
      11     H     0.42363  0.42363  0.00000  0.15274
      12     H     0.41540  0.41540  0.00000  0.16920
      13     H     0.41870  0.41870  0.00000  0.16261
      14     H     0.42034  0.42034  0.00000  0.15933
      15     H     0.41467  0.41467  0.00000  0.17066

   Total alpha = 21.00000, Total beta = 21.00000, Total charge =  0.00000
