  ==> Input File <==

--------------------------------------------------------------------------
set {
	reference rhf
	basis 6-31G*
}

set_num_threads( 4 )
memory 2 gb

molecule MOL {
0 1

H	 -3.135461	 -1.215070	 0.001379
O	 -2.310168	 -0.871793	 -0.309793
C	 -2.026376	 0.340750	 0.341611
C	 -0.673256	 0.843270	 -0.132153
H	 -2.792215	 1.080697	 0.115987
H	 -2.013526	 0.200402	 1.421792
C	 0.486613	 -0.083066	 0.235839
H	 -0.715586	 0.970948	 -1.210718
H	 -0.508072	 1.829858	 0.297090
C	 1.650948	 -0.001797	 -0.752864
H	 0.123281	 -1.104214	 0.288372
H	 0.844911	 0.170032	 1.233038
C	 2.812469	 -0.923175	 -0.381911
H	 1.294649	 -0.255151	 -1.749148
H	 2.008939	 1.024420	 -0.809106
H	 2.493806	 -1.961165	 -0.351580
H	 3.622097	 -0.846260	 -1.101308
H	 3.214292	 -0.673254	 0.596142

	symmetry c1
}
set optking {
	frozen_dihedral = ("
		10 7 4 8
	")
}

ee = optimize('scf')
oeprop('DIPOLE', 'QUADRUPOLE', 'MULLIKEN_CHARGES')
f=open( 'psi4out.xyz', 'w' )
f.write( "18  " )
f.write( str(ee) + "\n" )
f.write( MOL.save_string_xyz() )
f.close()
--------------------------------------------------------------------------

    Molecular point group: c1
  Charge       = 0
  Multiplicity = 1
  Basis Set: 6-31G*
  Basis Set:
  @DF-RHF Final Energy:  -271.17761172333098
    Total Energy =                       -271.1776117233308696
    Molecular point group: c1
  Basis Set: 6-31G*
  Basis Set:
  Basis Set: 6-31G*
  Basis Set:
  @DF-RHF Final Energy:  -271.17777571996385
    Total Energy =                       -271.1777757199639609
  Basis Set: 6-31G*
  Basis Set:
  Basis Set: 6-31G*
  Basis Set:
  @DF-RHF Final Energy:  -271.17782871648518
    Total Energy =                       -271.1778287164850667
  Basis Set: 6-31G*
  Basis Set:
  Basis Set: 6-31G*
  Basis Set:
  @DF-RHF Final Energy:  -271.17783648507668
    Total Energy =                       -271.1778364850766820
  Basis Set: 6-31G*
  Basis Set:
  Basis Set: 6-31G*
  Basis Set:
  @DF-RHF Final Energy:  -271.17783975218595
    Total Energy =                       -271.1778397521859461
  Basis Set: 6-31G*
  Basis Set:
  Charge       = 0
  Multiplicity = 1
  Basis Set: 6-31G*
  Basis Set:

    Orbital Energies (a.u.)
    -----------------------

    Doubly Occupied:

       1A    -20.553339     2A    -11.268378     3A    -11.211733
       4A    -11.209769     5A    -11.206251     6A    -11.203762
       7A     -1.360049     8A     -1.073431     9A     -1.008190
      10A     -0.912739    11A     -0.817688    12A     -0.783947
      13A     -0.705637    14A     -0.636684    15A     -0.627726
      16A     -0.581137    17A     -0.569100    18A     -0.558398
      19A     -0.521574    20A     -0.495925    21A     -0.491248
      22A     -0.467449    23A     -0.456566    24A     -0.447258
      25A     -0.428549

  @DF-RHF Final Energy:  -271.17784016846281

   => Energetics <=

    Nuclear Repulsion Energy =            249.5650223732825452
    One-Electron Energy =                -862.2926712985888571
    Two-Electron Energy =                 341.5498087568433903
    DFT Exchange-Correlation Energy =       0.0000000000000000
    Empirical Dispersion Energy =           0.0000000000000000
    PCM Polarization Energy =               0.0000000000000000
    EFP Energy =                            0.0000000000000000
    Total Energy =                       -271.1778401684629216
    Molecular point group: c1
  Basis Set: 6-31G*
  Basis Set:

  -Total Gradient:
     Atom            X                  Y                   Z
    ------   -----------------  -----------------  -----------------
       1        0.000003338388     0.000009168923     0.000003781173
       2        0.000025504068     0.000003282501     0.000009538540
       3       -0.000019618843     0.000024729154    -0.000023204855
       4       -0.003226541395    -0.004420868544    -0.000965436943
       5       -0.000012359169    -0.000001273426     0.000005697657
       6        0.000001893596    -0.000004533542    -0.000003708080
       7        0.002084232190     0.003449847452     0.002130631297
       8        0.002237356531     0.002933599267     0.000289156811
       9       -0.000014038582    -0.000008594452     0.000018516535
      10       -0.001113697096    -0.001970603008    -0.001477502751
      11        0.000013507632     0.000005968910     0.000000071779
      12        0.000018514925    -0.000008313304     0.000008065863
      13        0.000010730361    -0.000004974637    -0.000001200903
      14        0.000001366281    -0.000000440407    -0.000009661500
      15       -0.000018080287    -0.000008442806     0.000014565131
      16        0.000001227274     0.000004237984     0.000002063899
      17        0.000006260403    -0.000003050238    -0.000000141738
      18        0.000000403726     0.000000260174    -0.000001231914

  **** Optimization is complete! (in 6 steps) ****
    Final optimized geometry and variables:
    Molecular point group: c1

    Geometry (in Angstrom), charge = 0, multiplicity = 1:

    H           -3.101420525987    -1.047668712778     0.179882292318
    O           -2.286623090118    -0.702589493188    -0.156014324850
    C           -1.962854475558     0.487145407096     0.518518105501
    C           -0.610762518481     0.972045968228     0.026969120012
    H           -2.717961132635     1.247671183905     0.328927039803
    H           -1.928313266603     0.319519219817     1.594411020158
    C            0.553484846737     0.039151406496     0.389679513666
    H           -0.655618582569     1.116687041334    -1.048868959550
    H           -0.432409870946     1.959495181870     0.448956935350
    C            1.724104337762     0.129135402862    -0.590927694993
    H            0.194816927754    -0.985480597071     0.401946962994
    H            0.897880874180     0.260109631480     1.398123446575
    C            2.899102711888    -0.766144489594    -0.200249788587
    H            1.373066622479    -0.145833071908    -1.582507209066
    H            2.065280358891     1.160645314005    -0.662124562089
    H            2.595656682060    -1.807937209621    -0.147271258929
    H            3.707282997912    -0.693241500060    -0.921667693771
    H            3.297739804052    -0.489114114345     0.771797139676

  Mulliken Charges: (a.u.)
   Center  Symbol    Alpha    Beta     Spin     Total
       1     H     0.28060  0.28060  0.00000  0.43879
       2     O     4.36905  4.36905  0.00000 -0.73811
       3     C     2.99841  2.99841  0.00000  0.00318
       4     C     3.16107  3.16107  0.00000 -0.32214
       5     H     0.42920  0.42920  0.00000  0.14160
       6     H     0.43263  0.43263  0.00000  0.13473
       7     C     3.15524  3.15524  0.00000 -0.31049
       8     H     0.41389  0.41389  0.00000  0.17221
       9     H     0.42321  0.42321  0.00000  0.15359
      10     C     3.15289  3.15289  0.00000 -0.30577
      11     H     0.40868  0.40868  0.00000  0.18263
      12     H     0.42608  0.42608  0.00000  0.14784
      13     C     3.23949  3.23949  0.00000 -0.47897
      14     H     0.41974  0.41974  0.00000  0.16051
      15     H     0.42548  0.42548  0.00000  0.14904
      16     H     0.42102  0.42102  0.00000  0.15796
      17     H     0.42025  0.42025  0.00000  0.15949
      18     H     0.42304  0.42304  0.00000  0.15392

   Total alpha = 25.00000, Total beta = 25.00000, Total charge = -0.00000
