  ==> Input File <==

--------------------------------------------------------------------------
set {
	reference rhf
	basis 6-31G*
}

set_num_threads( 4 )
memory 2 gb

molecule MOL {
0 1

O	 -2.042549	 -1.228399	 -0.269030
C	 -1.653912	 -0.146171	 0.050137
C	 -0.332303	 0.024011	 0.778412
C	 -2.438579	 1.106236	 -0.272369
C	 -0.539096	 0.708329	 2.138860
H	 0.152383	 -0.938215	 0.918353
H	 0.309023	 0.639020	 0.156811
C	 0.773044	 0.927087	 2.893489
H	 -1.210455	 0.110765	 2.753090
H	 -1.032707	 1.661612	 1.975337
C	 0.571306	 1.615524	 4.242771
H	 1.266594	 -0.030332	 3.045748
H	 1.443648	 1.523596	 2.279457
H	 -0.068641	 1.025713	 4.892881
H	 0.108751	 2.590373	 4.119667
H	 1.517927	 1.760269	 4.753636
H	 -3.277823	 0.863061	 -0.908988
H	 -1.806773	 1.843019	 -0.759671
H	 -2.802853	 1.554979	 0.648059

	symmetry c1
}
set optking {
	frozen_dihedral = ("
		5 3 2 4
	")
}

ee = optimize('scf')
oeprop('DIPOLE', 'QUADRUPOLE', 'MULLIKEN_CHARGES')
f=open( 'psi4out.xyz', 'w' )
f.write( "19  " )
f.write( str(ee) + "\n" )
f.write( MOL.save_string_xyz() )
f.close()
--------------------------------------------------------------------------

    Molecular point group: c1
  Charge       = 0
  Multiplicity = 1
  Basis Set: 6-31G*
  Basis Set:
  @DF-RHF Final Energy:  -309.06339310322693
    Total Energy =                       -309.0633931032273836
    Molecular point group: c1
  Basis Set: 6-31G*
  Basis Set:
  Basis Set: 6-31G*
  Basis Set:
  @DF-RHF Final Energy:  -309.06430923939587
    Total Energy =                       -309.0643092393958682
  Basis Set: 6-31G*
  Basis Set:
  Basis Set: 6-31G*
  Basis Set:
  @DF-RHF Final Energy:  -309.06461733890166
    Total Energy =                       -309.0646173389017690
  Basis Set: 6-31G*
  Basis Set:
  Basis Set: 6-31G*
  Basis Set:
  @DF-RHF Final Energy:  -309.06465420319023
    Total Energy =                       -309.0646542031901163
  Basis Set: 6-31G*
  Basis Set:
  @DF-RHF Final Energy:  -309.06465604672150
    Total Energy =                       -309.0646560467215522
  @DF-RHF Final Energy:  -309.06466843611037
    Total Energy =                       -309.0646684361104235
  @DF-RHF Final Energy:  -309.06467282147992
    Total Energy =                       -309.0646728214801442
  @DF-RHF Final Energy:  -309.06467474313422
    Total Energy =                       -309.0646747431343897
  Basis Set: 6-31G*
  Basis Set:
  @DF-RHF Final Energy:  -309.06467621617838
    Total Energy =                       -309.0646762161783840
  Basis Set: 6-31G*
  Basis Set:
  Basis Set: 6-31G*
  Basis Set:
  @DF-RHF Final Energy:  -309.06467967270868
    Total Energy =                       -309.0646796727089054
  Basis Set: 6-31G*
  Basis Set:
  Basis Set: 6-31G*
  Basis Set:
  @DF-RHF Final Energy:  -309.06468426378973
    Total Energy =                       -309.0646842637895020
  Basis Set: 6-31G*
  Basis Set:
  Charge       = 0
  Multiplicity = 1
  Basis Set: 6-31G*
  Basis Set:

    Orbital Energies (a.u.)
    -----------------------

    Doubly Occupied:

       1A    -20.547967     2A    -11.324479     3A    -11.233365
       4A    -11.229890     5A    -11.227490     6A    -11.226871
       7A    -11.216952     8A     -1.393217     9A     -1.094275
      10A     -1.029226    11A     -0.982148    12A     -0.893856
      13A     -0.809708    14A     -0.733019    15A     -0.664278
      16A     -0.645532    17A     -0.625691    18A     -0.613474
      19A     -0.582285    20A     -0.575016    21A     -0.554761
      22A     -0.533919    23A     -0.509601    24A     -0.503239
      25A     -0.485359    26A     -0.477867    27A     -0.471254
      28A     -0.397115

  @DF-RHF Final Energy:  -309.06468411641356

   => Energetics <=

    Nuclear Repulsion Energy =            301.1421551972692896
    One-Electron Energy =               -1015.2499707595343352
    Two-Electron Energy =                 405.0431314458517136
    DFT Exchange-Correlation Energy =       0.0000000000000000
    Empirical Dispersion Energy =           0.0000000000000000
    PCM Polarization Energy =               0.0000000000000000
    EFP Energy =                            0.0000000000000000
    Total Energy =                       -309.0646841164133320
    Molecular point group: c1
  Basis Set: 6-31G*
  Basis Set:

  -Total Gradient:
     Atom            X                  Y                   Z
    ------   -----------------  -----------------  -----------------
       1        0.000058420135     0.000004990517    -0.000009750268
       2       -0.000017332549     0.000065350164    -0.000053694923
       3        0.000014663487    -0.000129536638     0.000042112886
       4       -0.000090526745    -0.000054821317     0.000089408114
       5        0.000008829412    -0.000005353101     0.000026864523
       6        0.000007556072     0.000034991535     0.000008134097
       7       -0.000031926670     0.000028505912    -0.000056443407
       8        0.000009969401     0.000000706080     0.000006419074
       9       -0.000052969445     0.000017474642    -0.000012111546
      10        0.000024183321    -0.000005544615     0.000024798131
      11       -0.000013249055     0.000016776806    -0.000023214562
      12       -0.000014861568    -0.000005545149     0.000005959445
      13        0.000018899784    -0.000012350296    -0.000008261232
      14        0.000000928632     0.000001347064    -0.000012075203
      15       -0.000008456264     0.000010556472     0.000009954402
      16        0.000001394839    -0.000001931108    -0.000017482100
      17        0.000022439600    -0.000004680087    -0.000011690995
      18        0.000031763102     0.000014869549     0.000008084144
      19        0.000030274510     0.000024193569    -0.000017010573

  **** Optimization is complete! (in 12 steps) ****
    Final optimized geometry and variables:
    Molecular point group: c1

    Geometry (in Angstrom), charge = 0, multiplicity = 1:

    O           -1.196228901257    -1.690660836888    -1.631843699063
    C           -0.840345513020    -0.590066308136    -1.338238574084
    C            0.460017850559    -0.356116510126    -0.591449299320
    C           -1.678043002285     0.621338494490    -1.695717627220
    C            0.276716795155     0.335194631234     0.767356050531
    H            0.931886051620    -1.322703723229    -0.463415048415
    H            1.110462112094     0.251155457369    -1.218854345299
    C            1.593532164268     0.467599311334     1.534675959690
    H           -0.433075731015    -0.231338657641     1.366534201704
    H           -0.153945851319     1.323529982810     0.627647323401
    C            1.425099569985     1.162255850372     2.885161525862
    H            2.020810017148    -0.520547088899     1.686283412511
    H            2.308097809434     1.020922978230     0.929148884496
    H            0.740040932910     0.613948875823     3.525281345853
    H            1.031518239868     2.167495311230     2.763856068702
    H            2.374059187500     1.239595699723     3.406073845283
    H           -2.409522110141     0.343673592509    -2.441987454539
    H           -1.063338476969     1.436221128637    -2.064272965061
    H           -2.200454956310     0.980415279743    -0.813694143159

  Mulliken Charges: (a.u.)
   Center  Symbol    Alpha    Beta     Spin     Total
       1     O     4.26070  4.26070  0.00000 -0.52141
       2     C     2.73375  2.73375  0.00000  0.53250
       3     C     3.20484  3.20484  0.00000 -0.40968
       4     C     3.29022  3.29022  0.00000 -0.58043
       5     C     3.16389  3.16389  0.00000 -0.32777
       6     H     0.39927  0.39927  0.00000  0.20146
       7     H     0.41275  0.41275  0.00000  0.17450
       8     C     3.15168  3.15168  0.00000 -0.30335
       9     H     0.41404  0.41404  0.00000  0.17193
      10     H     0.41912  0.41912  0.00000  0.16176
      11     C     3.24035  3.24035  0.00000 -0.48070
      12     H     0.41817  0.41817  0.00000  0.16366
      13     H     0.42135  0.42135  0.00000  0.15730
      14     H     0.41957  0.41957  0.00000  0.16086
      15     H     0.42120  0.42120  0.00000  0.15760
      16     H     0.41672  0.41672  0.00000  0.16656
      17     H     0.39613  0.39613  0.00000  0.20774
      18     H     0.41214  0.41214  0.00000  0.17571
      19     H     0.40412  0.40412  0.00000  0.19175

   Total alpha = 28.00000, Total beta = 28.00000, Total charge =  0.00000
