  ==> Input File <==

--------------------------------------------------------------------------
set {
	reference rhf
	basis 6-31G*
}

set_num_threads( 1 )
memory 2 gb

molecule MOL {
0 1

H	 1.967364	 -1.461818	 -0.146590
O	 1.654024	 -0.625927	 -0.460906
C	 1.135793	 0.118896	 0.612333
C	 0.031547	 1.023609	 0.088541
H	 1.915668	 0.729681	 1.063582
H	 0.754543	 -0.542641	 1.387006
C	 -1.134819	 0.293262	 -0.585751
H	 0.474374	 1.714721	 -0.623187
H	 -0.338529	 1.620940	 0.920081
C	 -1.917817	 -0.639439	 0.339494
H	 -0.758119	 -0.268455	 -1.433105
H	 -1.813832	 1.041889	 -0.986690
H	 -2.777680	 -1.057197	 -0.174994
H	 -1.310268	 -1.471279	 0.680599
H	 -2.283753	 -0.111424	 1.216626

	symmetry c1
}
set optking {
	frozen_dihedral = ("
		8 4 7 11,
		2 3 4 8
	")
}

ee = energy('scf')
oeprop('DIPOLE', 'QUADRUPOLE', 'MULLIKEN_CHARGES')
f=open( 'psi4out.xyz', 'w' )
f.write( "15  " )
f.write( str(ee) + "\n" )
f.write( MOL.save_string_xyz() )
f.close()
--------------------------------------------------------------------------

    Molecular point group: c1

    Geometry (in Angstrom), charge = 0, multiplicity = 1:

       Center              X                  Y                   Z               Mass
    ------------   -----------------  -----------------  -----------------  -----------------
           H          1.972365049175    -1.458310999806    -0.146609892292     1.007825032070
           O          1.659025049175    -0.622419999806    -0.460925892292    15.994914619560
           C          1.140794049175     0.122403000194     0.612313107708    12.000000000000
           C          0.036548049175     1.027116000194     0.088521107708    12.000000000000
           H          1.920669049175     0.733188000194     1.063562107708     1.007825032070
           H          0.759544049175    -0.539133999806     1.386986107708     1.007825032070
           C         -1.129817950825     0.296769000194    -0.585770892292    12.000000000000
           H          0.479375049175     1.718228000194    -0.623206892292     1.007825032070
           H         -0.333527950825     1.624447000194     0.920061107708     1.007825032070
           C         -1.912815950825    -0.635931999806     0.339474107708    12.000000000000
           H         -0.753117950825    -0.264947999806    -1.433124892292     1.007825032070
           H         -1.808830950825     1.045396000194    -0.986709892292     1.007825032070
           H         -2.772678950825    -1.053689999806    -0.175013892292     1.007825032070
           H         -1.305266950825    -1.467771999806     0.680579107708     1.007825032070
           H         -2.278751950825    -0.107916999806     1.216606107708     1.007825032070

  Charge       = 0
  Multiplicity = 1
  Basis Set: 6-31G*
  Basis Set:

    Orbital Energies (a.u.)
    -----------------------

    Doubly Occupied:

       1A    -20.553422     2A    -11.267671     3A    -11.211753
       4A    -11.209356     5A    -11.206984     6A     -1.360332
       7A     -1.064139     8A     -0.971063     9A     -0.869712
      10A     -0.774466    11A     -0.705283    12A     -0.648068
      13A     -0.608003    14A     -0.576389    15A     -0.561919
      16A     -0.534288    17A     -0.508770    18A     -0.475695
      19A     -0.467197    20A     -0.454306    21A     -0.428926

  @DF-RHF Final Energy:  -232.14290114955637

   => Energetics <=

    Nuclear Repulsion Energy =            192.0754685418100109
    One-Electron Energy =                -695.5213188078434996
    Two-Electron Energy =                 271.3029491164768388
    DFT Exchange-Correlation Energy =       0.0000000000000000
    Empirical Dispersion Energy =           0.0000000000000000
    PCM Polarization Energy =               0.0000000000000000
    EFP Energy =                            0.0000000000000000
    Total Energy =                       -232.1429011495566783

  Mulliken Charges: (a.u.)
   Center  Symbol    Alpha    Beta     Spin     Total
       1     H     0.27998  0.27998  0.00000  0.44004
       2     O     4.36987  4.36987  0.00000 -0.73975
       3     C     2.99996  2.99996  0.00000  0.00008
       4     C     3.16035  3.16035  0.00000 -0.32070
       5     H     0.42605  0.42605  0.00000  0.14790
       6     H     0.43120  0.43120  0.00000  0.13759
       7     C     3.15378  3.15378  0.00000 -0.30755
       8     H     0.41394  0.41394  0.00000  0.17211
       9     H     0.42544  0.42544  0.00000  0.14912
      10     C     3.24255  3.24255  0.00000 -0.48509
      11     H     0.40844  0.40844  0.00000  0.18312
      12     H     0.42249  0.42249  0.00000  0.15503
      13     H     0.41858  0.41858  0.00000  0.16284
      14     H     0.42335  0.42335  0.00000  0.15330
      15     H     0.42402  0.42402  0.00000  0.15196

   Total alpha = 21.00000, Total beta = 21.00000, Total charge = -0.00000
