  ==> Input File <==

--------------------------------------------------------------------------
set {
	reference rhf
	basis 6-31G*
}

set_num_threads( 4 )
memory 2 gb

molecule MOL {
0 1

O	 -0.682937	 1.318834	 -0.186099
C	 -0.860635	 0.152188	 -0.042321
C	 -2.173363	 -0.477127	 0.338347
O	 0.083258	 -0.765189	 -0.202595
H	 -2.477673	 -1.180929	 -0.427595
H	 -2.923125	 0.290956	 0.455536
H	 -2.058825	 -1.029004	 1.264191
C	 -0.194434	 -2.102549	 0.206246
C	 -0.939976	 -2.869934	 -0.869828
H	 -0.750969	 -2.082628	 1.130914
H	 0.777678	 -2.537415	 0.388975
H	 -1.069510	 -3.902777	 -0.561306
H	 -1.919244	 -2.441007	 -1.041363
H	 -0.383375	 -2.859657	 -1.800690

	symmetry c1
}
set optking {
	frozen_dihedral = ("
		8 4 2 1
	")
}

ee = optimize('scf')
oeprop('DIPOLE', 'QUADRUPOLE', 'MULLIKEN_CHARGES')
f=open( 'psi4out.xyz', 'w' )
f.write( "14  " )
f.write( str(ee) + "\n" )
f.write( MOL.save_string_xyz() )
f.close()
--------------------------------------------------------------------------

    Molecular point group: c1
  Charge       = 0
  Multiplicity = 1
  Basis Set: 6-31G*
  Basis Set:
  @DF-RHF Final Energy:  -305.83484278956882
    Total Energy =                       -305.8348427895689383
    Molecular point group: c1
  Basis Set: 6-31G*
  Basis Set:
  Basis Set: 6-31G*
  Basis Set:
  @DF-RHF Final Energy:  -305.85286866171919
    Total Energy =                       -305.8528686617191283
  Basis Set: 6-31G*
  Basis Set:
  Basis Set: 6-31G*
  Basis Set:
  @DF-RHF Final Energy:  -305.85728887876610
    Total Energy =                       -305.8572888787660986
  Basis Set: 6-31G*
  Basis Set:
  Basis Set: 6-31G*
  Basis Set:
  @DF-RHF Final Energy:  -305.85762493304804
    Total Energy =                       -305.8576249330482142
  Basis Set: 6-31G*
  Basis Set:
  @DF-RHF Final Energy:  -305.85838721055751
    Total Energy =                       -305.8583872105576233
  @DF-RHF Final Energy:  -305.85864008295573
    Total Energy =                       -305.8586400829557306
  @DF-RHF Final Energy:  -305.85874123526708
    Total Energy =                       -305.8587412352670185
  @DF-RHF Final Energy:  -305.85882364607005
    Total Energy =                       -305.8588236460698226
  @DF-RHF Final Energy:  -305.85904377826625
    Total Energy =                       -305.8590437782662548
  @DF-RHF Final Energy:  -305.85934059383504
    Total Energy =                       -305.8593405938351566
  @DF-RHF Final Energy:  -305.85935806732618
    Total Energy =                       -305.8593580673262977
  Basis Set: 6-31G*
  Basis Set:
  @DF-RHF Final Energy:  -305.85936515575725
    Total Energy =                       -305.8593651557569046
  Basis Set: 6-31G*
  Basis Set:
  Basis Set: 6-31G*
  Basis Set:
  @DF-RHF Final Energy:  -305.85936989087804
    Total Energy =                       -305.8593698908782699
  Basis Set: 6-31G*
  Basis Set:
  Basis Set: 6-31G*
  Basis Set:
  @DF-RHF Final Energy:  -305.85937139754014
    Total Energy =                       -305.8593713975400306
  Basis Set: 6-31G*
  Basis Set:
  Charge       = 0
  Multiplicity = 1
  Basis Set: 6-31G*
  Basis Set:

    Orbital Energies (a.u.)
    -----------------------

    Doubly Occupied:

       1A    -20.600241     2A    -20.537323     3A    -11.376956
       4A    -11.301207     5A    -11.243498     6A    -11.232454
       7A     -1.462176     8A     -1.363716     9A     -1.051138
      10A     -1.018305    11A     -0.896583    12A     -0.778574
      13A     -0.700512    14A     -0.688045    15A     -0.657393
      16A     -0.618771    17A     -0.594489    18A     -0.584614
      19A     -0.559081    20A     -0.539372    21A     -0.531529
      22A     -0.499023    23A     -0.441799    24A     -0.433467

  @DF-RHF Final Energy:  -305.85937168415592

   => Energetics <=

    Nuclear Repulsion Energy =            247.0146611294743764
    One-Electron Energy =                -906.3275300079105818
    Two-Electron Energy =                 353.4534971942805441
    DFT Exchange-Correlation Energy =       0.0000000000000000
    Empirical Dispersion Energy =           0.0000000000000000
    PCM Polarization Energy =               0.0000000000000000
    EFP Energy =                            0.0000000000000000
    Total Energy =                       -305.8593716841556898
    Molecular point group: c1
  Basis Set: 6-31G*
  Basis Set:

  -Total Gradient:
     Atom            X                  Y                   Z
    ------   -----------------  -----------------  -----------------
       1        0.000634938586     0.000193909715     0.001581992854
       2       -0.000465049787    -0.000046401817    -0.001484242054
       3        0.000036378493     0.000034444140    -0.000006398442
       4       -0.000949204933    -0.000435195510    -0.001384802301
       5       -0.000005205582    -0.000036365804    -0.000018867867
       6        0.000001485480     0.000002215866    -0.000003807413
       7        0.000008921038    -0.000010615364     0.000012461655
       8        0.000726191847     0.000352852350     0.001282495812
       9        0.000053792980    -0.000035090485     0.000010946606
      10       -0.000009981170    -0.000014315873     0.000006000468
      11       -0.000007457268    -0.000019829501    -0.000001336650
      12       -0.000000562121    -0.000012090772    -0.000007690975
      13       -0.000022478131     0.000031748334     0.000018137189
      14       -0.000001769435    -0.000005265283    -0.000004888881

  **** Optimization is complete! (in 15 steps) ****
    Final optimized geometry and variables:
    Molecular point group: c1

    Geometry (in Angstrom), charge = 0, multiplicity = 1:

    O            0.192960543878     2.082362496440    -0.130814858274
    C           -0.121745669073     0.967871823863     0.115877054536
    C           -1.467915223063     0.629520014366     0.719592020599
    O            0.735425392899    -0.021189977839    -0.135095487886
    H           -1.951161547731    -0.195411270081     0.210801768188
    H           -2.086891868713     1.510946144710     0.651127501601
    H           -1.359429455006     0.364167158976     1.766003488628
    C            0.570233557950    -1.361311080245     0.293054402969
    C            0.114060211228    -2.243104345869    -0.855492571536
    H           -0.110725118671    -1.421993597713     1.130465391336
    H            1.545325876936    -1.671356326436     0.641676738328
    H            0.069242559492    -3.279519063396    -0.535832792432
    H           -0.869208070091    -1.954450299083    -1.211455474036
    H            0.808740322962    -2.167400348141    -1.683528691521

  Mulliken Charges: (a.u.)
   Center  Symbol    Alpha    Beta     Spin     Total
       1     O     4.26665  4.26665  0.00000 -0.53331
       2     C     2.61364  2.61364  0.00000  0.77271
       3     C     3.31107  3.31107  0.00000 -0.62214
       4     O     4.30252  4.30252  0.00000 -0.60503
       5     H     0.40543  0.40543  0.00000  0.18914
       6     H     0.38670  0.38670  0.00000  0.22660
       7     H     0.40039  0.40039  0.00000  0.19922
       8     C     3.00674  3.00674  0.00000 -0.01348
       9     C     3.24875  3.24875  0.00000 -0.49749
      10     H     0.41756  0.41756  0.00000  0.16489
      11     H     0.40320  0.40320  0.00000  0.19361
      12     H     0.41663  0.41663  0.00000  0.16674
      13     H     0.41642  0.41642  0.00000  0.16717
      14     H     0.40431  0.40431  0.00000  0.19137

   Total alpha = 24.00000, Total beta = 24.00000, Total charge =  0.00000
