                              Psi4 1.0.54 Driver

  ==> Input File <==

--------------------------------------------------------------------------
set {
	reference rhf
	basis cc-pvtz
}

set_num_threads( 4 )
memory 2 gb

molecule MOL {
0 1

H	 2.828711	 -0.346904	 0.001083
C	 1.876752	 0.015931	 -0.363450
C	 0.776285	 -0.474665	 0.563092
H	 1.728113	 -0.357244	 -1.367440
H	 1.906171	 1.096574	 -0.386153
N	 -0.540022	 0.017605	 0.071630
H	 0.707111	 -1.548969	 0.573035
H	 0.886169	 -0.084184	 1.560432
O	 -0.604112	 0.353800	 -1.062857
O	 -1.427102	 0.066680	 0.855899

	symmetry c1
}
set optking {
	frozen_dihedral = ("
		9 6 3 2
	")
}

ee,wfn = optimize('scf', return_wfn=True)
oeprop( wfn, 'DIPOLE', 'QUADRUPOLE', 'MULLIKEN_CHARGES')
f=open( 'psi4out.xyz', 'w' )
f.write( "10  " )
f.write( str(ee) + "\n" )
f.write( MOL.save_string_xyz() )
f.close()
--------------------------------------------------------------------------

    Molecular point group: c1
  Charge       = 0
  Multiplicity = 1
  Basis Set: CC-PVTZ
  Basis Set:
  @DF-RHF Final Energy:  -282.81127807397894
    Total Energy =                       -282.8112780739789969
    Molecular point group: c1
  Basis Set: CC-PVTZ
  Basis Set:
  Basis Set: CC-PVTZ
  Basis Set:
  @DF-RHF Final Energy:  -282.80745047184024
    Total Energy =                       -282.8074504718400703
  Basis Set: CC-PVTZ
  Basis Set:
  Basis Set: CC-PVTZ
  Basis Set:
  @DF-RHF Final Energy:  -282.80863098967552
    Total Energy =                       -282.8086309896754074
  Basis Set: CC-PVTZ
  Basis Set:
  Basis Set: CC-PVTZ
  Basis Set:
  @DF-RHF Final Energy:  -282.81275902576016
    Total Energy =                       -282.8127590257603288
  Basis Set: CC-PVTZ
  Basis Set:
  Basis Set: CC-PVTZ
  Basis Set:
  @DF-RHF Final Energy:  -282.81289443186881
    Total Energy =                       -282.8128944318688127
  Basis Set: CC-PVTZ
  Basis Set:
  Basis Set: CC-PVTZ
  Basis Set:
  @DF-RHF Final Energy:  -282.81291358703800
    Total Energy =                       -282.8129135870380537
  Basis Set: CC-PVTZ
  Basis Set:
  Charge       = 0
  Multiplicity = 1
  Basis Set: CC-PVTZ
  Basis Set:

    Orbital Energies (a.u.)
    -----------------------

    Doubly Occupied:

       1A    -20.594153     2A    -20.589858     3A    -15.839579
       4A    -11.303173     5A    -11.244013     6A     -1.638559
       7A     -1.422869     8A     -1.124049     9A     -0.966953
      10A     -0.835272    11A     -0.763562    12A     -0.751557
      13A     -0.732168    14A     -0.640754    15A     -0.594198
      16A     -0.564147    17A     -0.538870    18A     -0.490187
      19A     -0.479854    20A     -0.455529

  @DF-RHF Final Energy:  -282.81291633601018

   => Energetics <=

    Nuclear Repulsion Energy =            186.5710773780365344
    One-Electron Energy =                -755.6293760237244896
    Two-Electron Energy =                 286.2453823096778933
    DFT Exchange-Correlation Energy =       0.0000000000000000
    Empirical Dispersion Energy =           0.0000000000000000
    PCM Polarization Energy =               0.0000000000000000
    EFP Energy =                            0.0000000000000000
    Total Energy =                       -282.8129163360100620
    Molecular point group: c1
  Basis Set: CC-PVTZ
  Basis Set:

  -Total Gradient:
     Atom            X                  Y                   Z
    ------   -----------------  -----------------  -----------------
       1       -0.000003901618     0.000008255874    -0.000004046447
       2       -0.000028014702    -0.000080343486    -0.000093691175
       3        0.000042624079     0.000139231132     0.000079712302
       4        0.000022699480     0.000011483184     0.000006870880
       5       -0.000005135437    -0.000011094857    -0.000001436096
       6       -0.000137525948    -0.000146069469     0.000020272496
       7        0.000002638325    -0.000003986317    -0.000001912400
       8       -0.000041812351     0.000008302748     0.000014452966
       9        0.000113435005     0.000116664027    -0.000090801434
      10        0.000034993159    -0.000042442834     0.000070578905

  **** Optimization is complete! (in 7 steps) ****
    Final optimized geometry and variables:
    Molecular point group: c1

    Geometry (in Angstrom), charge = 0, multiplicity = 1:

    H            2.774946089247    -0.736316588521    -0.214052417017
    C            1.882261850910    -0.203476691931    -0.517980666320
    C            0.756958835313    -0.598981247666     0.410609793159
    H            1.657763638223    -0.457131479498    -1.542415272029
    H            2.081744284810     0.857774789435    -0.462267893009
    N           -0.531946147596     0.095257331100     0.109385261016
    H            0.514867049682    -1.649851012051     0.337336287879
    H            0.958231682779    -0.370793028260     1.443895411303
    O           -0.679149367667     0.568336979576    -0.965402336989
    O           -1.338480818680     0.098772264177     0.977759260573

  Mulliken Charges: (a.u.)
   Center  Symbol    Alpha    Beta     Spin     Total
       1     H     0.44935  0.44935  0.00000  0.10130
       2     C     3.13902  3.13902  0.00000 -0.27804
       3     C     3.04297  3.04297  0.00000 -0.08594
       4     H     0.43880  0.43880  0.00000  0.12240
       5     H     0.44402  0.44402  0.00000  0.11197
       6     N     3.27637  3.27637  0.00000  0.44725
       7     H     0.43514  0.43514  0.00000  0.12972
       8     H     0.43162  0.43162  0.00000  0.13675
       9     O     4.17006  4.17006  0.00000 -0.34013
      10     O     4.17264  4.17264  0.00000 -0.34528

   Total alpha = 20.00000, Total beta = 20.00000, Total charge =  0.00000

*** Psi4 exiting successfully. Buy a developer a beer!
