  ==> Input File <==

--------------------------------------------------------------------------
set {
	reference rhf
	basis 6-31G*
}

set_num_threads( 1 )
memory 2 gb

molecule MOL {
0 1

H	 -2.798360	 -0.862255	 -0.071053
N	 -1.863561	 -0.715187	 0.256814
C	 -1.344686	 0.554728	 -0.219830
H	 -1.300452	 -1.461917	 -0.101532
C	 0.081427	 0.741154	 0.254071
H	 -1.362155	 0.656231	 -1.305829
H	 -1.952773	 1.354456	 0.191809
O	 0.874168	 -0.245412	 -0.342030
H	 0.444037	 1.730782	 -0.023037
H	 0.121165	 0.653424	 1.337565
C	 0.273565	 -1.499099	 -0.413557
H	 0.974969	 -2.172326	 -0.887368
H	 0.033007	 -1.882241	 0.576552
H	 -0.640241	 -1.469091	 -1.003359

	symmetry c1
}
set optking {
	frozen_dihedral = ("
		8 5 3 6,
		6 3 2 4,
		5 8 11 13
	")
}

ee = energy('scf')
oeprop('DIPOLE', 'QUADRUPOLE', 'MULLIKEN_CHARGES')
f=open( 'psi4out.xyz', 'w' )
f.write( "14  " )
f.write( str(ee) + "\n" )
f.write( MOL.save_string_xyz() )
f.close()
--------------------------------------------------------------------------

    Molecular point group: c1

    Geometry (in Angstrom), charge = 0, multiplicity = 1:

       Center              X                  Y                   Z               Mass
    ------------   -----------------  -----------------  -----------------  -----------------
           H         -2.391781760596    -0.597713366808     0.031822014410     1.007825032070
           N         -1.456982760596    -0.450645366808     0.359689014410    14.003074004780
           C         -0.938107760596     0.819269633192    -0.116954985590    12.000000000000
           H         -0.893873760596    -1.197375366808     0.001343014410     1.007825032070
           C          0.488005239404     1.005695633192     0.356946014410    12.000000000000
           H         -0.955576760596     0.920772633192    -1.202953985590     1.007825032070
           H         -1.546194760596     1.618997633192     0.294684014410     1.007825032070
           O          1.280746239404     0.019129633192    -0.239154985590    15.994914619560
           H          0.850615239404     1.995323633192     0.079838014410     1.007825032070
           H          0.527743239404     0.917965633192     1.440440014410     1.007825032070
           C          0.680143239404    -1.234557366808    -0.310681985590    12.000000000000
           H          1.381547239404    -1.907784366808    -0.784492985590     1.007825032070
           H          0.439585239404    -1.617699366808     0.679427014410     1.007825032070
           H         -0.233662760596    -1.204549366808    -0.900483985590     1.007825032070

  Charge       = 0
  Multiplicity = 1
  Basis Set: 6-31G*
  Basis Set:

    Orbital Energies (a.u.)
    -----------------------

    Doubly Occupied:

       1A    -20.558983     2A    -15.518049     3A    -11.267808
       4A    -11.267576     5A    -11.244188     6A     -1.388360
       7A     -1.192837     8A     -1.021585     9A     -0.915468
      10A     -0.838379    11A     -0.725384    12A     -0.685052
      13A     -0.632438    14A     -0.597012    15A     -0.595444
      16A     -0.564294    17A     -0.558072    18A     -0.513181
      19A     -0.442213    20A     -0.415091    21A     -0.375425

  @DF-RHF Final Energy:  -248.03155019039514

   => Energetics <=

    Nuclear Repulsion Energy =            206.5723806195856014
    One-Electron Energy =                -746.5741907322814086
    Two-Electron Energy =                 291.9702599223011248
    DFT Exchange-Correlation Energy =       0.0000000000000000
    Empirical Dispersion Energy =           0.0000000000000000
    PCM Polarization Energy =               0.0000000000000000
    EFP Energy =                            0.0000000000000000
    Total Energy =                       -248.0315501903946824

  Mulliken Charges: (a.u.)
   Center  Symbol    Alpha    Beta     Spin     Total
       1     H     0.33723  0.33723  0.00000  0.32554
       2     N     3.93188  3.93188  0.00000 -0.86376
       3     C     3.09757  3.09757  0.00000 -0.19515
       4     H     0.31894  0.31894  0.00000  0.36211
       5     C     2.98795  2.98795  0.00000  0.02410
       6     H     0.42512  0.42512  0.00000  0.14977
       7     H     0.41359  0.41359  0.00000  0.17281
       8     O     4.30384  4.30384  0.00000 -0.60768
       9     H     0.41531  0.41531  0.00000  0.16938
      10     H     0.41963  0.41963  0.00000  0.16073
      11     C     3.11187  3.11187  0.00000 -0.22374
      12     H     0.41098  0.41098  0.00000  0.17805
      13     H     0.40706  0.40706  0.00000  0.18587
      14     H     0.41903  0.41903  0.00000  0.16195

   Total alpha = 21.00000, Total beta = 21.00000, Total charge =  0.00000
