  ==> Input File <==

--------------------------------------------------------------------------
set {
	reference rhf
	basis cc-pvtz
}

set_num_threads( 4 )
memory 2 gb

molecule MOL {
0 1

H	 -3.401682	 -1.036167	 0.000000
O	 -3.113760	 -0.140926	 0.000000
C	 -1.775087	 -0.058754	 0.000000
C	 -1.013778	 -0.415399	 -1.106186
C	 -1.161962	 0.399745	 1.154140
H	 -1.496700	 -0.770240	 -1.997983
C	 0.355922	 -0.311769	 -1.052564
H	 -1.767508	 0.669525	 1.995895
C	 0.210641	 0.497654	 1.191585
H	 0.954507	 -0.583763	 -1.899220
C	 0.985270	 0.145959	 0.096730
H	 0.687366	 0.853240	 2.086464
C	 2.454277	 0.259298	 0.160261
O	 3.196437	 -0.016997	 -0.722357
H	 2.844326	 0.631003	 1.113937

	symmetry c1
}
set optking {
	frozen_dihedral = ("
		5 3 2 1
	")
}

ee = optimize('scf')
oeprop('DIPOLE', 'QUADRUPOLE', 'MULLIKEN_CHARGES')
f=open( 'psi4out.xyz', 'w' )
f.write( "15  " )
f.write( str(ee) + "\n" )
f.write( MOL.save_string_xyz() )
f.close()
--------------------------------------------------------------------------

    Molecular point group: c1
  Charge       = 0
  Multiplicity = 1
  Basis Set: CC-PVTZ
  Basis Set:
  @DF-RHF Final Energy:  -418.43675772619468
    Total Energy =                       -418.4367577261948554
    Molecular point group: c1
  Basis Set: CC-PVTZ
  Basis Set:
  Basis Set: CC-PVTZ
  Basis Set:
  @DF-RHF Final Energy:  -418.43732040359129
    Total Energy =                       -418.4373204035910021
  Basis Set: CC-PVTZ
  Basis Set:
  Basis Set: CC-PVTZ
  Basis Set:
  @DF-RHF Final Energy:  -418.43729859841739
    Total Energy =                       -418.4372985984172146
  Basis Set: CC-PVTZ
  Basis Set:
  Basis Set: CC-PVTZ
  Basis Set:
  @DF-RHF Final Energy:  -418.43711220247189
    Total Energy =                       -418.4371122024715532
  Basis Set: CC-PVTZ
  Basis Set:
  Basis Set: CC-PVTZ
  Basis Set:
  @DF-RHF Final Energy:  -418.43738456558572
    Total Energy =                       -418.4373845655857167
  Basis Set: CC-PVTZ
  Basis Set:
  Charge       = 0
  Multiplicity = 1
  Basis Set: CC-PVTZ
  Basis Set:

    Orbital Energies (a.u.)
    -----------------------

    Doubly Occupied:

       1A    -20.589026     2A    -20.550432     3A    -11.326171
       4A    -11.313348     5A    -11.257922     6A    -11.252214
       7A    -11.242913     8A    -11.241285     9A    -11.240352
      10A     -1.418537    11A     -1.406569    12A     -1.175708
      13A     -1.045141    14A     -1.041055    15A     -0.890373
      16A     -0.863172    17A     -0.799384    18A     -0.756533
      19A     -0.712969    20A     -0.674171    21A     -0.652122
      22A     -0.635839    23A     -0.622577    24A     -0.610009
      25A     -0.565327    26A     -0.558666    27A     -0.542903
      28A     -0.503162    29A     -0.488198    30A     -0.425067
      31A     -0.360212    32A     -0.344700

  @DF-RHF Final Energy:  -418.43738546284635

   => Energetics <=

    Nuclear Repulsion Energy =            401.7556282328483803
    One-Electron Energy =               -1366.1739147172397679
    Two-Electron Energy =                 545.9809010215445824
    DFT Exchange-Correlation Energy =       0.0000000000000000
    Empirical Dispersion Energy =           0.0000000000000000
    PCM Polarization Energy =               0.0000000000000000
    EFP Energy =                            0.0000000000000000
    Total Energy =                       -418.4373854628468052
    Molecular point group: c1
  Basis Set: CC-PVTZ
  Basis Set:

  -Total Gradient:
     Atom            X                  Y                   Z
    ------   -----------------  -----------------  -----------------
       1       -0.000090805414     0.000005474249     0.002115886548
       2        0.000058633981    -0.000764824554    -0.002358968793
       3       -0.000033325811     0.002176964846    -0.000514011959
       4       -0.000184022557    -0.000033984760     0.000100824948
       5        0.000208199191    -0.001387999275     0.000633173409
       6        0.000004577286     0.000008136484    -0.000006825973
       7        0.000158150211     0.000059879255     0.000106210353
       8       -0.000000648630     0.000000265885    -0.000018202813
       9       -0.000118566239    -0.000056282663     0.000108634424
      10       -0.000012578146    -0.000001420713    -0.000004819954
      11       -0.000000277876    -0.000041000157    -0.000166866790
      12        0.000018428806     0.000013831857    -0.000009876772
      13        0.000016303692     0.000055012223     0.000006513568
      14       -0.000016198218    -0.000021517973     0.000001215149
      15       -0.000007870283    -0.000012534702     0.000007114653

  **** Optimization is complete! (in 6 steps) ****
    Final optimized geometry and variables:
    Molecular point group: c1

    Geometry (in Angstrom), charge = 0, multiplicity = 1:

    H           -3.413681469432    -1.061862346754     0.011520343882
    O           -3.125683682953    -0.165471616986     0.012247661171
    C           -1.767922699882    -0.091968782474     0.053034759019
    C           -1.012935631805    -0.447225682638    -1.056282677132
    C           -1.155395251276     0.366301054121     1.201430042038
    H           -1.510975311374    -0.788072698102    -1.943196327898
    C            0.356975861311    -0.344514533399    -1.009320258020
    H           -1.758547775455     0.638744040234     2.044416752922
    C            0.221426276187     0.474365820046     1.236089392570
    H            0.955036943636    -0.614026150811    -1.857037820271
    C            0.986113348629     0.119143691880     0.139729553537
    H            0.701875028142     0.834057521174     2.127218933440
    C            2.459047541570     0.237420375160     0.199680428874
    O            3.197322769435    -0.046287475863    -0.682230161146
    H            2.849749693897     0.618878047300     1.149068239164

  Mulliken Charges: (a.u.)
   Center  Symbol    Alpha    Beta     Spin     Total
       1     H     0.38520  0.38520  0.00000  0.22959
       2     O     4.18510  4.18510  0.00000 -0.37021
       3     C     2.86372  2.86372  0.00000  0.27257
       4     C     3.11501  3.11501  0.00000 -0.23002
       5     C     3.10678  3.10678  0.00000 -0.21355
       6     H     0.41539  0.41539  0.00000  0.16922
       7     C     3.07075  3.07075  0.00000 -0.14150
       8     H     0.41348  0.41348  0.00000  0.17304
       9     C     3.07612  3.07612  0.00000 -0.15224
      10     H     0.40684  0.40684  0.00000  0.18632
      11     C     2.99617  2.99617  0.00000  0.00767
      12     H     0.42076  0.42076  0.00000  0.15847
      13     C     2.91013  2.91013  0.00000  0.17974
      14     O     4.17535  4.17535  0.00000 -0.35070
      15     H     0.45921  0.45921  0.00000  0.08159

   Total alpha = 32.00000, Total beta = 32.00000, Total charge = -0.00000
