                              Psi4 1.0.54 Driver

  ==> Input File <==

--------------------------------------------------------------------------
set {
	reference rhf
	basis cc-pvtz
}

set_num_threads( 4 )
memory 2 gb

molecule MOL {
0 1

H	 5.269878	 0.195679	 1.068175
C	 4.673900	 -0.208485	 0.258034
C	 3.190199	 -0.204714	 0.610086
H	 4.865136	 0.391893	 -0.624684
H	 5.027838	 -1.214511	 0.056939
C	 2.319208	 -0.778154	 -0.505491
H	 2.876954	 0.809861	 0.827925
H	 3.035335	 -0.782733	 1.518235
C	 2.972333	 -0.731869	 -1.883233
H	 2.060353	 -1.803553	 -0.272295
H	 1.388728	 -0.219632	 -0.550680
C	 4.111434	 -1.718109	 -2.078847
H	 2.236107	 -0.965389	 -2.648220
H	 3.326668	 0.268904	 -2.112187
C	 5.054449	 -1.475553	 -3.241284
O	 4.252599	 -2.658164	 -1.364954
C	 4.378852	 -1.567688	 -4.613670
H	 5.846029	 -2.208691	 -3.165459
H	 5.497952	 -0.490359	 -3.123416
C	 5.371730	 -1.414061	 -5.762695
H	 3.875848	 -2.526932	 -4.699894
H	 3.611525	 -0.805405	 -4.703857
C	 4.713378	 -1.511220	 -7.134649
H	 6.139817	 -2.176635	 -5.675540
H	 5.879142	 -0.457561	 -5.672058
H	 4.223953	 -2.470239	 -7.266662
H	 3.964301	 -0.737475	 -7.266034
H	 5.444075	 -1.401377	 -7.927321

	symmetry c1
}
set optking {
	frozen_dihedral = ("
		10 6 3 2
	")
}

ee,wfn = optimize('scf', return_wfn=True)
oeprop( wfn, 'DIPOLE', 'QUADRUPOLE', 'MULLIKEN_CHARGES')
f=open( 'psi4out.xyz', 'w' )
f.write( "28  " )
f.write( str(ee) + "\n" )
f.write( MOL.save_string_xyz() )
f.close()
--------------------------------------------------------------------------

    Molecular point group: c1
  Charge       = 0
  Multiplicity = 1
  Basis Set: CC-PVTZ
  Basis Set:
  @DF-RHF Final Energy:  -426.30291745012198
    Total Energy =                       -426.3029174501220950
    Molecular point group: c1
  Basis Set: CC-PVTZ
  Basis Set:
  Basis Set: CC-PVTZ
  Basis Set:
  @DF-RHF Final Energy:  -426.27487761192413
    Total Energy =                       -426.2748776119242393
  Basis Set: CC-PVTZ
  Basis Set:
  Basis Set: CC-PVTZ
  Basis Set:
  @DF-RHF Final Energy:  -426.30926237589676
    Total Energy =                       -426.3092623758966511
  Basis Set: CC-PVTZ
  Basis Set:
  Basis Set: CC-PVTZ
  Basis Set:
  @DF-RHF Final Energy:  -426.31081326674916
    Total Energy =                       -426.3108132667496193
  Basis Set: CC-PVTZ
  Basis Set:
  @DF-RHF Final Energy:  -426.31070435410516
    Total Energy =                       -426.3107043541049279
  @DF-RHF Final Energy:  -426.31133005382753
    Total Energy =                       -426.3113300538273052
  @DF-RHF Final Energy:  -426.31150422374685
    Total Energy =                       -426.3115042237469652
  Basis Set: CC-PVTZ
  Basis Set:
  @DF-RHF Final Energy:  -426.31151014068621
    Total Energy =                       -426.3115101406863232
  Basis Set: CC-PVTZ
  Basis Set:
  Basis Set: CC-PVTZ
  Basis Set:
  @DF-RHF Final Energy:  -426.31151290090509
    Total Energy =                       -426.3115129009050861
  Basis Set: CC-PVTZ
  Basis Set:
  Basis Set: CC-PVTZ
  Basis Set:
  @DF-RHF Final Energy:  -426.31153687257279
    Total Energy =                       -426.3115368725732424
  Basis Set: CC-PVTZ
  Basis Set:
  Charge       = 0
  Multiplicity = 1
  Basis Set: CC-PVTZ
  Basis Set:

    Orbital Energies (a.u.)
    -----------------------

    Doubly Occupied:

       1A    -20.535359     2A    -11.316095     3A    -11.229656
       4A    -11.228463     5A    -11.226526     6A    -11.223638
       7A    -11.215459     8A    -11.214300     9A    -11.214087
      10A    -11.205101    11A     -1.395682    12A     -1.095665
      13A     -1.076283    14A     -1.021659    15A     -0.989983
      16A     -0.913781    17A     -0.882071    18A     -0.808655
      19A     -0.791018    20A     -0.721832    21A     -0.669380
      22A     -0.651264    23A     -0.638307    24A     -0.626320
      25A     -0.605678    26A     -0.594909    27A     -0.579329
      28A     -0.553702    29A     -0.550719    30A     -0.536752
      31A     -0.527132    32A     -0.511732    33A     -0.506661
      34A     -0.484702    35A     -0.477996    36A     -0.475297
      37A     -0.471523    38A     -0.457789    39A     -0.453623
      40A     -0.393594

  @DF-RHF Final Energy:  -426.31153780586465

   => Energetics <=

    Nuclear Repulsion Energy =            542.5057457967825485
    One-Electron Energy =               -1653.4911259553523450
    Two-Electron Energy =                 684.6738423527049235
    DFT Exchange-Correlation Energy =       0.0000000000000000
    Empirical Dispersion Energy =           0.0000000000000000
    PCM Polarization Energy =               0.0000000000000000
    EFP Energy =                            0.0000000000000000
    Total Energy =                       -426.3115378058648730
    Molecular point group: c1
  Basis Set: CC-PVTZ
  Basis Set:

  -Total Gradient:
     Atom            X                  Y                   Z
    ------   -----------------  -----------------  -----------------
       1        0.000019798317     0.000058018721     0.000055363273
       2       -0.001346114531     0.002977373394    -0.001910336626
       3        0.000808078188    -0.004260286944     0.003262902670
       4       -0.000013445896     0.000022296488    -0.000071651109
       5        0.000050147254    -0.000065392903     0.000021804555
       6        0.004999137670     0.000825628351    -0.003566353953
       7       -0.000020226734     0.000026400569     0.000015089963
       8       -0.000005139776    -0.000021839876     0.000004980639
       9        0.000055046798    -0.000007712451     0.000043507345
      10       -0.004497607185     0.000423359614     0.002184111125
      11       -0.000041961958     0.000006264674    -0.000000905524
      12       -0.000058753551    -0.000009885860    -0.000053219161
      13       -0.000023805605    -0.000012825529    -0.000025713466
      14        0.000010607801     0.000053723656     0.000007054530
      15       -0.000001478594     0.000028882435    -0.000014666531
      16        0.000035588620    -0.000060573004     0.000092638158
      17        0.000004575988     0.000021673340     0.000040843556
      18        0.000030625344    -0.000022832354     0.000004382879
      19        0.000011429276     0.000031414309    -0.000023151260
      20       -0.000022853671    -0.000004348538    -0.000051469279
      21       -0.000012819152    -0.000070461249     0.000003053154
      22       -0.000075435076     0.000034687989     0.000014046130
      23        0.000055066549     0.000010855542     0.000032396821
      24        0.000059833776    -0.000034513979    -0.000015780218
      25        0.000017182713     0.000070346938    -0.000006929376
      26       -0.000016677329    -0.000074040339    -0.000002299166
      27       -0.000054053610     0.000042347325     0.000005078318
      28        0.000033254371     0.000011439681    -0.000044777445

  **** Optimization is complete! (in 11 steps) ****
    Final optimized geometry and variables:
    Molecular point group: c1

    Geometry (in Angstrom), charge = 0, multiplicity = 1:

    H            0.655303827820     2.163105995954     3.807691758490
    C            0.355693593609     1.509227267299     2.996518649542
    C           -1.075357718005     1.024160120067     3.222616765169
    H            0.447887786818     2.079226605618     2.078695381565
    H            1.060412248124     0.688433038087     2.957333024633
    C           -1.691092365154     0.095824022211     2.150492298409
    H           -1.704936368076     1.904868861825     3.311513892952
    H           -1.131653824153     0.522155401921     4.181392585525
    C           -1.145881041063     0.202183822121     0.728587740374
    H           -1.639508335326    -0.933223768403     2.478936515532
    H           -2.751694404909     0.321337343635     2.103589452539
    C            0.163778507543    -0.526296827774     0.476969603228
    H           -1.861143233114    -0.251455139402     0.046595795238
    H           -1.056188063734     1.234780251197     0.409552240665
    C            0.970213536746    -0.112661077420    -0.738513407206
    O            0.529318238464    -1.412773662414     1.179422615034
    C            0.262429355740    -0.401762871481    -2.066989084235
    H            1.909843784283    -0.646516324190    -0.693847005774
    H            1.183787819273     0.950344821852    -0.667656114541
    C            1.128138870264    -0.055538228868    -3.275552207974
    H           -0.004644737599    -1.454217187070    -2.106207513949
    H           -0.666552170734     0.156968243423    -2.124086480665
    C            0.437455824505    -0.344176388322    -4.603956297781
    H            2.056984717092    -0.615591860672    -3.221969256550
    H            1.401703385810     0.995146349745    -3.231067999270
    H            0.180631554253    -1.394559514049    -4.691194763392
    H           -0.478546725661     0.228976801674    -4.702478985026
    H            1.077703746525    -0.089957169037    -5.440577972513

  Mulliken Charges: (a.u.)
   Center  Symbol    Alpha    Beta     Spin     Total
       1     H     0.44271  0.44271  0.00000  0.11457
       2     C     3.16478  3.16478  0.00000 -0.32956
       3     C     3.08239  3.08239  0.00000 -0.16479
       4     H     0.45908  0.45908  0.00000  0.08184
       5     H     0.44252  0.44252  0.00000  0.11497
       6     C     3.09810  3.09810  0.00000 -0.19620
       7     H     0.45493  0.45493  0.00000  0.09014
       8     H     0.44940  0.44940  0.00000  0.10121
       9     C     3.13216  3.13216  0.00000 -0.26432
      10     H     0.44139  0.44139  0.00000  0.11722
      11     H     0.44657  0.44657  0.00000  0.10686
      12     C     2.86079  2.86079  0.00000  0.27842
      13     H     0.43181  0.43181  0.00000  0.13639
      14     H     0.44056  0.44056  0.00000  0.11888
      15     C     3.09356  3.09356  0.00000 -0.18712
      16     O     4.18103  4.18103  0.00000 -0.36207
      17     C     3.10043  3.10043  0.00000 -0.20086
      18     H     0.43817  0.43817  0.00000  0.12366
      19     H     0.44841  0.44841  0.00000  0.10317
      20     C     3.08710  3.08710  0.00000 -0.17421
      21     H     0.44534  0.44534  0.00000  0.10933
      22     H     0.45046  0.45046  0.00000  0.09907
      23     C     3.14935  3.14935  0.00000 -0.29871
      24     H     0.44982  0.44982  0.00000  0.10036
      25     H     0.45366  0.45366  0.00000  0.09268
      26     H     0.45341  0.45341  0.00000  0.09319
      27     H     0.45524  0.45524  0.00000  0.08953
      28     H     0.44683  0.44683  0.00000  0.10634

   Total alpha = 40.00000, Total beta = 40.00000, Total charge = -0.00000

*** Psi4 exiting successfully. Buy a developer a beer!
