  ==> Input File <==

--------------------------------------------------------------------------
set {
	reference rhf
	basis 6-31G*
}

set_num_threads( 4 )
memory 2 gb

molecule MOL {
0 1

H	 -3.161837	 0.500524	 -0.000234
C	 -2.367097	 -0.232926	 -0.000000
O	 -1.158440	 0.455814	 -0.000122
H	 -2.468853	 -0.861886	 -0.882833
H	 -2.468942	 -0.861421	 0.883154
C	 -0.029776	 -0.365156	 0.000148
C	 0.898300	 0.077778	 1.117800
H	 0.479903	 -0.302943	 -0.962274
H	 -0.322922	 -1.406283	 0.141667
C	 2.167682	 -0.769452	 1.193644
H	 1.152932	 1.121374	 0.960531
H	 0.355801	 0.025721	 2.056780
H	 2.738596	 -0.711655	 0.271072
H	 2.810865	 -0.431995	 1.999425
H	 1.935777	 -1.815368	 1.374429

	symmetry c1
}
set optking {
	frozen_dihedral = ("
		8 6 3 2
	")
}

ee = optimize('scf')
oeprop('DIPOLE', 'QUADRUPOLE', 'MULLIKEN_CHARGES')
f=open( 'psi4out.xyz', 'w' )
f.write( "15  " )
f.write( str(ee) + "\n" )
f.write( MOL.save_string_xyz() )
f.close()
--------------------------------------------------------------------------

    Molecular point group: c1
  Charge       = 0
  Multiplicity = 1
  Basis Set: 6-31G*
  Basis Set:
  @DF-RHF Final Energy:  -232.13545013399875
    Total Energy =                       -232.1354501339988587
    Molecular point group: c1
  Basis Set: 6-31G*
  Basis Set:
  Basis Set: 6-31G*
  Basis Set:
  @DF-RHF Final Energy:  -232.13573753235480
    Total Energy =                       -232.1357375323547672
  Basis Set: 6-31G*
  Basis Set:
  Basis Set: 6-31G*
  Basis Set:
  @DF-RHF Final Energy:  -232.13582436342872
    Total Energy =                       -232.1358243634288669
  Basis Set: 6-31G*
  Basis Set:
  Basis Set: 6-31G*
  Basis Set:
  @DF-RHF Final Energy:  -232.13582556508715
    Total Energy =                       -232.1358255650872024
  Basis Set: 6-31G*
  Basis Set:
  Charge       = 0
  Multiplicity = 1
  Basis Set: 6-31G*
  Basis Set:

    Orbital Energies (a.u.)
    -----------------------

    Doubly Occupied:

       1A    -20.550212     2A    -11.265903     3A    -11.264799
       4A    -11.213846     5A    -11.212823     6A     -1.373525
       7A     -1.056379     8A     -0.956121     9A     -0.878601
      10A     -0.808092    11A     -0.670781    12A     -0.652588
      13A     -0.633640    14A     -0.601490    15A     -0.568316
      16A     -0.539949    17A     -0.503970    18A     -0.492496
      19A     -0.480500    20A     -0.462435    21A     -0.405043

  @DF-RHF Final Energy:  -232.13582565008807

   => Energetics <=

    Nuclear Repulsion Energy =            189.8675363779440772
    One-Electron Energy =                -690.8237051832620637
    Two-Electron Energy =                 268.8203431552298071
    DFT Exchange-Correlation Energy =       0.0000000000000000
    Empirical Dispersion Energy =           0.0000000000000000
    PCM Polarization Energy =               0.0000000000000000
    EFP Energy =                            0.0000000000000000
    Total Energy =                       -232.1358256500881794
    Molecular point group: c1
  Basis Set: 6-31G*
  Basis Set:

  -Total Gradient:
     Atom            X                  Y                   Z
    ------   -----------------  -----------------  -----------------
       1        0.000005095862    -0.000003075220     0.000001281273
       2       -0.000032264796     0.000007515206     0.001176846779
       3        0.000268137994     0.000252196208    -0.001562332624
       4       -0.000002886021    -0.000001403649     0.000001171733
       5       -0.000002081567     0.000000650396    -0.000004014115
       6       -0.001027092158    -0.001331228923    -0.000097877683
       7       -0.000009607104    -0.000011044848    -0.000001779619
       8        0.000789404417     0.001091200882     0.000482095537
       9        0.000001390202    -0.000009341695     0.000002023843
      10        0.000008367242     0.000011578978    -0.000003338240
      11        0.000002644625    -0.000003434916     0.000002587765
      12       -0.000003595090     0.000000559791    -0.000000416760
      13       -0.000001816842    -0.000005347105    -0.000000022061
      14        0.000005846726    -0.000001791905     0.000000655653
      15       -0.000001543488     0.000002966798     0.000003118520

  **** Optimization is complete! (in 5 steps) ****
    Final optimized geometry and variables:
    Molecular point group: c1

    Geometry (in Angstrom), charge = 0, multiplicity = 1:

    H           -3.034707454500     0.724070258919    -0.478688310853
    C           -2.265530296851    -0.036404374738    -0.475954331552
    O           -1.035315085724     0.614811508950    -0.465493417481
    H           -2.387115094376    -0.657578124748    -1.361259805416
    H           -2.395682098299    -0.662039047530     0.404929102045
    C            0.096401000321    -0.212222155513    -0.428619942679
    C            1.031743445168     0.244112642519     0.681398033723
    H            0.606389277384    -0.154324922056    -1.387541669389
    H           -0.190020744603    -1.249810490098    -0.271760494854
    C            2.321771821501    -0.573305957729     0.733879419594
    H            1.260069862563     1.294173340953     0.526166133206
    H            0.505760982361     0.176797438764     1.629703850001
    H            2.875204650850    -0.498516899734    -0.198062951307
    H            2.970998305100    -0.224681944495     1.530093567613
    H            2.118023191786    -1.625592504778     0.913283653020

  Mulliken Charges: (a.u.)
   Center  Symbol    Alpha    Beta     Spin     Total
       1     H     0.41313  0.41313  0.00000  0.17374
       2     C     3.07898  3.07898  0.00000 -0.15796
       3     O     4.30880  4.30880  0.00000 -0.61759
       4     H     0.42995  0.42995  0.00000  0.14010
       5     H     0.43063  0.43063  0.00000  0.13874
       6     C     2.98398  2.98398  0.00000  0.03205
       7     C     3.15778  3.15778  0.00000 -0.31556
       8     H     0.42545  0.42545  0.00000  0.14910
       9     H     0.43201  0.43201  0.00000  0.13597
      10     C     3.24883  3.24883  0.00000 -0.49767
      11     H     0.41357  0.41357  0.00000  0.17285
      12     H     0.41933  0.41933  0.00000  0.16134
      13     H     0.42022  0.42022  0.00000  0.15957
      14     H     0.41554  0.41554  0.00000  0.16893
      15     H     0.42181  0.42181  0.00000  0.15639

   Total alpha = 21.00000, Total beta = 21.00000, Total charge =  0.00000
