                              Psi4 1.0.54 Driver

  ==> Input File <==

--------------------------------------------------------------------------
set {
	reference rhf
	basis cc-pvtz
}

set_num_threads( 4 )
memory 2 gb

molecule MOL {
0 1

H	 2.614283	 2.028610	 0.296620
O	 3.358864	 1.662087	 -0.142800
C	 3.565468	 0.338079	 0.273842
C	 4.662699	 0.195083	 1.318026
H	 2.623402	 0.009464	 0.691579
H	 3.778545	 -0.300061	 -0.581626
C	 6.059509	 0.549097	 0.812610
H	 4.412511	 0.820410	 2.169806
H	 4.657447	 -0.833953	 1.669389
C	 7.138661	 0.362054	 1.878106
H	 6.066209	 1.577878	 0.468275
H	 6.298435	 -0.071153	 -0.049649
C	 8.568098	 0.631674	 1.404536
H	 6.915591	 1.002170	 2.728235
H	 7.086097	 -0.658579	 2.246909
C	 8.867686	 2.086761	 1.048567
H	 9.251676	 0.320492	 2.189657
H	 8.786901	 -0.000662	 0.546963
C	 10.329779	 2.322203	 0.678078
H	 8.605847	 2.722576	 1.891566
H	 8.241286	 2.405587	 0.220935
C	 10.631547	 3.773242	 0.318477
H	 10.963286	 2.017688	 1.506642
H	 10.595347	 1.681505	 -0.158607
H	 10.406614	 4.436676	 1.147029
H	 11.676812	 3.905856	 0.063641
H	 10.040618	 4.097173	 -0.531949

	symmetry c1
}
set optking {
	frozen_dihedral = ("
		4 3 2 1
	")
}

ee,wfn = optimize('scf', return_wfn=True)
oeprop( wfn, 'DIPOLE', 'QUADRUPOLE', 'MULLIKEN_CHARGES')
f=open( 'psi4out.xyz', 'w' )
f.write( "27  " )
f.write( str(ee) + "\n" )
f.write( MOL.save_string_xyz() )
f.close()
--------------------------------------------------------------------------

    Molecular point group: c1
  Charge       = 0
  Multiplicity = 1
  Basis Set: CC-PVTZ
  Basis Set:
  @DF-RHF Final Energy:  -388.42566085515159
    Total Energy =                       -388.4256608551525005
    Molecular point group: c1
  Basis Set: CC-PVTZ
  Basis Set:
  Basis Set: CC-PVTZ
  Basis Set:
  @DF-RHF Final Energy:  -388.42681553711111
    Total Energy =                       -388.4268155371116791
  Basis Set: CC-PVTZ
  Basis Set:
  Basis Set: CC-PVTZ
  Basis Set:
  @DF-RHF Final Energy:  -388.41638883726625
    Total Energy =                       -388.4163888372664815
  Basis Set: CC-PVTZ
  Basis Set:
  Basis Set: CC-PVTZ
  Basis Set:
  @DF-RHF Final Energy:  -388.42717191001014
    Total Energy =                       -388.4271719100102018
  Basis Set: CC-PVTZ
  Basis Set:
  Basis Set: CC-PVTZ
  Basis Set:
  @DF-RHF Final Energy:  -388.42721584935487
    Total Energy =                       -388.4272158493546385
  Basis Set: CC-PVTZ
  Basis Set:
  Charge       = 0
  Multiplicity = 1
  Basis Set: CC-PVTZ
  Basis Set:

    Orbital Energies (a.u.)
    -----------------------

    Doubly Occupied:

       1A    -20.545746     2A    -11.266107     3A    -11.211029
       4A    -11.208878     5A    -11.208105     6A    -11.207212
       7A    -11.205526     8A    -11.205003     9A    -11.202798
      10A     -1.363127    11A     -1.089997    12A     -1.057799
      13A     -1.008959    14A     -0.944100    15A     -0.881707
      16A     -0.816053    17A     -0.798222    18A     -0.772825
      19A     -0.696048    20A     -0.648531    21A     -0.640724
      22A     -0.607068    23A     -0.597036    24A     -0.584953
      25A     -0.569352    26A     -0.551459    27A     -0.535953
      28A     -0.522949    29A     -0.508735    30A     -0.492953
      31A     -0.476609    32A     -0.468178    33A     -0.463334
      34A     -0.455865    35A     -0.449266    36A     -0.436885
      37A     -0.422940

  @DF-RHF Final Energy:  -388.42721576329882

   => Energetics <=

    Nuclear Repulsion Energy =            460.3784909089299617
    One-Electron Energy =               -1439.3673448435388309
    Two-Electron Energy =                 590.5616381713102783
    DFT Exchange-Correlation Energy =       0.0000000000000000
    Empirical Dispersion Energy =           0.0000000000000000
    PCM Polarization Energy =               0.0000000000000000
    EFP Energy =                            0.0000000000000000
    Total Energy =                       -388.4272157632985909
    Molecular point group: c1
  Basis Set: CC-PVTZ
  Basis Set:

  -Total Gradient:
     Atom            X                  Y                   Z
    ------   -----------------  -----------------  -----------------
       1       -0.000734736634    -0.000549648019    -0.000927658697
       2        0.001185378207     0.000580517230     0.000922593541
       3       -0.001061750985     0.000182114462     0.000501858709
       4        0.000597543927    -0.000109276685    -0.000502431811
       5        0.000003160211    -0.000036507801     0.000015497024
       6        0.000001360647     0.000041925981    -0.000022816792
       7        0.000027147725    -0.000106133378    -0.000028166298
       8        0.000001217568     0.000003005792     0.000047542220
       9        0.000021314535     0.000023843196    -0.000046750682
      10       -0.000004027073    -0.000034104246     0.000034424259
      11        0.000025407820    -0.000002221798    -0.000020997121
      12       -0.000009755056    -0.000005605861    -0.000013280381
      13        0.000016398581     0.000039251611     0.000029292021
      14        0.000012737955    -0.000026655844     0.000026616404
      15        0.000021312526     0.000001637447    -0.000030062294
      16       -0.000023740331     0.000007670997     0.000054131896
      17       -0.000005627740     0.000027475370    -0.000008492754
      18       -0.000017034386    -0.000010195889     0.000029151544
      19        0.000002796073    -0.000018091837    -0.000041716560
      20        0.000006848728     0.000000611608    -0.000006491203
      21       -0.000042562474    -0.000011218921    -0.000015411080
      22       -0.000003309398     0.000004733742     0.000008437239
      23       -0.000025200877     0.000009448670    -0.000014879142
      24        0.000003017809    -0.000006225185     0.000008245751
      25        0.000005669020    -0.000008280671    -0.000012043187
      26        0.000001939883     0.000004243072     0.000007217575
      27       -0.000005506270    -0.000002313044     0.000006189816

  **** Optimization is complete! (in 6 steps) ****
    Final optimized geometry and variables:
    Molecular point group: c1

    Geometry (in Angstrom), charge = 0, multiplicity = 1:

    H           -4.107707380418     0.609005419525    -1.170403972309
    O           -3.350292915576     0.116724322922    -1.423338017257
    C           -3.311983548003    -1.109236426718    -0.734363156418
    C           -2.361755112901    -1.075096151125     0.451941286161
    H           -4.307218503204    -1.391241773314    -0.404551377992
    H           -2.985965322773    -1.861149003298    -1.444240644268
    C           -0.910101208803    -0.812450155576     0.061854869773
    H           -2.697343285255    -0.311495036720     1.149812099292
    H           -2.435879422330    -2.026844324550     0.973360066080
    C            0.022966105518    -0.742788476112     1.269307113392
    H           -0.864079521906     0.108453333657    -0.504748219323
    H           -0.573173664345    -1.603405111969    -0.605235707725
    C            1.502761926001    -0.558056278152     0.928224984760
    H           -0.296330356579     0.065647761265     1.923237907415
    H           -0.084281618116    -1.657356633298     1.846816547955
    C            1.853459286292     0.783697056358     0.287928381432
    H            2.081638100841    -0.667555054513     1.841373507212
    H            1.821490322362    -1.363859965402     0.270893896925
    C            3.350211936609     0.955712983563     0.042621805065
    H            1.502013431857     1.588767250865     0.929830390528
    H            1.327958871276     0.895148240765    -0.655152738627
    C            3.703143793048     2.293294405410    -0.599378623644
    H            3.882519683864     0.857405674062     0.984852450236
    H            3.704502160177     0.147823829650    -0.592015781088
    H            3.391282768886     3.122405828780     0.027215919753
    H            4.771682135797     2.383573652335    -0.758667529862
    H            3.214622025747     2.406569482285    -1.561460174542

  Mulliken Charges: (a.u.)
   Center  Symbol    Alpha    Beta     Spin     Total
       1     H     0.39351  0.39351  0.00000  0.21299
       2     O     4.20405  4.20405  0.00000 -0.40810
       3     C     2.98094  2.98094  0.00000  0.03813
       4     C     3.08749  3.08749  0.00000 -0.17497
       5     H     0.46119  0.46119  0.00000  0.07762
       6     H     0.46251  0.46251  0.00000  0.07498
       7     C     3.09394  3.09394  0.00000 -0.18788
       8     H     0.45971  0.45971  0.00000  0.08057
       9     H     0.45579  0.45579  0.00000  0.08842
      10     C     3.09825  3.09825  0.00000 -0.19651
      11     H     0.44223  0.44223  0.00000  0.11554
      12     H     0.45653  0.45653  0.00000  0.08693
      13     C     3.09757  3.09757  0.00000 -0.19515
      14     H     0.45409  0.45409  0.00000  0.09183
      15     H     0.45016  0.45016  0.00000  0.09968
      16     C     3.08810  3.08810  0.00000 -0.17621
      17     H     0.44933  0.44933  0.00000  0.10134
      18     H     0.45426  0.45426  0.00000  0.09149
      19     C     3.08383  3.08383  0.00000 -0.16766
      20     H     0.45594  0.45594  0.00000  0.08812
      21     H     0.45139  0.45139  0.00000  0.09722
      22     C     3.14975  3.14975  0.00000 -0.29950
      23     H     0.45483  0.45483  0.00000  0.09034
      24     H     0.45497  0.45497  0.00000  0.09007
      25     H     0.45564  0.45564  0.00000  0.08871
      26     H     0.44912  0.44912  0.00000  0.10176
      27     H     0.45487  0.45487  0.00000  0.09027

   Total alpha = 37.00000, Total beta = 37.00000, Total charge = -0.00000

*** Psi4 exiting successfully. Buy a developer a beer!
