  ==> Input File <==

--------------------------------------------------------------------------
set {
	reference rhf
	basis cc-pvtz
}

set_num_threads( 4 )
memory 2 gb

molecule MOL {
0 1

H	 -2.498963	 -0.741158	 -0.729149
O	 -2.346257	 -0.289210	 0.080372
C	 -1.183935	 0.486039	 -0.009831
C	 0.062853	 -0.375310	 0.027457
H	 -1.178881	 1.094526	 -0.908634
H	 -1.184406	 1.155156	 0.838676
O	 0.074443	 -1.176486	 -1.108075
H	 0.063797	 -0.989854	 0.929250
H	 0.943819	 0.261864	 0.065955
C	 1.185479	 -2.003381	 -1.222376
H	 1.254056	 -2.694841	 -0.385445
H	 1.082948	 -2.571347	 -2.135387
H	 2.106482	 -1.427105	 -1.269064

	symmetry c1
}
set optking {
	frozen_dihedral = ("
		8 4 3 5
	")
}

ee = optimize('scf')
oeprop('DIPOLE', 'QUADRUPOLE', 'MULLIKEN_CHARGES')
f=open( 'psi4out.xyz', 'w' )
f.write( "13  " )
f.write( str(ee) + "\n" )
f.write( MOL.save_string_xyz() )
f.close()
--------------------------------------------------------------------------

    Molecular point group: c1
  Charge       = 0
  Multiplicity = 1
  Basis Set: CC-PVTZ
  Basis Set:
  @DF-RHF Final Energy:  -268.06466913388533
    Total Energy =                       -268.0646691338852747
    Molecular point group: c1
  Basis Set: CC-PVTZ
  Basis Set:
  Basis Set: CC-PVTZ
  Basis Set:
  @DF-RHF Final Energy:  -268.06544487648887
    Total Energy =                       -268.0654448764892095
  Basis Set: CC-PVTZ
  Basis Set:
  Basis Set: CC-PVTZ
  Basis Set:
  @DF-RHF Final Energy:  -268.06555010021930
    Total Energy =                       -268.0655501002190704
  Basis Set: CC-PVTZ
  Basis Set:
  Basis Set: CC-PVTZ
  Basis Set:
  @DF-RHF Final Energy:  -268.06555940648991
    Total Energy =                       -268.0655594064900242
  Basis Set: CC-PVTZ
  Basis Set:
  Basis Set: CC-PVTZ
  Basis Set:
  @DF-RHF Final Energy:  -268.06556065935990
    Total Energy =                       -268.0655606593600169
  Basis Set: CC-PVTZ
  Basis Set:
  Charge       = 0
  Multiplicity = 1
  Basis Set: CC-PVTZ
  Basis Set:

    Orbital Energies (a.u.)
    -----------------------

    Doubly Occupied:

       1A    -20.560561     2A    -20.543053     3A    -11.271599
       4A    -11.270975     5A    -11.266936     6A     -1.397215
       7A     -1.359695     8A     -1.021664     9A     -0.921615
      10A     -0.837180    11A     -0.705871    12A     -0.683095
      13A     -0.666669    14A     -0.636724    15A     -0.588969
      16A     -0.581042    17A     -0.542986    18A     -0.493863
      19A     -0.487414    20A     -0.436307    21A     -0.430470

  @DF-RHF Final Energy:  -268.06556078381664

   => Energetics <=

    Nuclear Repulsion Energy =            194.5272539128308438
    One-Electron Energy =                -751.7778194668117067
    Two-Electron Energy =                 289.1850047701642552
    DFT Exchange-Correlation Energy =       0.0000000000000000
    Empirical Dispersion Energy =           0.0000000000000000
    PCM Polarization Energy =               0.0000000000000000
    EFP Energy =                            0.0000000000000000
    Total Energy =                       -268.0655607838166361
    Molecular point group: c1
  Basis Set: CC-PVTZ
  Basis Set:

  -Total Gradient:
     Atom            X                  Y                   Z
    ------   -----------------  -----------------  -----------------
       1       -0.000004910874    -0.000004366602    -0.000002585748
       2       -0.000006105118    -0.000007483321    -0.000005041731
       3        0.000200847028     0.000304911684     0.000223211748
       4        0.000228618360     0.000321756061     0.000208392025
       5       -0.000193993058    -0.000314261370    -0.000216883444
       6        0.000005628955    -0.000001840120     0.000000776286
       7       -0.000014771939     0.000003562230     0.000002043534
       8       -0.000211089005    -0.000306155433    -0.000223587030
       9        0.000000727240     0.000002104770     0.000004546944
      10       -0.000002332066    -0.000003973662     0.000008338549
      11        0.000003031769    -0.000001215891    -0.000000309765
      12       -0.000002736086     0.000003056591     0.000000507617
      13       -0.000002915207     0.000003905064     0.000000591017

  **** Optimization is complete! (in 6 steps) ****
    Final optimized geometry and variables:
    Molecular point group: c1

    Geometry (in Angstrom), charge = 0, multiplicity = 1:

    H           -1.850161039550    -0.232811158268    -0.207687483178
    O           -1.880981782744     0.382396490850     0.503937795406
    C           -0.727149905940     1.167856195888     0.463985493418
    C            0.529803454989     0.330004837904     0.486055427794
    H           -0.719905696491     1.797707173309    -0.421550919095
    H           -0.748857610077     1.809918690768     1.334659732331
    O            0.547248003760    -0.453766485805    -0.668249172203
    H            0.533057849204    -0.305157048834     1.369400738159
    H            1.406394363646     0.975228047118     0.523851454964
    C            1.613078754142    -1.342865158121    -0.751580145964
    H            1.605842334668    -2.049339401037     0.074760850852
    H            1.517783939752    -1.888792304540    -1.678774500644
    H            2.566286802015    -0.819569724959    -0.749957537099

  Mulliken Charges: (a.u.)
   Center  Symbol    Alpha    Beta     Spin     Total
       1     H     0.38635  0.38635  0.00000  0.22730
       2     O     4.20876  4.20876  0.00000 -0.41751
       3     C     2.96118  2.96118  0.00000  0.07764
       4     C     2.97699  2.97699  0.00000  0.04602
       5     H     0.46951  0.46951  0.00000  0.06097
       6     H     0.45833  0.45833  0.00000  0.08335
       7     O     4.18369  4.18369  0.00000 -0.36738
       8     H     0.46871  0.46871  0.00000  0.06258
       9     H     0.47127  0.47127  0.00000  0.05746
      10     C     3.03025  3.03025  0.00000 -0.06050
      11     H     0.46888  0.46888  0.00000  0.06224
      12     H     0.44653  0.44653  0.00000  0.10694
      13     H     0.46955  0.46955  0.00000  0.06089

   Total alpha = 21.00000, Total beta = 21.00000, Total charge =  0.00000
