                              Psi4 1.0.54 Driver

  ==> Input File <==

--------------------------------------------------------------------------
set {
	reference rhf
	basis cc-pvtz
}

set_num_threads( 4 )
memory 2 gb

molecule MOL {
0 1

H	 2.905802	 1.730154	 -1.258553
N	 2.141834	 1.089441	 -1.296711
C	 1.860978	 0.530248	 0.016256
H	 2.391962	 0.371119	 -1.943857
C	 0.644130	 -0.381765	 -0.031064
H	 1.663501	 1.355297	 0.692425
H	 2.705840	 -0.020081	 0.432551
C	 -0.678115	 0.376691	 0.025731
H	 0.693998	 -0.977147	 -0.936845
H	 0.693309	 -1.082142	 0.800523
C	 -1.900706	 -0.535531	 -0.022488
H	 -0.725296	 1.079516	 -0.802982
H	 -0.715474	 0.974884	 0.933278
C	 -3.220513	 0.226854	 0.028039
H	 -1.865036	 -1.134397	 -0.928236
H	 -1.857948	 -1.236381	 0.806820
H	 -3.309098	 0.911849	 -0.808725
H	 -4.066838	 -0.449485	 -0.008086
H	 -3.301685	 0.809374	 0.939860

	symmetry c1
}
set optking {
	frozen_dihedral = ("
		6 3 5 9
	")
}

ee,wfn = optimize('scf', return_wfn=True)
oeprop( wfn, 'DIPOLE', 'QUADRUPOLE', 'MULLIKEN_CHARGES')
f=open( 'psi4out.xyz', 'w' )
f.write( "19  " )
f.write( str(ee) + "\n" )
f.write( MOL.save_string_xyz() )
f.close()
--------------------------------------------------------------------------

    Molecular point group: c1
  Charge       = 0
  Multiplicity = 1
  Basis Set: CC-PVTZ
  Basis Set:
  @DF-RHF Final Energy:  -251.44630340303752
    Total Energy =                       -251.4463034030372910
    Molecular point group: c1
  Basis Set: CC-PVTZ
  Basis Set:
  Basis Set: CC-PVTZ
  Basis Set:
  @DF-RHF Final Energy:  -251.44662018139846
    Total Energy =                       -251.4466201813985435
  Basis Set: CC-PVTZ
  Basis Set:
  Basis Set: CC-PVTZ
  Basis Set:
  @DF-RHF Final Energy:  -251.44667997642244
    Total Energy =                       -251.4466799764222742
  Basis Set: CC-PVTZ
  Basis Set:
  Basis Set: CC-PVTZ
  Basis Set:
  @DF-RHF Final Energy:  -251.44668299867919
    Total Energy =                       -251.4466829986794210
  Basis Set: CC-PVTZ
  Basis Set:
  Charge       = 0
  Multiplicity = 1
  Basis Set: CC-PVTZ
  Basis Set:

    Orbital Energies (a.u.)
    -----------------------

    Doubly Occupied:

       1A    -15.527167     2A    -11.238729     3A    -11.208113
       4A    -11.207628     5A    -11.202515     6A    -11.201749
       7A     -1.178569     8A     -1.068802     9A     -0.996270
      10A     -0.900883    11A     -0.812160    12A     -0.783785
      13A     -0.665641    14A     -0.641025    15A     -0.616330
      16A     -0.586942    17A     -0.559625    18A     -0.546345
      19A     -0.534193    20A     -0.489104    21A     -0.484031
      22A     -0.459643    23A     -0.458060    24A     -0.451348
      25A     -0.382081

  @DF-RHF Final Energy:  -251.44668330677484

   => Energetics <=

    Nuclear Repulsion Energy =            248.9106614328231331
    One-Electron Energy =                -832.3132175811834941
    Two-Electron Energy =                 331.9558728415855740
    DFT Exchange-Correlation Energy =       0.0000000000000000
    Empirical Dispersion Energy =           0.0000000000000000
    PCM Polarization Energy =               0.0000000000000000
    EFP Energy =                            0.0000000000000000
    Total Energy =                       -251.4466833067748439
    Molecular point group: c1
  Basis Set: CC-PVTZ
  Basis Set:

  -Total Gradient:
     Atom            X                  Y                   Z
    ------   -----------------  -----------------  -----------------
       1        0.000000344164    -0.000009279845    -0.000005673817
       2        0.000020441608     0.000006792434    -0.000018587707
       3        0.001029631817    -0.001470928463     0.002654449994
       4       -0.000001547466     0.000011461174     0.000014685593
       5        0.001642839215    -0.002283011323     0.001422950625
       6       -0.001123888174     0.001570840562    -0.002440619612
       7       -0.000019736860     0.000006262939    -0.000014586079
       8       -0.000010499099     0.000025312706     0.000006847535
       9       -0.001533625774     0.002154638632    -0.001608349949
      10        0.000003486694    -0.000001770369     0.000001079749
      11        0.000012199037     0.000001952062    -0.000021230316
      12       -0.000004960411    -0.000006886086     0.000005388710
      13        0.000005702299     0.000001231551     0.000002170838
      14       -0.000012178185    -0.000006999871     0.000008329605
      15       -0.000005576161    -0.000007439746    -0.000000524766
      16       -0.000001022153     0.000007645138    -0.000006543904
      17        0.000002842239    -0.000005147972    -0.000000322214
      18       -0.000006280761     0.000003216232     0.000003831631
      19        0.000001827971     0.000002110244    -0.000003295915

  **** Optimization is complete! (in 5 steps) ****
    Final optimized geometry and variables:
    Molecular point group: c1

    Geometry (in Angstrom), charge = 0, multiplicity = 1:

    H            3.035452227466     1.475376120132    -1.005894652647
    N            2.308041274817     0.792856326870    -1.027046074927
    C            2.036649208153     0.270246950319     0.305991031922
    H            2.604281144964     0.063870788437    -1.641764226366
    C            0.799634105476    -0.625080441161     0.293119864872
    H            1.853759353363     1.126272469740     0.946422917230
    H            2.881623653186    -0.275226290470     0.723143891197
    C           -0.511825799683     0.156923077836     0.264001431021
    H            0.840989752478    -1.259696980708    -0.589063875331
    H            0.815703116244    -1.279956231544     1.159212581599
    C           -1.744488917950    -0.733580768678     0.139361834584
    H           -0.484836184210     0.858711438654    -0.562754098485
    H           -0.591565286326     0.750853703478     1.171990201496
    C           -3.051822763512     0.051811986268     0.130981490859
    H           -1.672365195156    -1.319840178117    -0.772832541272
    H           -1.759461833091    -1.447659192531     0.958901094014
    H           -3.081096844700     0.751703399555    -0.697425504051
    H           -3.907247088590    -0.607684758278     0.037575345399
    H           -3.172026618046     0.621241670086     1.046764490053

  Mulliken Charges: (a.u.)
   Center  Symbol    Alpha    Beta     Spin     Total
       1     H     0.42863  0.42863  0.00000  0.14273
       2     N     3.69245  3.69245  0.00000 -0.38490
       3     C     3.03678  3.03678  0.00000 -0.07355
       4     H     0.43101  0.43101  0.00000  0.13797
       5     C     3.08648  3.08648  0.00000 -0.17295
       6     H     0.45777  0.45777  0.00000  0.08446
       7     H     0.45854  0.45854  0.00000  0.08291
       8     C     3.08379  3.08379  0.00000 -0.16758
       9     H     0.46030  0.46030  0.00000  0.07939
      10     H     0.45135  0.45135  0.00000  0.09730
      11     C     3.08465  3.08465  0.00000 -0.16930
      12     H     0.44755  0.44755  0.00000  0.10489
      13     H     0.45869  0.45869  0.00000  0.08262
      14     C     3.14984  3.14984  0.00000 -0.29967
      15     H     0.45516  0.45516  0.00000  0.08967
      16     H     0.45689  0.45689  0.00000  0.08621
      17     H     0.45455  0.45455  0.00000  0.09089
      18     H     0.44962  0.44962  0.00000  0.10076
      19     H     0.45593  0.45593  0.00000  0.08814

   Total alpha = 25.00000, Total beta = 25.00000, Total charge =  0.00000

*** Psi4 exiting successfully. Buy a developer a beer!
