  ==> Input File <==

--------------------------------------------------------------------------
set {
	reference rhf
	basis 6-31G*
}

set_num_threads( 4 )
memory 2 gb

molecule MOL {
0 1

O	 2.009191	 0.671872	 0.699141
C	 2.701189	 0.057885	 -0.047330
C	 2.965967	 0.408057	 -1.491650
O	 3.347903	 -1.046386	 0.304773
C	 2.251788	 1.680927	 -1.940947
H	 4.042026	 0.482310	 -1.609019
H	 2.660032	 -0.444875	 -2.092156
C	 2.425415	 1.992710	 -3.431296
H	 2.603928	 2.518599	 -1.346455
H	 1.194678	 1.580599	 -1.719869
C	 3.854633	 2.343221	 -3.855073
H	 1.774963	 2.828477	 -3.678538
H	 2.070214	 1.149475	 -4.021887
C	 3.955599	 2.752657	 -5.325844
H	 4.224275	 3.154579	 -3.229867
H	 4.515462	 1.497268	 -3.680028
C	 5.380128	 3.100121	 -5.761869
H	 3.306695	 3.607940	 -5.506540
H	 3.576134	 1.945941	 -5.951075
C	 5.471687	 3.511617	 -7.230878
H	 5.761222	 3.905419	 -5.137445
H	 6.029380	 2.244933	 -5.586069
H	 6.493113	 3.751559	 -7.509666
H	 4.859901	 4.386583	 -7.431747
H	 5.129530	 2.713478	 -7.883699
C	 4.728119	 -1.109107	 -0.004993
H	 4.882018	 -1.033965	 -1.071845
H	 5.068212	 -2.067527	 0.355250
H	 5.265056	 -0.311663	 0.488280

	symmetry c1
}
set optking {
	frozen_dihedral = ("
		1 2 4 26
	")
}

ee = optimize('scf')
oeprop('DIPOLE', 'QUADRUPOLE', 'MULLIKEN_CHARGES')
f=open( 'psi4out.xyz', 'w' )
f.write( "29  " )
f.write( str(ee) + "\n" )
f.write( MOL.save_string_xyz() )
f.close()
--------------------------------------------------------------------------

    Molecular point group: c1
  Charge       = 0
  Multiplicity = 1
  Basis Set: 6-31G*
  Basis Set:
  @DF-RHF Final Energy:  -501.01768240476895
    Total Energy =                       -501.0176824047689479
    Molecular point group: c1
  Basis Set: 6-31G*
  Basis Set:
  Basis Set: 6-31G*
  Basis Set:
  @DF-RHF Final Energy:  -501.01798242085090
    Total Energy =                       -501.0179824208505579
  Basis Set: 6-31G*
  Basis Set:
  Basis Set: 6-31G*
  Basis Set:
  @DF-RHF Final Energy:  -501.02281095594606
    Total Energy =                       -501.0228109559454879
  Basis Set: 6-31G*
  Basis Set:
  Basis Set: 6-31G*
  Basis Set:
  @DF-RHF Final Energy:  -501.02360674312285
    Total Energy =                       -501.0236067431224001
  Basis Set: 6-31G*
  Basis Set:
  @DF-RHF Final Energy:  -501.02427271998624
    Total Energy =                       -501.0242727199862429
  @DF-RHF Final Energy:  -501.02468269466249
    Total Energy =                       -501.0246826946627152
  @DF-RHF Final Energy:  -501.02471240811485
    Total Energy =                       -501.0247124081153061
  @DF-RHF Final Energy:  -501.02472195696691
    Total Energy =                       -501.0247219569663457
  Basis Set: 6-31G*
  Basis Set:
  @DF-RHF Final Energy:  -501.02472345329443
    Total Energy =                       -501.0247234532946550
  Basis Set: 6-31G*
  Basis Set:
  Basis Set: 6-31G*
  Basis Set:
  @DF-RHF Final Energy:  -501.02470948357154
    Total Energy =                       -501.0247094835716553
  Basis Set: 6-31G*
  Basis Set:
  Basis Set: 6-31G*
  Basis Set:
  @DF-RHF Final Energy:  -501.02472295571806
    Total Energy =                       -501.0247229557187438
  Basis Set: 6-31G*
  Basis Set:
  Charge       = 0
  Multiplicity = 1
  Basis Set: 6-31G*
  Basis Set:

    Orbital Energies (a.u.)
    -----------------------

    Doubly Occupied:

       1A    -20.591776     2A    -20.549463     3A    -11.374013
       4A    -11.294980     5A    -11.242198     6A    -11.223415
       7A    -11.221304     8A    -11.220166     9A    -11.219037
      10A    -11.217816    11A    -11.211636    12A     -1.459486
      13A     -1.366880    14A     -1.101357    15A     -1.068291
      16A     -1.014767    17A     -0.980170    18A     -0.943770
      19A     -0.869525    20A     -0.804893    21A     -0.794687
      22A     -0.762394    23A     -0.701598    24A     -0.680564
      25A     -0.674576    26A     -0.653835    27A     -0.633582
      28A     -0.613959    29A     -0.596911    30A     -0.590461
      31A     -0.571678    32A     -0.551036    33A     -0.548630
      34A     -0.532314    35A     -0.523365    36A     -0.506328
      37A     -0.491047    38A     -0.482049    39A     -0.474241
      40A     -0.465706    41A     -0.465082    42A     -0.454209
      43A     -0.441951    44A     -0.431662

  @DF-RHF Final Energy:  -501.02472379401775

   => Energetics <=

    Nuclear Repulsion Energy =            614.2894875141848843
    One-Electron Energy =               -1899.3948067034807536
    Two-Electron Energy =                 784.0805953952781238
    DFT Exchange-Correlation Energy =       0.0000000000000000
    Empirical Dispersion Energy =           0.0000000000000000
    PCM Polarization Energy =               0.0000000000000000
    EFP Energy =                            0.0000000000000000
    Total Energy =                       -501.0247237940177456
    Molecular point group: c1
  Basis Set: 6-31G*
  Basis Set:

  -Total Gradient:
     Atom            X                  Y                   Z
    ------   -----------------  -----------------  -----------------
       1        0.003325691579     0.001656320319     0.001000345093
       2       -0.004337321775    -0.001655498791     0.000003818498
       3        0.000008357654     0.000013824394     0.000000391414
       4        0.000154028984    -0.001379097291    -0.003817286390
       5       -0.000024378700    -0.000021241023    -0.000002962494
       6        0.000023957575     0.000003355769    -0.000014222563
       7       -0.000006737387    -0.000002177830     0.000008399712
       8       -0.000002746949     0.000021211914     0.000000009151
       9       -0.000010922456     0.000005422037     0.000003416358
      10        0.000005431449    -0.000008813595     0.000002039414
      11        0.000002323093    -0.000014576965     0.000006045092
      12        0.000009073286     0.000006252559    -0.000002431470
      13       -0.000010424298     0.000006425903    -0.000001826786
      14        0.000001627417    -0.000000613287    -0.000001395112
      15       -0.000005558822    -0.000006024236    -0.000005469363
      16        0.000009184953    -0.000011962074     0.000019114794
      17       -0.000000264018     0.000004193381     0.000000477344
      18       -0.000000844673     0.000000722187     0.000002597276
      19        0.000000117233     0.000001967686    -0.000002562348
      20        0.000000984898    -0.000004869945    -0.000001087521
      21       -0.000001326720     0.000001559510    -0.000001120940
      22        0.000000235556     0.000001609967     0.000002053506
      23        0.000000319290    -0.000001792655    -0.000000236719
      24        0.000001105429     0.000000221074     0.000001427078
      25       -0.000001216190     0.000000202546    -0.000001582252
      26        0.000863760281     0.001388365960     0.002825123877
      27       -0.000012019070     0.000000079996    -0.000024661037
      28        0.000002381835     0.000007667273     0.000005809152
      29        0.000005180549    -0.000012734776    -0.000004222776

  **** Optimization is complete! (in 12 steps) ****
    Final optimized geometry and variables:
    Molecular point group: c1

    Geometry (in Angstrom), charge = 0, multiplicity = 1:

    O           -1.363398510183    -0.433691047703     3.233595886144
    C           -0.773798360316    -1.148795325982     2.500101357841
    C           -0.515079234832    -0.837473166584     1.040256076150
    O           -0.309501206050    -2.332632929586     2.941454307705
    C           -1.313723650147     0.365943620342     0.540134731663
    H            0.551082763043    -0.668963741650     0.917708933295
    H           -0.748330214327    -1.727990052385     0.461947464689
    C           -1.140604910749     0.641994500114    -0.957271651094
    H           -1.032732606721     1.243191556091     1.113304611783
    H           -2.364012817150     0.194321354870     0.750115832312
    C            0.265517282165     1.081611061145    -1.375518789680
    H           -1.845253107513     1.421191873511    -1.237982239116
    H           -1.427021457917    -0.241652808014    -1.525644327701
    C            0.355421111006     1.458056232007    -2.855837084513
    H            0.569617375350     1.933143146394    -0.768824070663
    H            0.982762412718     0.289366792888    -1.171560996441
    C            1.757488923878     1.892164697768    -3.286962372303
    H           -0.348902470746     2.261089836600    -3.065678443882
    H            0.039848154249     0.610850901993    -3.462719616462
    C            1.837609431375     2.269576056844    -4.765746313509
    H            2.074356575894     2.738436378467    -2.681154025849
    H            2.462516320196     1.089244859134    -3.081403414092
    H            2.843246846625     2.572106863442    -5.040860834908
    H            1.169432228858     3.094430717037    -4.996422105238
    H            1.558894731956     1.432570533076    -5.399763156219
    C            1.033037872913    -2.693493989109     2.709571395104
    H            1.218267997006    -2.912338484655     1.664644956329
    H            1.208327927127    -3.584227808094     3.292250691199
    H            1.707913994959    -1.913936865905     3.043711280488

  Mulliken Charges: (a.u.)
   Center  Symbol    Alpha    Beta     Spin     Total
       1     O     4.25577  4.25577  0.00000 -0.51153
       2     C     2.60689  2.60689  0.00000  0.78622
       3     C     3.22686  3.22686  0.00000 -0.45373
       4     O     4.30948  4.30948  0.00000 -0.61896
       5     C     3.15213  3.15213  0.00000 -0.30426
       6     H     0.40352  0.40352  0.00000  0.19296
       7     H     0.40268  0.40268  0.00000  0.19464
       8     C     3.15687  3.15687  0.00000 -0.31374
       9     H     0.40944  0.40944  0.00000  0.18112
      10     H     0.40865  0.40865  0.00000  0.18270
      11     C     3.15500  3.15500  0.00000 -0.30999
      12     H     0.41707  0.41707  0.00000  0.16585
      13     H     0.42374  0.42374  0.00000  0.15253
      14     C     3.15032  3.15032  0.00000 -0.30064
      15     H     0.42187  0.42187  0.00000  0.15627
      16     H     0.42615  0.42615  0.00000  0.14770
      17     C     3.15149  3.15149  0.00000 -0.30299
      18     H     0.42251  0.42251  0.00000  0.15498
      19     H     0.42386  0.42386  0.00000  0.15229
      20     C     3.23943  3.23943  0.00000 -0.47886
      21     H     0.42247  0.42247  0.00000  0.15507
      22     H     0.42420  0.42420  0.00000  0.15159
      23     H     0.41895  0.41895  0.00000  0.16211
      24     H     0.42107  0.42107  0.00000  0.15786
      25     H     0.42173  0.42173  0.00000  0.15655
      26     C     3.09391  3.09391  0.00000 -0.18782
      27     H     0.41891  0.41891  0.00000  0.16217
      28     H     0.39965  0.39965  0.00000  0.20070
      29     H     0.41540  0.41540  0.00000  0.16919

   Total alpha = 44.00000, Total beta = 44.00000, Total charge = -0.00000
