  ==> Input File <==

--------------------------------------------------------------------------
set {
	reference rhf
	basis 6-31G*
}

set_num_threads( 1 )
memory 2 gb

molecule MOL {
0 1

H	 3.463771	 0.168298	 -0.756243
C	 2.752674	 -0.045734	 0.033351
C	 1.322923	 0.120767	 -0.479465
H	 2.934561	 -1.059086	 0.377456
H	 2.958358	 0.631174	 0.856809
C	 0.306652	 -0.176050	 0.621399
H	 1.144658	 -0.551717	 -1.312180
H	 1.166477	 1.131798	 -0.836680
N	 -1.068537	 -0.011044	 0.085269
H	 0.372515	 -1.192590	 0.973735
H	 0.391664	 0.520566	 1.441230
O	 -1.183570	 0.482703	 -0.993784
O	 -1.968483	 -0.356413	 0.788719

	symmetry c1
}
set optking {
	frozen_dihedral = ("
		7 3 6 9
	")
}

ee = energy('scf')
oeprop('DIPOLE', 'QUADRUPOLE', 'MULLIKEN_CHARGES')
f=open( 'psi4out.xyz', 'w' )
f.write( "13  " )
f.write( str(ee) + "\n" )
f.write( MOL.save_string_xyz() )
f.close()
--------------------------------------------------------------------------

    Molecular point group: c1

    Geometry (in Angstrom), charge = 0, multiplicity = 1:

       Center              X                  Y                   Z               Mass
    ------------   -----------------  -----------------  -----------------  -----------------
           H          3.466728387253     0.164942091364    -0.764860863842     1.007825032070
           C          2.755631387253    -0.049089908636     0.024733136158    12.000000000000
           C          1.325880387253     0.117411091364    -0.488082863842    12.000000000000
           H          2.937518387253    -1.062441908636     0.368838136158     1.007825032070
           H          2.961315387253     0.627818091364     0.848191136158     1.007825032070
           C          0.309609387253    -0.179405908636     0.612781136158    12.000000000000
           H          1.147615387253    -0.555072908636    -1.320797863842     1.007825032070
           H          1.169434387253     1.128442091364    -0.845297863842     1.007825032070
           N         -1.065579612747    -0.014399908636     0.076651136158    14.003074004780
           H          0.375472387253    -1.195945908636     0.965117136158     1.007825032070
           H          0.394621387253     0.517210091364     1.432612136158     1.007825032070
           O         -1.180612612747     0.479347091364    -1.002401863842    15.994914619560
           O         -1.965525612747    -0.359768908636     0.780101136158    15.994914619560

  Charge       = 0
  Multiplicity = 1
  Basis Set: 6-31G*
  Basis Set:

    Orbital Energies (a.u.)
    -----------------------

    Doubly Occupied:

       1A    -20.603825     2A    -20.599647     3A    -15.848925
       4A    -11.300762     5A    -11.246798     6A    -11.234722
       7A     -1.632230     8A     -1.418027     9A     -1.133593
      10A     -1.025597    11A     -0.882548    12A     -0.822976
      13A     -0.762203    14A     -0.752025    15A     -0.726659
      16A     -0.655429    17A     -0.604827    18A     -0.579671
      19A     -0.550980    20A     -0.518471    21A     -0.510014
      22A     -0.485119    23A     -0.472552    24A     -0.448615

  @DF-RHF Final Energy:  -321.73322680624369

   => Energetics <=

    Nuclear Repulsion Energy =            248.2460834592497747
    One-Electron Energy =                -930.3262409580358963
    Two-Electron Energy =                 360.3469306925419460
    DFT Exchange-Correlation Energy =       0.0000000000000000
    Empirical Dispersion Energy =           0.0000000000000000
    PCM Polarization Energy =               0.0000000000000000
    EFP Energy =                            0.0000000000000000
    Total Energy =                       -321.7332268062441472

  Mulliken Charges: (a.u.)
   Center  Symbol    Alpha    Beta     Spin     Total
       1     H     0.40831  0.40831  0.00000  0.18338
       2     C     3.24875  3.24875  0.00000 -0.49749
       3     C     3.16529  3.16529  0.00000 -0.33058
       4     H     0.41772  0.41772  0.00000  0.16457
       5     H     0.41775  0.41775  0.00000  0.16450
       6     C     3.09119  3.09119  0.00000 -0.18237
       7     H     0.40367  0.40367  0.00000  0.19265
       8     H     0.39870  0.39870  0.00000  0.20259
       9     N     3.22308  3.22308  0.00000  0.55384
      10     H     0.38541  0.38541  0.00000  0.22917
      11     H     0.38419  0.38419  0.00000  0.23161
      12     O     4.22652  4.22652  0.00000 -0.45303
      13     O     4.22942  4.22942  0.00000 -0.45885

   Total alpha = 24.00000, Total beta = 24.00000, Total charge = -0.00000
