  ==> Input File <==

--------------------------------------------------------------------------
set {
	reference rhf
	basis cc-pvtz
}

set_num_threads( 4 )
memory 2 gb

molecule MOL {
0 1

H	 -1.544020	 -1.218085	 0.464993
O	 -1.432053	 -0.565244	 -0.200812
C	 -0.727158	 0.534527	 0.310686
C	 0.680222	 0.664433	 -0.252229
H	 -1.306802	 1.408001	 0.044211
H	 -0.690821	 0.490158	 1.397609
C	 1.605391	 -0.489360	 0.123098
H	 0.615089	 0.745647	 -1.332226
H	 1.101414	 1.597893	 0.110950
H	 1.247627	 -1.432485	 -0.275204
H	 2.601435	 -0.332816	 -0.273062
H	 1.691776	 -0.589902	 1.200774

	symmetry c1
}
set optking {
	frozen_dihedral = ("
		1 2 3 4
	")
}

ee = optimize('scf')
oeprop('DIPOLE', 'QUADRUPOLE', 'MULLIKEN_CHARGES')
f=open( 'psi4out.xyz', 'w' )
f.write( "12  " )
f.write( str(ee) + "\n" )
f.write( MOL.save_string_xyz() )
f.close()
--------------------------------------------------------------------------

    Molecular point group: c1
  Charge       = 0
  Multiplicity = 1
  Basis Set: CC-PVTZ
  Basis Set:
  @DF-RHF Final Energy:  -193.18952530711351
    Total Energy =                       -193.1895253071135414
    Molecular point group: c1
  Basis Set: CC-PVTZ
  Basis Set:
  Basis Set: CC-PVTZ
  Basis Set:
  @DF-RHF Final Energy:  -193.18978976407189
    Total Energy =                       -193.1897897640718895
  Basis Set: CC-PVTZ
  Basis Set:
  Basis Set: CC-PVTZ
  Basis Set:
  @DF-RHF Final Energy:  -193.18984022964230
    Total Energy =                       -193.1898402296421580
  Basis Set: CC-PVTZ
  Basis Set:
  Basis Set: CC-PVTZ
  Basis Set:
  @DF-RHF Final Energy:  -193.18984309156795
    Total Energy =                       -193.1898430915680933
  Basis Set: CC-PVTZ
  Basis Set:
  Charge       = 0
  Multiplicity = 1
  Basis Set: CC-PVTZ
  Basis Set:

    Orbital Energies (a.u.)
    -----------------------

    Doubly Occupied:

       1A    -20.545756     2A    -11.266614     3A    -11.213428
       4A    -11.207498     5A     -1.363288     6A     -1.049405
       7A     -0.924069     8A     -0.803542     9A     -0.706965
      10A     -0.637635    11A     -0.595702    12A     -0.587278
      13A     -0.525106    14A     -0.515530    15A     -0.489035
      16A     -0.468509    17A     -0.431720

  @DF-RHF Final Energy:  -193.18984338288053

   => Energetics <=

    Nuclear Repulsion Energy =            133.1729360402758005
    One-Electron Energy =                -526.0633977699026218
    Two-Electron Energy =                 199.7006183467464666
    DFT Exchange-Correlation Energy =       0.0000000000000000
    Empirical Dispersion Energy =           0.0000000000000000
    PCM Polarization Energy =               0.0000000000000000
    EFP Energy =                            0.0000000000000000
    Total Energy =                       -193.1898433828803832
    Molecular point group: c1
  Basis Set: CC-PVTZ
  Basis Set:

  -Total Gradient:
     Atom            X                  Y                   Z
    ------   -----------------  -----------------  -----------------
       1       -0.000441897236     0.000202701322     0.000131836763
       2        0.000522434018    -0.000154725433    -0.000254785612
       3        0.000035378137    -0.000240793657     0.000365139561
       4       -0.000102305852     0.000179759026    -0.000257735698
       5        0.000009594894    -0.000002661653    -0.000004452364
       6       -0.000005181692     0.000011905422     0.000015410832
       7       -0.000001178811     0.000015078946     0.000027263477
       8       -0.000007977811     0.000008873330    -0.000012146923
       9       -0.000002192250    -0.000010201105    -0.000003147476
      10       -0.000000777292    -0.000001671481    -0.000012092833
      11       -0.000008766472     0.000000084167     0.000002784467
      12        0.000002870364    -0.000008348886     0.000001925806

  **** Optimization is complete! (in 5 steps) ****
    Final optimized geometry and variables:
    Molecular point group: c1

    Geometry (in Angstrom), charge = 0, multiplicity = 1:

    H           -1.513157811914    -1.239211360647     0.426145544969
    O           -1.401221023658    -0.573047575919    -0.223850753569
    C           -0.724154567641     0.537140116204     0.312739775470
    C            0.680577170174     0.664734933828    -0.252447201400
    H           -1.297509862206     1.422494510693     0.064015045160
    H           -0.685616560628     0.473142007293     1.397033975887
    C            1.598850182501    -0.491548330506     0.126862502790
    H            0.608523301484     0.737033029834    -1.332752663010
    H            1.103122244825     1.602283928851     0.099054264083
    H            1.206703327740    -1.433291990339    -0.236674254280
    H            2.587242884100    -0.359320432202    -0.297106300980
    H            1.710720355280    -0.566187372103     1.204534854338

  Mulliken Charges: (a.u.)
   Center  Symbol    Alpha    Beta     Spin     Total
       1     H     0.39025  0.39025  0.00000  0.21949
       2     O     4.20844  4.20844  0.00000 -0.41687
       3     C     2.97793  2.97793  0.00000  0.04413
       4     C     3.07444  3.07444  0.00000 -0.14889
       5     H     0.45456  0.45456  0.00000  0.09088
       6     H     0.47083  0.47083  0.00000  0.05835
       7     C     3.15779  3.15779  0.00000 -0.31557
       8     H     0.45294  0.45294  0.00000  0.09413
       9     H     0.45682  0.45682  0.00000  0.08636
      10     H     0.45008  0.45008  0.00000  0.09983
      11     H     0.44755  0.44755  0.00000  0.10489
      12     H     0.45836  0.45836  0.00000  0.08328

   Total alpha = 17.00000, Total beta = 17.00000, Total charge =  0.00000
