  ==> Input File <==

--------------------------------------------------------------------------
set {
	reference rhf
	basis 6-31G*
}

set_num_threads( 4 )
memory 2 gb

molecule MOL {
0 1

H	 1.579272	 -2.963411	 -0.571119
C	 1.383481	 -1.907117	 -0.732815
C	 0.328895	 -1.405965	 0.248926
H	 1.038038	 -1.772145	 -1.751743
H	 2.325868	 -1.380327	 -0.628250
N	 -0.000257	 -0.000071	 0.054619
H	 -0.570536	 -1.990713	 0.102397
H	 0.651268	 -1.597359	 1.276607
C	 -1.363055	 0.315058	 0.462241
C	 0.982327	 0.891018	 0.657236
C	 -2.412078	 -0.285320	 -0.468531
H	 -1.482241	 1.391144	 0.451970
H	 -1.549931	 -0.001174	 1.492681
C	 1.081682	 2.233408	 -0.060649
H	 1.952227	 0.412387	 0.608654
H	 0.774006	 1.047620	 1.719717
H	 -2.262839	 0.075384	 -1.480151
H	 -2.369300	 -1.368867	 -0.491760
H	 -3.410332	 -0.003975	 -0.144961
H	 1.346871	 2.080984	 -1.100877
H	 0.148067	 2.784884	 -0.032537
H	 1.842931	 2.854811	 0.402693

	symmetry c1
}
set optking {
	frozen_dihedral = ("
		3 6 9 11
	")
}

ee = optimize('scf')
oeprop('DIPOLE', 'QUADRUPOLE', 'MULLIKEN_CHARGES')
f=open( 'psi4out.xyz', 'w' )
f.write( "22  " )
f.write( str(ee) + "\n" )
f.write( MOL.save_string_xyz() )
f.close()
--------------------------------------------------------------------------

    Molecular point group: c1
  Charge       = 0
  Multiplicity = 1
  Basis Set: 6-31G*
  Basis Set:
  @DF-RHF Final Energy:  -290.37155369293566
    Total Energy =                       -290.3715536929357199
    Molecular point group: c1
  Basis Set: 6-31G*
  Basis Set:
  Basis Set: 6-31G*
  Basis Set:
  @DF-RHF Final Energy:  -290.37170102809608
    Total Energy =                       -290.3717010280957993
  Basis Set: 6-31G*
  Basis Set:
  Basis Set: 6-31G*
  Basis Set:
  @DF-RHF Final Energy:  -290.37185705607061
    Total Energy =                       -290.3718570560707803
  Basis Set: 6-31G*
  Basis Set:
  Basis Set: 6-31G*
  Basis Set:
  @DF-RHF Final Energy:  -290.37187294815811
    Total Energy =                       -290.3718729481580567
  Basis Set: 6-31G*
  Basis Set:
  Basis Set: 6-31G*
  Basis Set:
  @DF-RHF Final Energy:  -290.37187671261262
    Total Energy =                       -290.3718767126126750
  Basis Set: 6-31G*
  Basis Set:
  Charge       = 0
  Multiplicity = 1
  Basis Set: 6-31G*
  Basis Set:

    Orbital Energies (a.u.)
    -----------------------

    Doubly Occupied:

       1A    -15.536840     2A    -11.240578     3A    -11.239964
       4A    -11.239560     5A    -11.206455     6A    -11.204853
       7A    -11.204805     8A     -1.223394     9A     -1.023633
      10A     -1.022998    11A     -0.955618    12A     -0.848843
      13A     -0.844589    14A     -0.770401    15A     -0.647437
      16A     -0.642863    17A     -0.622751    18A     -0.592869
      19A     -0.590490    20A     -0.549059    21A     -0.531029
      22A     -0.520055    23A     -0.517312    24A     -0.495131
      25A     -0.493098    26A     -0.489752    27A     -0.461843
      28A     -0.460657    29A     -0.339728

  @DF-RHF Final Energy:  -290.37187701745438

   => Energetics <=

    Nuclear Repulsion Energy =            337.4285233657226399
    One-Electron Energy =               -1060.5675937170922225
    Two-Electron Energy =                 432.7671933339147472
    DFT Exchange-Correlation Energy =       0.0000000000000000
    Empirical Dispersion Energy =           0.0000000000000000
    PCM Polarization Energy =               0.0000000000000000
    EFP Energy =                            0.0000000000000000
    Total Energy =                       -290.3718770174548354
    Molecular point group: c1
  Basis Set: 6-31G*
  Basis Set:

  -Total Gradient:
     Atom            X                  Y                   Z
    ------   -----------------  -----------------  -----------------
       1       -0.000002254310     0.000006636089    -0.000000869629
       2        0.000000385194     0.000000200907     0.000002207269
       3       -0.000613491207    -0.000401849179    -0.001771790845
       4        0.000000185831    -0.000000079906    -0.000000504399
       5        0.000002449908     0.000003916778     0.000001090074
       6        0.000839709874    -0.000086928334     0.002919528420
       7       -0.000005617366    -0.000006852380     0.000009412085
       8       -0.000001122295     0.000009014985    -0.000006019773
       9       -0.000148053096     0.001992086648    -0.002152277961
      10       -0.000014228358    -0.000010172663    -0.000008111464
      11       -0.000056003732    -0.001509147147     0.001005905928
      12        0.000001215471    -0.000001208532     0.000000848625
      13       -0.000000319884     0.000004723268     0.000000425237
      14       -0.000005457628     0.000001103246    -0.000000785856
      15       -0.000000754145    -0.000003125868    -0.000008837351
      16        0.000000337500     0.000002015935     0.000005899863
      17       -0.000002045198    -0.000003821163     0.000001057961
      18        0.000003966814    -0.000000746410    -0.000000589727
      19       -0.000003711048     0.000000388297     0.000000247984
      20        0.000000218352     0.000000855698     0.000000659034
      21        0.000002604169     0.000004455873    -0.000001062359
      22        0.000001985155    -0.000001466140     0.000003566884

  **** Optimization is complete! (in 6 steps) ****
    Final optimized geometry and variables:
    Molecular point group: c1

    Geometry (in Angstrom), charge = 0, multiplicity = 1:

    H            1.618680666973    -2.918439269392    -0.612507623984
    C            1.401273324104    -1.865048003258    -0.765527661203
    C            0.345349148696    -1.390347036416     0.228336466024
    H            1.044799934769    -1.730105434761    -1.780658871216
    H            2.334097528368    -1.320638254680    -0.665331687014
    N           -0.003130761803     0.012092536332     0.046323789809
    H           -0.542175958493    -1.990730517439     0.084677089382
    H            0.680217584603    -1.585090587807     1.251536476494
    C           -1.366239431234     0.332044101198     0.443147745260
    C            0.968922647197     0.914030224707     0.648886627210
    C           -2.430630077238    -0.249634736156    -0.483234188448
    H           -1.470015546112     1.409501889674     0.433844449654
    H           -1.563897783859     0.015145868688     1.473080695672
    C            1.083546849605     2.245806461182    -0.087050278462
    H            1.939496749252     0.434844984684     0.626309532500
    H            0.741334279871     1.087795792121     1.704803840412
    H           -2.242581645520     0.052621854996    -1.507781638704
    H           -2.469064789147    -1.332208432067    -0.453193772751
    H           -3.411297948997     0.115586170245    -0.192379902037
    H            1.360938705216     2.077605899977    -1.121726413997
    H            0.153662588013     2.803764786767    -0.077685922321
    H            1.842843072220     2.868890069884     0.377231576688

  Mulliken Charges: (a.u.)
   Center  Symbol    Alpha    Beta     Spin     Total
       1     H     0.42382  0.42382  0.00000  0.15236
       2     C     3.23470  3.23470  0.00000 -0.46940
       3     C     3.05895  3.05895  0.00000 -0.11789
       4     H     0.41545  0.41545  0.00000  0.16911
       5     H     0.42147  0.42147  0.00000  0.15705
       6     N     3.78529  3.78529  0.00000 -0.57059
       7     H     0.41830  0.41830  0.00000  0.16340
       8     H     0.43245  0.43245  0.00000  0.13510
       9     C     3.05493  3.05493  0.00000 -0.10985
      10     C     3.05908  3.05908  0.00000 -0.11815
      11     C     3.24044  3.24044  0.00000 -0.48088
      12     H     0.41819  0.41819  0.00000  0.16362
      13     H     0.43460  0.43460  0.00000  0.13081
      14     C     3.23516  3.23516  0.00000 -0.47032
      15     H     0.41846  0.41846  0.00000  0.16308
      16     H     0.43201  0.43201  0.00000  0.13598
      17     H     0.41421  0.41421  0.00000  0.17158
      18     H     0.42066  0.42066  0.00000  0.15868
      19     H     0.42162  0.42162  0.00000  0.15675
      20     H     0.41527  0.41527  0.00000  0.16946
      21     H     0.42127  0.42127  0.00000  0.15746
      22     H     0.42368  0.42368  0.00000  0.15264

   Total alpha = 29.00000, Total beta = 29.00000, Total charge = -0.00000
