  ==> Input File <==

--------------------------------------------------------------------------
set {
	reference rhf
	basis 6-31G*
}

set_num_threads( 1 )
memory 2 gb

molecule MOL {
0 1

O	 -2.042549	 -1.228399	 -0.269030
C	 -1.653912	 -0.146171	 0.050137
C	 -0.332303	 0.024011	 0.778412
C	 -2.438579	 1.106236	 -0.272369
C	 0.076576	 1.504357	 0.835579
H	 -0.396670	 -0.380970	 1.784508
H	 0.418046	 -0.538767	 0.234189
C	 1.419699	 1.717698	 1.535249
H	 -0.691280	 2.078564	 1.351105
H	 0.124845	 1.889535	 -0.178546
C	 1.833056	 3.188007	 1.585604
H	 1.367342	 1.321485	 2.547029
H	 2.186410	 1.143581	 1.020359
H	 1.101665	 3.783402	 2.124700
H	 1.925371	 3.603222	 0.586346
H	 2.789617	 3.308715	 2.084048
H	 -3.277823	 0.863061	 -0.908988
H	 -1.806773	 1.843019	 -0.759671
H	 -2.802853	 1.554979	 0.648059

	symmetry c1
}
set optking {
	frozen_dihedral = ("
		11 8 5 9,
		9 5 3 2
	")
}

ee = energy('scf')
oeprop('DIPOLE', 'QUADRUPOLE', 'MULLIKEN_CHARGES')
f=open( 'psi4out.xyz', 'w' )
f.write( "19  " )
f.write( str(ee) + "\n" )
f.write( MOL.save_string_xyz() )
f.close()
--------------------------------------------------------------------------

    Molecular point group: c1

    Geometry (in Angstrom), charge = 0, multiplicity = 1:

       Center              X                  Y                   Z               Mass
    ------------   -----------------  -----------------  -----------------  -----------------
           O         -1.594239997788    -2.124718153316    -0.873131389949    15.994914619560
           C         -1.205602997788    -1.042490153316    -0.553964389949    12.000000000000
           C          0.116006002212    -0.872308153316     0.174310610051    12.000000000000
           C         -1.990269997788     0.209916846684    -0.876470389949    12.000000000000
           C          0.524885002212     0.608037846684     0.231477610051    12.000000000000
           H          0.051639002212    -1.277289153316     1.180406610051     1.007825032070
           H          0.866355002212    -1.435086153316    -0.369912389949     1.007825032070
           C          1.868008002212     0.821378846684     0.931147610051    12.000000000000
           H         -0.242970997788     1.182244846684     0.747003610051     1.007825032070
           H          0.573154002212     0.993215846684    -0.782647389949     1.007825032070
           C          2.281365002212     2.291687846684     0.981502610051    12.000000000000
           H          1.815651002212     0.425165846684     1.942927610051     1.007825032070
           H          2.634719002212     0.247261846684     0.416257610051     1.007825032070
           H          1.549974002212     2.887082846684     1.520598610051     1.007825032070
           H          2.373680002212     2.706902846684    -0.017755389949     1.007825032070
           H          3.237926002212     2.412395846684     1.479946610051     1.007825032070
           H         -2.829513997788    -0.033258153316    -1.513089389949     1.007825032070
           H         -1.358463997788     0.946699846684    -1.363772389949     1.007825032070
           H         -2.354543997788     0.658659846684     0.043957610051     1.007825032070

  Charge       = 0
  Multiplicity = 1
  Basis Set: 6-31G*
  Basis Set:

    Orbital Energies (a.u.)
    -----------------------

    Doubly Occupied:

       1A    -20.546039     2A    -11.325005     3A    -11.231447
       4A    -11.230119     5A    -11.226392     6A    -11.226229
       7A    -11.217162     8A     -1.392041     9A     -1.097948
      10A     -1.030832    11A     -0.979372    12A     -0.894815
      13A     -0.810520    14A     -0.732380    15A     -0.666643
      16A     -0.650254    17A     -0.628486    18A     -0.612018
      19A     -0.585177    20A     -0.571949    21A     -0.546946
      22A     -0.536373    23A     -0.529157    24A     -0.487574
      25A     -0.486413    26A     -0.479915    27A     -0.468367
      28A     -0.396238

  @DF-RHF Final Energy:  -309.05734212628818

   => Energetics <=

    Nuclear Repulsion Energy =            303.4862420356024586
    One-Electron Energy =               -1019.9156258081508213
    Two-Electron Energy =                 407.3720416462601861
    DFT Exchange-Correlation Energy =       0.0000000000000000
    Empirical Dispersion Energy =           0.0000000000000000
    PCM Polarization Energy =               0.0000000000000000
    EFP Energy =                            0.0000000000000000
    Total Energy =                       -309.0573421262881766

  Mulliken Charges: (a.u.)
   Center  Symbol    Alpha    Beta     Spin     Total
       1     O     4.26311  4.26311  0.00000 -0.52623
       2     C     2.73492  2.73492  0.00000  0.53016
       3     C     3.20109  3.20109  0.00000 -0.40218
       4     C     3.29556  3.29556  0.00000 -0.59111
       5     C     3.16967  3.16967  0.00000 -0.33935
       6     H     0.40040  0.40040  0.00000  0.19921
       7     H     0.39919  0.39919  0.00000  0.20162
       8     C     3.15020  3.15020  0.00000 -0.30039
       9     H     0.41875  0.41875  0.00000  0.16249
      10     H     0.41893  0.41893  0.00000  0.16213
      11     C     3.23977  3.23977  0.00000 -0.47953
      12     H     0.42111  0.42111  0.00000  0.15778
      13     H     0.42046  0.42046  0.00000  0.15908
      14     H     0.42119  0.42119  0.00000  0.15762
      15     H     0.42091  0.42091  0.00000  0.15818
      16     H     0.41685  0.41685  0.00000  0.16630
      17     H     0.39523  0.39523  0.00000  0.20954
      18     H     0.40665  0.40665  0.00000  0.18670
      19     H     0.40601  0.40601  0.00000  0.18799

   Total alpha = 28.00000, Total beta = 28.00000, Total charge =  0.00000
