                              Psi4 1.0.54 Driver

  ==> Input File <==

--------------------------------------------------------------------------
set {
	reference rhf
	basis cc-pvtz
}

set_num_threads( 4 )
memory 2 gb

molecule MOL {
0 1

H	 -2.123894	 -0.667238	 -0.609809
O	 -2.041679	 -0.058866	 0.103463
C	 -0.959304	 0.780994	 -0.094939
C	 0.354905	 0.037902	 -0.006215
H	 -0.985899	 1.279578	 -1.057596
H	 -0.969809	 1.529522	 0.682889
F	 0.659299	 -0.524764	 -1.162305
F	 1.329712	 0.867813	 0.301351
F	 0.334784	 -0.911473	 0.898359

	symmetry c1
}
set optking {
	frozen_dihedral = ("
		7 4 3 5
	")
}

ee,wfn = optimize('scf', return_wfn=True)
oeprop( wfn, 'DIPOLE', 'QUADRUPOLE', 'MULLIKEN_CHARGES')
f=open( 'psi4out.xyz', 'w' )
f.write( "9  " )
f.write( str(ee) + "\n" )
f.write( MOL.save_string_xyz() )
f.close()
--------------------------------------------------------------------------

    Molecular point group: c1
  Charge       = 0
  Multiplicity = 1
  Basis Set: CC-PVTZ
  Basis Set:
  @DF-RHF Final Energy:  -450.84424146462788
    Total Energy =                       -450.8442414646278849
    Molecular point group: c1
  Basis Set: CC-PVTZ
  Basis Set:
  Basis Set: CC-PVTZ
  Basis Set:
  @DF-RHF Final Energy:  -450.84449575458945
    Total Energy =                       -450.8444957545892180
  Basis Set: CC-PVTZ
  Basis Set:
  Basis Set: CC-PVTZ
  Basis Set:
  @DF-RHF Final Energy:  -450.84459535405279
    Total Energy =                       -450.8445953540526716
  Basis Set: CC-PVTZ
  Basis Set:
  Basis Set: CC-PVTZ
  Basis Set:
  @DF-RHF Final Energy:  -450.84460312929025
    Total Energy =                       -450.8446031292903626
  Basis Set: CC-PVTZ
  Basis Set:
  Basis Set: CC-PVTZ
  Basis Set:
  @DF-RHF Final Energy:  -450.84460487548898
    Total Energy =                       -450.8446048754891535
  Basis Set: CC-PVTZ
  Basis Set:
  Charge       = 0
  Multiplicity = 1
  Basis Set: CC-PVTZ
  Basis Set:

    Orbital Energies (a.u.)
    -----------------------

    Doubly Occupied:

       1A    -26.337332     2A    -26.336876     3A    -26.336065
       4A    -20.583046     5A    -11.493060     6A    -11.310346
       7A     -1.746671     8A     -1.643720     9A     -1.641030
      10A     -1.405859    11A     -1.048517    12A     -0.929173
      13A     -0.837093    14A     -0.834102    15A     -0.808587
      16A     -0.734428    17A     -0.717668    18A     -0.703213
      19A     -0.669276    20A     -0.665064    21A     -0.647860
      22A     -0.632277    23A     -0.615709    24A     -0.534115
      25A     -0.484250

  @DF-RHF Final Energy:  -450.84460501291011

   => Energetics <=

    Nuclear Repulsion Energy =            277.1559314316709219
    One-Electron Energy =               -1176.6103977259963358
    Two-Electron Energy =                 448.6098612814151352
    DFT Exchange-Correlation Energy =       0.0000000000000000
    Empirical Dispersion Energy =           0.0000000000000000
    PCM Polarization Energy =               0.0000000000000000
    EFP Energy =                            0.0000000000000000
    Total Energy =                       -450.8446050129102218
    Molecular point group: c1
  Basis Set: CC-PVTZ
  Basis Set:

  -Total Gradient:
     Atom            X                  Y                   Z
    ------   -----------------  -----------------  -----------------
       1        0.000015037051     0.000003179010    -0.000005254228
       2       -0.000024619397    -0.000001319098     0.000017279719
       3        0.003532206694     0.006545577951     0.002200100202
       4       -0.003384263590    -0.005939612570     0.001276303399
       5       -0.002315641540    -0.004410976093    -0.002169947034
       6       -0.000026206461    -0.000014038322     0.000013027866
       7        0.002188416198     0.003765923302    -0.001287639518
       8        0.000022411044     0.000039296691    -0.000005813417
       9       -0.000007339994     0.000011969136    -0.000038056994

  **** Optimization is complete! (in 6 steps) ****
    Final optimized geometry and variables:
    Molecular point group: c1

    Geometry (in Angstrom), charge = 0, multiplicity = 1:

    H           -2.164250737945    -0.630466600275    -0.681969250344
    O           -2.056949767849    -0.081147748703     0.074259965235
    C           -0.972354289666     0.769387397368    -0.083466396371
    C            0.352736521760     0.031922419493     0.002057928485
    H           -0.999738777590     1.261166704687    -1.048576692912
    H           -1.005646572631     1.501060126480     0.707789093124
    F            0.659121561841    -0.534731400645    -1.152575784435
    F            1.323063487072     0.883013950141     0.275360035700
    F            0.362138957030    -0.899181890347     0.920370942182

  Mulliken Charges: (a.u.)
   Center  Symbol    Alpha    Beta     Spin     Total
       1     H     0.38866  0.38866  0.00000  0.22267
       2     O     4.19021  4.19021  0.00000 -0.38043
       3     C     2.99455  2.99455  0.00000  0.01091
       4     C     2.68576  2.68576  0.00000  0.62849
       5     H     0.46046  0.46046  0.00000  0.07908
       6     H     0.44617  0.44617  0.00000  0.10766
       7     F     4.61659  4.61659  0.00000 -0.23318
       8     F     4.61361  4.61361  0.00000 -0.22722
       9     F     4.60400  4.60400  0.00000 -0.20799

   Total alpha = 25.00000, Total beta = 25.00000, Total charge = -0.00000

*** Psi4 exiting successfully. Buy a developer a beer!
