  ==> Input File <==

--------------------------------------------------------------------------
set {
	reference rhf
	basis 6-31G*
}

set_num_threads( 4 )
memory 2 gb

molecule MOL {
0 1

H	 -2.273092	 1.173159	 0.000295
O	 -1.438904	 1.618192	 0.000114
C	 -0.409536	 0.736003	 0.000030
C	 0.856394	 1.257762	 -0.215349
C	 -0.597661	 -0.629174	 0.204589
H	 0.956751	 2.316248	 -0.368729
C	 1.954476	 0.418991	 -0.229087
C	 0.524220	 -1.448936	 0.185583
C	 -1.979709	 -1.196514	 0.439269
H	 2.933974	 0.830064	 -0.396712
C	 1.793940	 -0.942563	 -0.028155
H	 0.395691	 -2.505990	 0.341988
H	 -2.644144	 -1.010143	 -0.402000
H	 -1.934355	 -2.269217	 0.577933
H	 -2.445537	 -0.777909	 1.329084
H	 2.643510	 -1.600851	 -0.037537

	symmetry c1
}
set optking {
	frozen_dihedral = ("
		4 3 2 1
	")
}

ee = optimize('scf')
oeprop('DIPOLE', 'QUADRUPOLE', 'MULLIKEN_CHARGES')
f=open( 'psi4out.xyz', 'w' )
f.write( "16  " )
f.write( str(ee) + "\n" )
f.write( MOL.save_string_xyz() )
f.close()
--------------------------------------------------------------------------

    Molecular point group: c1
  Charge       = 0
  Multiplicity = 1
  Basis Set: 6-31G*
  Basis Set:
  @DF-RHF Final Energy:  -344.59364565889877
    Total Energy =                       -344.5936456588985948
    Molecular point group: c1
  Basis Set: 6-31G*
  Basis Set:
  Basis Set: 6-31G*
  Basis Set:
  @DF-RHF Final Energy:  -344.59366021174338
    Total Energy =                       -344.5936602117432130
  Basis Set: 6-31G*
  Basis Set:
  Basis Set: 6-31G*
  Basis Set:
  @DF-RHF Final Energy:  -344.59366366273571
    Total Energy =                       -344.5936636627358212
  Basis Set: 6-31G*
  Basis Set:
  Charge       = 0
  Multiplicity = 1
  Basis Set: 6-31G*
  Basis Set:

    Orbital Energies (a.u.)
    -----------------------

    Doubly Occupied:

       1A    -20.587347     2A    -11.292257     3A    -11.235048
       4A    -11.233946     5A    -11.231106     6A    -11.229685
       7A    -11.219377     8A    -11.219244     9A     -1.405857
      10A     -1.148672    11A     -1.048592    12A     -1.004056
      13A     -0.941482    14A     -0.825083    15A     -0.819256
      16A     -0.729903    17A     -0.676043    18A     -0.643561
      19A     -0.607167    20A     -0.600859    21A     -0.574645
      22A     -0.566193    23A     -0.557781    24A     -0.551581
      25A     -0.502675    26A     -0.482743    27A     -0.472628
      28A     -0.329322    29A     -0.304455

  @DF-RHF Final Energy:  -344.59366389835105

   => Energetics <=

    Nuclear Repulsion Energy =            350.1503511315998480
    One-Electron Energy =               -1161.4069075005331797
    Two-Electron Energy =                 466.6628924705821646
    DFT Exchange-Correlation Energy =       0.0000000000000000
    Empirical Dispersion Energy =           0.0000000000000000
    PCM Polarization Energy =               0.0000000000000000
    EFP Energy =                            0.0000000000000000
    Total Energy =                       -344.5936638983512239
    Molecular point group: c1
  Basis Set: 6-31G*
  Basis Set:

  -Total Gradient:
     Atom            X                  Y                   Z
    ------   -----------------  -----------------  -----------------
       1        0.000005058038     0.000002196856    -0.000528898226
       2       -0.000012437833    -0.000011017430     0.000498593425
       3        0.000037364592     0.000038637286     0.000373677671
       4       -0.000009380357    -0.000047813641    -0.000342722817
       5       -0.000014508290     0.000027153909     0.000003037369
       6       -0.000003062605     0.000003319505    -0.000007051089
       7       -0.000017713111     0.000039953206    -0.000005397727
       8        0.000050858884    -0.000007288219     0.000028364941
       9        0.000014995962    -0.000001872398     0.000046845819
      10       -0.000001987540    -0.000001626258     0.000004399238
      11       -0.000037574563    -0.000039563656    -0.000022242730
      12       -0.000002874392    -0.000000784572    -0.000007743008
      13       -0.000018217711    -0.000009447577    -0.000012909616
      14       -0.000004458255    -0.000000597844    -0.000020339421
      15        0.000010644241     0.000006132233    -0.000014750583
      16        0.000003292943     0.000002618597     0.000007136753

  **** Optimization is complete! (in 4 steps) ****
    Final optimized geometry and variables:
    Molecular point group: c1

    Geometry (in Angstrom), charge = 0, multiplicity = 1:

    H           -2.276135557274     1.168521670061    -0.042237319639
    O           -1.442350483162     1.614523871453    -0.040182267307
    C           -0.412113443516     0.732601536083    -0.050095108808
    C            0.853780552305     1.254791280582    -0.263240509373
    C           -0.600536063851    -0.633170368370     0.151098662211
    H            0.954363532590     2.313430205587    -0.415485300328
    C            1.952446624486     0.416250932596    -0.275845445130
    C            0.520805038905    -1.453229464017     0.128755855583
    C           -1.982387663948    -1.198678025521     0.389448301158
    H            2.932199108753     0.827831434231    -0.440650400303
    C            1.791158256147    -0.945883885773    -0.081102336417
    H            0.391912444147    -2.510690636759     0.281996049962
    H           -2.641866182210    -1.038847778992    -0.461898763904
    H           -1.935098434158    -2.267292755002     0.556580871585
    H           -2.455151172541    -0.755068801292     1.262502695646
    H            2.640902497843    -1.603986498716    -0.091410483999

  Mulliken Charges: (a.u.)
   Center  Symbol    Alpha    Beta     Spin     Total
       1     H     0.26638  0.26638  0.00000  0.46724
       2     O     4.38236  4.38236  0.00000 -0.76472
       3     C     2.81798  2.81798  0.00000  0.36405
       4     C     3.11902  3.11902  0.00000 -0.23803
       5     C     3.00631  3.00631  0.00000 -0.01263
       6     H     0.39218  0.39218  0.00000  0.21564
       7     C     3.09549  3.09549  0.00000 -0.19098
       8     C     3.10674  3.10674  0.00000 -0.21348
       9     C     3.27490  3.27490  0.00000 -0.54980
      10     H     0.39897  0.39897  0.00000  0.20207
      11     C     3.10864  3.10864  0.00000 -0.21728
      12     H     0.40171  0.40171  0.00000  0.19659
      13     H     0.41431  0.41431  0.00000  0.17139
      14     H     0.40418  0.40418  0.00000  0.19165
      15     H     0.40973  0.40973  0.00000  0.18054
      16     H     0.40112  0.40112  0.00000  0.19776

   Total alpha = 29.00000, Total beta = 29.00000, Total charge =  0.00000
