  ==> Input File <==

--------------------------------------------------------------------------
set {
	reference rhf
	basis cc-pvtz
}

set_num_threads( 4 )
memory 2 gb

molecule MOL {
0 1

H	 -3.268214	 -0.875720	 0.463107
C	 -2.806015	 0.000007	 0.024886
N	 -1.391133	 0.000016	 0.301321
H	 -3.029448	 0.000055	 -1.045738
H	 -3.268126	 0.875758	 0.463150
C	 -1.015877	 1.025050	 1.251092
C	 -0.595104	 0.097801	 -0.902966
H	 -1.237876	 2.025097	 0.867069
H	 -1.590524	 0.888639	 2.159529
C	 0.463341	 0.938508	 1.577337
H	 -0.862562	 -0.715534	 -1.567076
H	 -0.788416	 1.034639	 -1.433826
C	 0.884114	 0.011259	 -0.576721
H	 0.730799	 1.751843	 2.241447
H	 0.656653	 0.001670	 2.108197
N	 1.259370	 1.036293	 0.373050
H	 1.458761	 0.147670	 -1.485158
H	 1.106113	 -0.988788	 -0.192698
C	 2.674252	 1.036302	 0.649485
H	 2.921011	 1.854930	 1.313956
H	 3.230286	 1.173341	 -0.269541
H	 3.015755	 0.107827	 1.115819

	symmetry c1
}
set optking {
	frozen_dihedral = ("
		6 3 2 4
	")
}

ee = optimize('scf')
oeprop('DIPOLE', 'QUADRUPOLE', 'MULLIKEN_CHARGES')
f=open( 'psi4out.xyz', 'w' )
f.write( "22  " )
f.write( str(ee) + "\n" )
f.write( MOL.save_string_xyz() )
f.close()
--------------------------------------------------------------------------

    Molecular point group: c1
  Charge       = 0
  Multiplicity = 1
  Basis Set: CC-PVTZ
  Basis Set:
  @DF-RHF Final Energy:  -344.34400800875250
    Total Energy =                       -344.3440080087526667
    Molecular point group: c1
  Basis Set: CC-PVTZ
  Basis Set:
  Basis Set: CC-PVTZ
  Basis Set:
  @DF-RHF Final Energy:  -344.34460844043468
    Total Energy =                       -344.3446084404347403
  Basis Set: CC-PVTZ
  Basis Set:
  Basis Set: CC-PVTZ
  Basis Set:
  @DF-RHF Final Energy:  -344.34471596010832
    Total Energy =                       -344.3447159601086014
  Basis Set: CC-PVTZ
  Basis Set:
  Charge       = 0
  Multiplicity = 1
  Basis Set: CC-PVTZ
  Basis Set:

    Orbital Energies (a.u.)
    -----------------------

    Doubly Occupied:

       1A    -15.537044     2A    -15.534669     3A    -11.237268
       4A    -11.237210     5A    -11.236291     6A    -11.236277
       7A    -11.233976     8A    -11.233872     9A     -1.255119
      10A     -1.203330    11A     -1.025325    12A     -0.991777
      13A     -0.912619    14A     -0.867378    15A     -0.836690
      16A     -0.754908    17A     -0.665909    18A     -0.635891
      19A     -0.631423    20A     -0.624614    21A     -0.620991
      22A     -0.580727    23A     -0.551852    24A     -0.549879
      25A     -0.542130    26A     -0.520105    27A     -0.498053
      28A     -0.487331    29A     -0.465381    30A     -0.456297
      31A     -0.350997    32A     -0.343529

  @DF-RHF Final Energy:  -344.34471762055460

   => Energetics <=

    Nuclear Repulsion Energy =            421.4297915718072431
    One-Electron Energy =               -1301.8312958386627542
    Two-Electron Energy =                 536.0567866463006794
    DFT Exchange-Correlation Energy =       0.0000000000000000
    Empirical Dispersion Energy =           0.0000000000000000
    PCM Polarization Energy =               0.0000000000000000
    EFP Energy =                            0.0000000000000000
    Total Energy =                       -344.3447176205547748
    Molecular point group: c1
  Basis Set: CC-PVTZ
  Basis Set:

  -Total Gradient:
     Atom            X                  Y                   Z
    ------   -----------------  -----------------  -----------------
       1        0.000003172066    -0.000011359653     0.000009582242
       2        0.000058467472    -0.001733975197    -0.000421823250
       3       -0.000346949280    -0.000768980757     0.001356474013
       4       -0.000076793407     0.001637719242     0.000049399427
       5       -0.000005964348     0.000004335543     0.000000117320
       6        0.000194579821     0.000921876600    -0.000936216360
       7        0.000131715294     0.000021942972    -0.000009434365
       8       -0.000016964224    -0.000031639459    -0.000009878681
       9       -0.000004284844    -0.000029666893    -0.000034908796
      10        0.000016448686    -0.000052234721     0.000001209359
      11       -0.000003879903     0.000007865185     0.000038637634
      12        0.000005538803    -0.000030127175     0.000028600090
      13        0.000025489273     0.000023689415    -0.000065165063
      14        0.000020544113     0.000009442392     0.000003122572
      15        0.000007856510     0.000003249687     0.000004185247
      16       -0.000016766656     0.000013209345    -0.000009239729
      17        0.000071480695     0.000005251468    -0.000007200744
      18       -0.000024391936     0.000029173645    -0.000003148313
      19       -0.000011370098    -0.000023704881     0.000007949480
      20       -0.000011945176     0.000002325834     0.000000635179
      21       -0.000014802664    -0.000000306144    -0.000002505384
      22       -0.000001180195     0.000001913552    -0.000000391878

  **** Optimization is complete! (in 4 steps) ****
    Final optimized geometry and variables:
    Molecular point group: c1

    Geometry (in Angstrom), charge = 0, multiplicity = 1:

    H           -3.209089154932    -1.429706975941     0.129944597616
    C           -2.757929404375    -0.541510419789    -0.298384356162
    N           -1.327420533034    -0.500176950212    -0.044202779934
    H           -2.967577809338    -0.534439077902    -1.361631134708
    H           -3.263825735101     0.323311764267     0.121606256301
    C           -0.945915024911     0.518266757172     0.909841360535
    C           -0.526426081152    -0.409746491455    -1.246377668618
    H           -1.161411210896     1.521814007684     0.531653726665
    H           -1.519752241397     0.381437411405     1.818825058599
    C            0.531938899475     0.421011331433     1.238866567647
    H           -0.792075936633    -1.225189396793    -1.908072065090
    H           -0.709113401182     0.525496869523    -1.783743462746
    C            0.951040147069    -0.505988044438    -0.914390180335
    H            0.803391794078     1.231426683103     1.905251779643
    H            0.717558465528    -0.518239920049     1.768456917831
    N            1.331204117477     0.515555253516     0.036791895479
    H            1.530140457176    -0.374135430724    -1.820946327730
    H            1.163683816724    -1.507828868794    -0.529419370078
    C            2.745230903502     0.505835733161     0.316165271989
    H            2.995965720402     1.321888362877     0.982428907043
    H            3.304229384713     0.640467689489    -0.601493027434
    H            3.079840142915    -0.425531317528     0.781988660470

  Mulliken Charges: (a.u.)
   Center  Symbol    Alpha    Beta     Spin     Total
       1     H     0.44973  0.44973  0.00000  0.10055
       2     C     3.09214  3.09214  0.00000 -0.18428
       3     N     3.61606  3.61606  0.00000 -0.23212
       4     H     0.45972  0.45972  0.00000  0.08057
       5     H     0.46257  0.46257  0.00000  0.07487
       6     C     3.03600  3.03600  0.00000 -0.07199
       7     C     3.03579  3.03579  0.00000 -0.07159
       8     H     0.46804  0.46804  0.00000  0.06392
       9     H     0.45321  0.45321  0.00000  0.09357
      10     C     3.03734  3.03734  0.00000 -0.07467
      11     H     0.45334  0.45334  0.00000  0.09331
      12     H     0.46823  0.46823  0.00000  0.06355
      13     C     3.03710  3.03710  0.00000 -0.07420
      14     H     0.45410  0.45410  0.00000  0.09180
      15     H     0.46859  0.46859  0.00000  0.06282
      16     N     3.61286  3.61286  0.00000 -0.22572
      17     H     0.45409  0.45409  0.00000  0.09183
      18     H     0.46866  0.46866  0.00000  0.06269
      19     C     3.09832  3.09832  0.00000 -0.19665
      20     H     0.45200  0.45200  0.00000  0.09601
      21     H     0.45200  0.45200  0.00000  0.09599
      22     H     0.47013  0.47013  0.00000  0.05973

   Total alpha = 32.00000, Total beta = 32.00000, Total charge =  0.00000
