                              Psi4 1.0.54 Driver

  ==> Input File <==

--------------------------------------------------------------------------
set {
	reference rhf
	basis cc-pvtz
}

set_num_threads( 4 )
memory 2 gb

molecule MOL {
0 1

H	 2.152523	 -0.796664	 -0.509608
C	 1.401152	 -1.282063	 -1.146384
C	 0.098917	 -0.541496	 -1.275002
O	 1.645935	 -2.314415	 -1.667887
C	 -0.554654	 -0.292621	 0.086567
H	 -0.553531	 -1.105866	 -1.928174
H	 0.312838	 0.412546	 -1.752411
C	 -1.846385	 0.513195	 -0.016346
H	 -0.761432	 -1.246699	 0.562924
H	 0.143946	 0.230396	 0.734705
C	 -3.089953	 -0.365049	 -0.098564
H	 -1.798267	 1.154820	 -0.891143
H	 -1.925398	 1.173265	 0.842889
H	 -3.055079	 -1.012299	 -0.968245
H	 -3.988403	 0.236438	 -0.170014
H	 -3.183055	 -0.995885	 0.779079

	symmetry c1
}
set optking {
	frozen_dihedral = ("
		9 5 8 12
	")
}

ee,wfn = optimize('scf', return_wfn=True)
oeprop( wfn, 'DIPOLE', 'QUADRUPOLE', 'MULLIKEN_CHARGES')
f=open( 'psi4out.xyz', 'w' )
f.write( "16  " )
f.write( str(ee) + "\n" )
f.write( MOL.save_string_xyz() )
f.close()
--------------------------------------------------------------------------

    Molecular point group: c1
  Charge       = 0
  Multiplicity = 1
  Basis Set: CC-PVTZ
  Basis Set:
  @DF-RHF Final Energy:  -270.11517588574935
    Total Energy =                       -270.1151758857491814
    Molecular point group: c1
  Basis Set: CC-PVTZ
  Basis Set:
  Basis Set: CC-PVTZ
  Basis Set:
  @DF-RHF Final Energy:  -270.11543587404407
    Total Energy =                       -270.1154358740438965
  Basis Set: CC-PVTZ
  Basis Set:
  Basis Set: CC-PVTZ
  Basis Set:
  @DF-RHF Final Energy:  -270.11549851689347
    Total Energy =                       -270.1154985168934104
  Basis Set: CC-PVTZ
  Basis Set:
  Basis Set: CC-PVTZ
  Basis Set:
  @DF-RHF Final Energy:  -270.11501952375028
    Total Energy =                       -270.1150195237500498
  Basis Set: CC-PVTZ
  Basis Set:
  Basis Set: CC-PVTZ
  Basis Set:
  @DF-RHF Final Energy:  -270.11551610891945
    Total Energy =                       -270.1155161089195076
  Basis Set: CC-PVTZ
  Basis Set:
  Basis Set: CC-PVTZ
  Basis Set:
  @DF-RHF Final Energy:  -270.11551571486086
    Total Energy =                       -270.1155157148607486
  Basis Set: CC-PVTZ
  Basis Set:
  Basis Set: CC-PVTZ
  Basis Set:
  @DF-RHF Final Energy:  -270.11552310709732
    Total Energy =                       -270.1155231070972036
  Basis Set: CC-PVTZ
  Basis Set:
  Charge       = 0
  Multiplicity = 1
  Basis Set: CC-PVTZ
  Basis Set:

    Orbital Energies (a.u.)
    -----------------------

    Doubly Occupied:

       1A    -20.552142     2A    -11.321136     3A    -11.234728
       4A    -11.233962     5A    -11.227426     6A    -11.215872
       7A     -1.406811     8A     -1.096708     9A     -1.017421
      10A     -0.908847    11A     -0.811281    12A     -0.793713
      13A     -0.679891    14A     -0.650261    15A     -0.624739
      16A     -0.613282    17A     -0.583089    18A     -0.548697
      19A     -0.536410    20A     -0.510386    21A     -0.487914
      22A     -0.479830    23A     -0.475829    24A     -0.411588

  @DF-RHF Final Energy:  -270.11552324254058

   => Energetics <=

    Nuclear Repulsion Energy =            231.5753186638353611
    One-Electron Energy =                -824.5377578825089131
    Two-Electron Energy =                 322.8469159761330047
    DFT Exchange-Correlation Energy =       0.0000000000000000
    Empirical Dispersion Energy =           0.0000000000000000
    PCM Polarization Energy =               0.0000000000000000
    EFP Energy =                            0.0000000000000000
    Total Energy =                       -270.1155232425405757
    Molecular point group: c1
  Basis Set: CC-PVTZ
  Basis Set:

  -Total Gradient:
     Atom            X                  Y                   Z
    ------   -----------------  -----------------  -----------------
       1       -0.000028325544    -0.000016463924    -0.000011168867
       2        0.000035546866    -0.000004863995    -0.000002276154
       3       -0.000020593894    -0.000002267678     0.000039346812
       4       -0.000004004888     0.000022985614     0.000000301824
       5        0.000516555354     0.001209938124     0.003331724350
       6        0.000009121782     0.000004651022    -0.000001450240
       7        0.000007846987    -0.000006664046    -0.000014009684
       8        0.001617908987     0.002822466357     0.001578081255
       9       -0.000701685736    -0.001459984246    -0.003072165478
      10       -0.000011549951     0.000007868893     0.000001233898
      11        0.000006355349    -0.000013308945     0.000004574602
      12       -0.001434648433    -0.002563117575    -0.001857125881
      13        0.000005786989    -0.000004725010     0.000002325905
      14        0.000000537288    -0.000001352705     0.000000882613
      15        0.000008796572     0.000002632201    -0.000003251769
      16       -0.000007647729     0.000002205910     0.000002976812

  **** Optimization is complete! (in 8 steps) ****
    Final optimized geometry and variables:
    Molecular point group: c1

    Geometry (in Angstrom), charge = 0, multiplicity = 1:

    H            2.563304635994    -0.135967597060     0.106811205425
    C            1.771368763107    -0.602813806233    -0.493639409522
    C            0.497560862219     0.189293742647    -0.596636248896
    O            1.955197779707    -1.656214099363    -0.998065642712
    C           -0.103743460666     0.484398929407     0.783163484796
    H           -0.194301241938    -0.357698646937    -1.223269066024
    H            0.735809550987     1.127446156749    -1.092800674430
    C           -1.414647473250     1.281425602817     0.701384431782
    H           -0.289261895977    -0.464381409664     1.277141605721
    H            0.625196570029     1.021471976014     1.380491755111
    C           -2.653579099904     0.390852049234     0.628753548647
    H           -1.397591985279     1.912202797243    -0.181889295463
    H           -1.499604366769     1.937625964550     1.559671500809
    H           -2.607138741173    -0.284920500347    -0.218336782514
    H           -3.554062666246     0.985034552535     0.525884026948
    H           -2.753581353572    -0.210959678395     1.525328732007

  Mulliken Charges: (a.u.)
   Center  Symbol    Alpha    Beta     Spin     Total
       1     H     0.46463  0.46463  0.00000  0.07074
       2     C     2.91073  2.91073  0.00000  0.17854
       3     C     3.07723  3.07723  0.00000 -0.15446
       4     O     4.16396  4.16396  0.00000 -0.32793
       5     C     3.10925  3.10925  0.00000 -0.21851
       6     H     0.44295  0.44295  0.00000  0.11410
       7     H     0.45008  0.45008  0.00000  0.09984
       8     C     3.08946  3.08946  0.00000 -0.17892
       9     H     0.44687  0.44687  0.00000  0.10625
      10     H     0.44438  0.44438  0.00000  0.11124
      11     C     3.14719  3.14719  0.00000 -0.29438
      12     H     0.45454  0.45454  0.00000  0.09093
      13     H     0.44522  0.44522  0.00000  0.10956
      14     H     0.45260  0.45260  0.00000  0.09480
      15     H     0.44731  0.44731  0.00000  0.10537
      16     H     0.45358  0.45358  0.00000  0.09284

   Total alpha = 24.00000, Total beta = 24.00000, Total charge = -0.00000

*** Psi4 exiting successfully. Buy a developer a beer!
