  ==> Input File <==

--------------------------------------------------------------------------
set {
	reference rhf
	basis cc-pvtz
}

set_num_threads( 4 )
memory 2 gb

molecule MOL {
0 1

H	 2.769162	 1.908420	 -1.180579
N	 2.004182	 1.269541	 -1.228091
C	 1.860978	 0.530248	 0.016256
H	 2.183981	 0.651080	 -1.991324
C	 0.644130	 -0.381765	 -0.031064
H	 1.736776	 1.251043	 0.817465
H	 2.743670	 -0.061708	 0.262019
C	 -0.678115	 0.376691	 0.025731
H	 0.693998	 -0.977147	 -0.936845
H	 0.693309	 -1.082142	 0.800523
C	 -1.900706	 -0.535531	 -0.022488
H	 -0.725296	 1.079516	 -0.802982
H	 -0.715474	 0.974884	 0.933278
C	 -3.220513	 0.226854	 0.028039
H	 -1.865036	 -1.134397	 -0.928236
H	 -1.857948	 -1.236381	 0.806820
H	 -3.309098	 0.911849	 -0.808725
H	 -4.066838	 -0.449485	 -0.008086
H	 -3.301685	 0.809374	 0.939860

	symmetry c1
}
set optking {
	frozen_dihedral = ("
		6 3 5 9
	")
}

ee = optimize('scf')
oeprop('DIPOLE', 'QUADRUPOLE', 'MULLIKEN_CHARGES')
f=open( 'psi4out.xyz', 'w' )
f.write( "19  " )
f.write( str(ee) + "\n" )
f.write( MOL.save_string_xyz() )
f.close()
--------------------------------------------------------------------------

    Molecular point group: c1
  Charge       = 0
  Multiplicity = 1
  Basis Set: CC-PVTZ
  Basis Set:
  @DF-RHF Final Energy:  -251.44726882812660
    Total Energy =                       -251.4472688281263117
    Molecular point group: c1
  Basis Set: CC-PVTZ
  Basis Set:
  Basis Set: CC-PVTZ
  Basis Set:
  @DF-RHF Final Energy:  -251.44742542667248
    Total Energy =                       -251.4474254266725666
  Basis Set: CC-PVTZ
  Basis Set:
  Basis Set: CC-PVTZ
  Basis Set:
  @DF-RHF Final Energy:  -251.44744864737748
    Total Energy =                       -251.4474486473772004
  Basis Set: CC-PVTZ
  Basis Set:
  Basis Set: CC-PVTZ
  Basis Set:
  @DF-RHF Final Energy:  -251.44745000702142
    Total Energy =                       -251.4474500070212457
  Basis Set: CC-PVTZ
  Basis Set:
  Charge       = 0
  Multiplicity = 1
  Basis Set: CC-PVTZ
  Basis Set:

    Orbital Energies (a.u.)
    -----------------------

    Doubly Occupied:

       1A    -15.527231     2A    -11.238859     3A    -11.208401
       4A    -11.207405     5A    -11.201596     6A    -11.201471
       7A     -1.178901     8A     -1.068394     9A     -0.996428
      10A     -0.901738    11A     -0.811834    12A     -0.782560
      13A     -0.666843    14A     -0.638046    15A     -0.617940
      16A     -0.586587    17A     -0.561128    18A     -0.547053
      19A     -0.532545    20A     -0.490437    21A     -0.482450
      22A     -0.460637    23A     -0.457399    24A     -0.450515
      25A     -0.381991

  @DF-RHF Final Energy:  -251.44745021552322

   => Energetics <=

    Nuclear Repulsion Energy =            249.1738961890985991
    One-Electron Energy =                -832.8459185946460366
    Two-Electron Energy =                 332.2245721900241620
    DFT Exchange-Correlation Energy =       0.0000000000000000
    Empirical Dispersion Energy =           0.0000000000000000
    PCM Polarization Energy =               0.0000000000000000
    EFP Energy =                            0.0000000000000000
    Total Energy =                       -251.4474502155232472
    Molecular point group: c1
  Basis Set: CC-PVTZ
  Basis Set:

  -Total Gradient:
     Atom            X                  Y                   Z
    ------   -----------------  -----------------  -----------------
       1        0.000004485521     0.000003018016     0.000002105711
       2        0.000000128585     0.000012215453     0.000005817924
       3        0.000597921380    -0.000845801602     0.000914195487
       4        0.000001258923    -0.000000902708     0.000007521719
       5        0.000716605075    -0.000974796499     0.000642539634
       6       -0.000613171252     0.000843672892    -0.000888371981
       7       -0.000004759751     0.000010859492    -0.000008256667
       8        0.000002305807    -0.000002351607     0.000004434356
       9       -0.000689717877     0.000965477763    -0.000662117479
      10       -0.000003981224    -0.000020684170     0.000008763624
      11        0.000009480316     0.000004037893    -0.000013073693
      12        0.000000520583     0.000006096725    -0.000021672460
      13        0.000003538784    -0.000002015566    -0.000002468110
      14       -0.000021706922    -0.000010899943     0.000013682570
      15       -0.000001311313     0.000004432943     0.000003797247
      16       -0.000000649398     0.000005960319    -0.000009232469
      17        0.000004476966    -0.000006782535    -0.000003265178
      18       -0.000004995620     0.000005365711     0.000005046639
      19       -0.000000428583     0.000003097424     0.000000553126

  **** Optimization is complete! (in 5 steps) ****
    Final optimized geometry and variables:
    Molecular point group: c1

    Geometry (in Angstrom), charge = 0, multiplicity = 1:

    H            2.926773234417     1.661048820821    -0.983590631748
    N            2.191208069884     0.988648724474    -1.029291942969
    C            2.059889492412     0.266242464878     0.228305714048
    H            2.408063887367     0.363577945787    -1.777333074228
    C            0.832544969108    -0.638766801307     0.218392772489
    H            1.954731183114     1.004360657876     1.016410872714
    H            2.941606433752    -0.328671928607     0.463859808342
    C           -0.492342310543     0.118175166683     0.261436384559
    H            0.861104464822    -1.255683024345    -0.677652355750
    H            0.891112496934    -1.318474347999     1.064016368095
    C           -1.711113299207    -0.796712260473     0.182885779973
    H           -0.519884901808     0.833314737383    -0.552722326632
    H           -0.539775905426     0.696873003503     1.181532518898
    C           -3.033031896474    -0.038628712150     0.245224103062
    H           -1.669988757364    -1.370441659724    -0.739244054683
    H           -1.673718754863    -1.520873767774     0.992767741951
    H           -3.115134487980     0.670211288901    -0.571938899859
    H           -3.878431191276    -0.714595752433     0.183447138738
    H           -3.121632106674     0.517476199923     1.172718047959

  Mulliken Charges: (a.u.)
   Center  Symbol    Alpha    Beta     Spin     Total
       1     H     0.42873  0.42873  0.00000  0.14253
       2     N     3.69109  3.69109  0.00000 -0.38218
       3     C     3.03743  3.03743  0.00000 -0.07487
       4     H     0.43104  0.43104  0.00000  0.13792
       5     C     3.08969  3.08969  0.00000 -0.17937
       6     H     0.45735  0.45735  0.00000  0.08529
       7     H     0.45898  0.45898  0.00000  0.08204
       8     C     3.08208  3.08208  0.00000 -0.16417
       9     H     0.45935  0.45935  0.00000  0.08130
      10     H     0.45175  0.45175  0.00000  0.09651
      11     C     3.08419  3.08419  0.00000 -0.16837
      12     H     0.44669  0.44669  0.00000  0.10662
      13     H     0.45909  0.45909  0.00000  0.08183
      14     C     3.14975  3.14975  0.00000 -0.29951
      15     H     0.45566  0.45566  0.00000  0.08869
      16     H     0.45693  0.45693  0.00000  0.08615
      17     H     0.45462  0.45462  0.00000  0.09077
      18     H     0.44974  0.44974  0.00000  0.10053
      19     H     0.45585  0.45585  0.00000  0.08830

   Total alpha = 25.00000, Total beta = 25.00000, Total charge = -0.00000
