  ==> Input File <==

--------------------------------------------------------------------------
set {
	reference rhf
	basis 6-31G*
}

set_num_threads( 1 )
memory 2 gb

molecule MOL {
0 1

O	 -0.998506	 1.319478	 2.483205
C	 -0.563894	 1.752497	 1.459466
C	 0.692431	 1.167909	 0.838010
C	 -1.253086	 2.874886	 0.716073
C	 0.379448	 -0.143569	 0.099626
H	 1.395834	 0.972568	 1.640114
H	 1.147505	 1.879269	 0.154708
C	 1.631333	 -0.777471	 -0.511575
H	 -0.088737	 -0.823713	 0.802187
H	 -0.348107	 0.044305	 -0.688481
C	 2.915987	 -0.544314	 0.291766
H	 1.766672	 -0.399098	 -1.523130
H	 1.471257	 -1.849544	 -0.605828
C	 3.373361	 0.914346	 0.347591
H	 3.708709	 -1.142521	 -0.150311
H	 2.780642	 -0.921148	 1.303579
H	 3.506512	 1.320010	 -0.651625
H	 4.322697	 0.999599	 0.867103
H	 2.660624	 1.545032	 0.868198
H	 -0.619807	 3.758181	 0.719448
H	 -2.196685	 3.107937	 1.189458
H	 -1.418294	 2.603520	 -0.322615

	symmetry c1
}
set optking {
	frozen_dihedral = ("
		6 3 2 1,
		6 3 5 8,
		12 8 11 15
	")
}

ee = energy('scf')
oeprop('DIPOLE', 'QUADRUPOLE', 'MULLIKEN_CHARGES')
f=open( 'psi4out.xyz', 'w' )
f.write( "22  " )
f.write( str(ee) + "\n" )
f.write( MOL.save_string_xyz() )
f.close()
--------------------------------------------------------------------------

    Molecular point group: c1

    Geometry (in Angstrom), charge = 0, multiplicity = 1:

       Center              X                  Y                   Z               Mass
    ------------   -----------------  -----------------  -----------------  -----------------
           O         -1.772939404881     0.485000953834     1.762452021813    15.994914619560
           C         -1.338327404881     0.918019953834     0.738713021813    12.000000000000
           C         -0.082002404881     0.333431953834     0.117257021813    12.000000000000
           C         -2.027519404881     2.040408953834    -0.004679978187    12.000000000000
           C         -0.394985404881    -0.978046046166    -0.621126978187    12.000000000000
           H          0.621400595119     0.138090953834     0.919361021813     1.007825032070
           H          0.373071595119     1.044791953834    -0.566044978187     1.007825032070
           C          0.856899595119    -1.611948046166    -1.232327978187    12.000000000000
           H         -0.863170404881    -1.658190046166     0.081434021813     1.007825032070
           H         -1.122540404881    -0.790172046166    -1.409233978187     1.007825032070
           C          2.141553595119    -1.378791046166    -0.428986978187    12.000000000000
           H          0.992238595119    -1.233575046166    -2.243882978187     1.007825032070
           H          0.696823595119    -2.684021046166    -1.326580978187     1.007825032070
           C          2.598927595119     0.079868953834    -0.373161978187    12.000000000000
           H          2.934275595119    -1.976998046166    -0.871063978187     1.007825032070
           H          2.006208595119    -1.755625046166     0.582826021813     1.007825032070
           H          2.732078595119     0.485532953834    -1.372377978187     1.007825032070
           H          3.548263595119     0.165121953834     0.146350021813     1.007825032070
           H          1.886190595119     0.710554953834     0.147445021813     1.007825032070
           H         -1.394240404881     2.923703953834    -0.001304978187     1.007825032070
           H         -2.971118404881     2.273459953834     0.468705021813     1.007825032070
           H         -2.192727404881     1.769042953834    -1.043367978187     1.007825032070

  Charge       = 0
  Multiplicity = 1
  Basis Set: 6-31G*
  Basis Set:

    Orbital Energies (a.u.)
    -----------------------

    Doubly Occupied:

       1A    -20.546081     2A    -11.322466     3A    -11.230427
       4A    -11.227698     5A    -11.226952     6A    -11.222346
       7A    -11.221315     8A    -11.205577     9A     -1.392026
      10A     -1.104708    11A     -1.036669    12A     -0.996466
      13A     -0.956152    14A     -0.852978    15A     -0.785850
      16A     -0.742408    17A     -0.665462    18A     -0.659038
      19A     -0.624592    20A     -0.601725    21A     -0.593659
      22A     -0.591396    23A     -0.563513    24A     -0.551551
      25A     -0.538497    26A     -0.522988    27A     -0.497559
      28A     -0.483830    29A     -0.469851    30A     -0.464168
      31A     -0.447048    32A     -0.392529

  @DF-RHF Final Energy:  -348.06488967660204

   => Energetics <=

    Nuclear Repulsion Energy =            388.3186987750856929
    One-Electron Energy =               -1241.2919559562481027
    Two-Electron Energy =                 504.9083675045607720
    DFT Exchange-Correlation Energy =       0.0000000000000000
    Empirical Dispersion Energy =           0.0000000000000000
    PCM Polarization Energy =               0.0000000000000000
    EFP Energy =                            0.0000000000000000
    Total Energy =                       -348.0648896766015810

  Mulliken Charges: (a.u.)
   Center  Symbol    Alpha    Beta     Spin     Total
       1     O     4.26359  4.26359  0.00000 -0.52719
       2     C     2.73157  2.73157  0.00000  0.53685
       3     C     3.22656  3.22656  0.00000 -0.45312
       4     C     3.28980  3.28980  0.00000 -0.57960
       5     C     3.15736  3.15736  0.00000 -0.31472
       6     H     0.39270  0.39270  0.00000  0.21460
       7     H     0.40885  0.40885  0.00000  0.18231
       8     C     3.15417  3.15417  0.00000 -0.30833
       9     H     0.40465  0.40465  0.00000  0.19069
      10     H     0.41838  0.41838  0.00000  0.16323
      11     C     3.16224  3.16224  0.00000 -0.32447
      12     H     0.42203  0.42203  0.00000  0.15594
      13     H     0.41596  0.41596  0.00000  0.16808
      14     C     3.24591  3.24591  0.00000 -0.49182
      15     H     0.41641  0.41641  0.00000  0.16718
      16     H     0.41910  0.41910  0.00000  0.16181
      17     H     0.42320  0.42320  0.00000  0.15359
      18     H     0.41882  0.41882  0.00000  0.16236
      19     H     0.41412  0.41412  0.00000  0.17175
      20     H     0.40756  0.40756  0.00000  0.18488
      21     H     0.39710  0.39710  0.00000  0.20579
      22     H     0.40991  0.40991  0.00000  0.18018

   Total alpha = 32.00000, Total beta = 32.00000, Total charge =  0.00000
