                              Psi4 1.0.54 Driver

  ==> Input File <==

--------------------------------------------------------------------------
set {
	reference rhf
	basis cc-pvtz
}

set_num_threads( 4 )
memory 2 gb

molecule MOL {
0 1

O	 1.846234	 1.296912	 -0.053897
C	 1.700007	 0.126752	 -0.155786
C	 0.376233	 -0.593837	 -0.151931
O	 2.707609	 -0.720128	 -0.289764
C	 -0.824290	 0.329213	 -0.000115
H	 0.319126	 -1.164717	 -1.072954
H	 0.412238	 -1.326623	 0.647550
C	 -2.146151	 -0.432825	 -0.000068
H	 -0.818996	 1.057325	 -0.803295
H	 -0.725639	 0.895429	 0.919101
C	 -3.366283	 0.483552	 0.000557
H	 -2.189286	 -1.084450	 -0.869996
H	 -2.188867	 -1.085083	 0.869399
C	 -4.687436	 -0.278003	 0.000108
H	 -3.325150	 1.134819	 -0.867957
H	 -3.325087	 1.133730	 0.869885
H	 -4.773783	 -0.912098	 -0.876078
H	 -5.531922	 0.401392	 0.000363
H	 -4.773901	 -0.912898	 0.875703
C	 4.012649	 -0.178091	 -0.309522
H	 4.128411	 0.507237	 -1.136044
H	 4.681143	 -1.015823	 -0.424265
H	 4.223004	 0.343202	 0.612551

	symmetry c1
}
set optking {
	frozen_dihedral = ("
		9 5 8 12
	")
}

ee,wfn = optimize('scf', return_wfn=True)
oeprop( wfn, 'DIPOLE', 'QUADRUPOLE', 'MULLIKEN_CHARGES')
f=open( 'psi4out.xyz', 'w' )
f.write( "23  " )
f.write( str(ee) + "\n" )
f.write( MOL.save_string_xyz() )
f.close()
--------------------------------------------------------------------------

    Molecular point group: c1
  Charge       = 0
  Multiplicity = 1
  Basis Set: CC-PVTZ
  Basis Set:
  @DF-RHF Final Energy:  -423.13095195657741
    Total Energy =                       -423.1309519565774053
    Molecular point group: c1
  Basis Set: CC-PVTZ
  Basis Set:
  Basis Set: CC-PVTZ
  Basis Set:
  @DF-RHF Final Energy:  -423.13096866391521
    Total Energy =                       -423.1309686639153824
  Basis Set: CC-PVTZ
  Basis Set:
  Basis Set: CC-PVTZ
  Basis Set:
  @DF-RHF Final Energy:  -423.13095334562394
    Total Energy =                       -423.1309533456237659
  Basis Set: CC-PVTZ
  Basis Set:
  Basis Set: CC-PVTZ
  Basis Set:
  @DF-RHF Final Energy:  -423.13097764598666
    Total Energy =                       -423.1309776459861496
  Basis Set: CC-PVTZ
  Basis Set:
  Charge       = 0
  Multiplicity = 1
  Basis Set: CC-PVTZ
  Basis Set:

    Orbital Energies (a.u.)
    -----------------------

    Doubly Occupied:

       1A    -20.596313     2A    -20.534120     3A    -11.364574
       4A    -11.278483     5A    -11.233868     6A    -11.217102
       7A    -11.215782     8A    -11.214584     9A    -11.207782
      10A     -1.472206    11A     -1.365781    12A     -1.094483
      13A     -1.044870    14A     -0.988066    15A     -0.932766
      16A     -0.844178    17A     -0.795736    18A     -0.769348
      19A     -0.699224    20A     -0.686850    21A     -0.675431
      22A     -0.652345    23A     -0.609823    24A     -0.601034
      25A     -0.573821    26A     -0.559773    27A     -0.557881
      28A     -0.525341    29A     -0.522169    30A     -0.508389
      31A     -0.484697    32A     -0.470308    33A     -0.466818
      34A     -0.463648    35A     -0.458908    36A     -0.438476

  @DF-RHF Final Energy:  -423.13097777121055

   => Energetics <=

    Nuclear Repulsion Energy =            452.8834387087986784
    One-Electron Energy =               -1473.7788744154659071
    Two-Electron Energy =                 597.7644579354571306
    DFT Exchange-Correlation Energy =       0.0000000000000000
    Empirical Dispersion Energy =           0.0000000000000000
    PCM Polarization Energy =               0.0000000000000000
    EFP Energy =                            0.0000000000000000
    Total Energy =                       -423.1309777712101550
    Molecular point group: c1
  Basis Set: CC-PVTZ
  Basis Set:

  -Total Gradient:
     Atom            X                  Y                   Z
    ------   -----------------  -----------------  -----------------
       1       -0.000004435659     0.000005972696     0.000010221384
       2        0.000005123684    -0.000006681347    -0.000038982286
       3        0.000002078730    -0.000008137906    -0.000006460555
       4       -0.000014130615     0.000000070254     0.000012585479
       5        0.000670309857    -0.001174713285    -0.000698478587
       6        0.000004882438     0.000000448221    -0.000000162836
       7       -0.000011538789     0.000010067822    -0.000004881508
       8       -0.000709204599     0.001231550090    -0.000568414544
       9       -0.000449148035     0.000780062754     0.000717241742
      10        0.000004953508     0.000001148351     0.000004067383
      11       -0.000004655102     0.000015907339    -0.000050011817
      12        0.000479994806    -0.000838944698     0.000609187080
      13        0.000000737999     0.000000739166     0.000004176458
      14        0.000004236756    -0.000011596527     0.000015782633
      15       -0.000001925942    -0.000001385579     0.000004641134
      16        0.000006123064    -0.000017591869    -0.000015018405
      17        0.000004105594     0.000012467199     0.000007986519
      18        0.000003367555     0.000000573188     0.000006628315
      19       -0.000000052578    -0.000002182336    -0.000009594348
      20        0.000016087493     0.000008371706    -0.000000547978
      21       -0.000001930962    -0.000003332565     0.000004198955
      22       -0.000002638205    -0.000000043874     0.000000438532
      23       -0.000002340994    -0.000002768799    -0.000004602752

  **** Optimization is complete! (in 5 steps) ****
    Final optimized geometry and variables:
    Molecular point group: c1

    Geometry (in Angstrom), charge = 0, multiplicity = 1:

    O            1.849281741218     1.290991726746     0.064577500462
    C            1.703502601789     0.121581308831    -0.046161378371
    C            0.379401896202    -0.598204070399    -0.061110462321
    O            2.712024699178    -0.725114500659    -0.174520769464
    C           -0.821894922786     0.324436206545     0.081821850160
    H            0.332635137868    -1.164401083267    -0.985496380470
    H            0.405665096674    -1.334930457629     0.735216648373
    C           -2.144729023391    -0.436514796602     0.084913313312
    H           -0.816533640745     1.054428757907    -0.719794499598
    H           -0.726768135504     0.894401540999     0.999237222994
    C           -3.365058036660     0.478550804700     0.105067668558
    H           -2.194019124166    -1.087798171337    -0.785029230469
    H           -2.177705637062    -1.094684138315     0.950563344391
    C           -4.685285433377    -0.283942367867     0.134862383720
    H           -3.341652597164     1.125400617484    -0.767309460415
    H           -3.306954957047     1.133109713147     0.970180558130
    H           -4.787897602103    -0.923329885400    -0.735709357225
    H           -5.530156154723     0.394865436990     0.147318923794
    H           -4.754267315606    -0.913611422245     1.015715852860
    C            4.017461290982    -0.183829576925    -0.177001302613
    H            4.142522512348     0.506472975977    -0.998016166418
    H            4.686699983066    -1.021258511830    -0.289730991673
    H            4.218322448084     0.331676503883     0.750431559805

  Mulliken Charges: (a.u.)
   Center  Symbol    Alpha    Beta     Spin     Total
       1     O     4.19699  4.19699  0.00000 -0.39398
       2     C     2.80690  2.80690  0.00000  0.38621
       3     C     3.10107  3.10107  0.00000 -0.20214
       4     O     4.14647  4.14647  0.00000 -0.29295
       5     C     3.08348  3.08348  0.00000 -0.16697
       6     H     0.44010  0.44010  0.00000  0.11980
       7     H     0.44006  0.44006  0.00000  0.11989
       8     C     3.08934  3.08934  0.00000 -0.17868
       9     H     0.44679  0.44679  0.00000  0.10642
      10     H     0.44611  0.44611  0.00000  0.10778
      11     C     3.08395  3.08395  0.00000 -0.16789
      12     H     0.45628  0.45628  0.00000  0.08744
      13     H     0.45548  0.45548  0.00000  0.08904
      14     C     3.15038  3.15038  0.00000 -0.30076
      15     H     0.45332  0.45332  0.00000  0.09337
      16     H     0.45315  0.45315  0.00000  0.09371
      17     H     0.45533  0.45533  0.00000  0.08934
      18     H     0.44774  0.44774  0.00000  0.10452
      19     H     0.45524  0.45524  0.00000  0.08952
      20     C     3.03780  3.03780  0.00000 -0.07560
      21     H     0.45435  0.45435  0.00000  0.09129
      22     H     0.44534  0.44534  0.00000  0.10933
      23     H     0.45434  0.45434  0.00000  0.09132

   Total alpha = 36.00000, Total beta = 36.00000, Total charge =  0.00000

*** Psi4 exiting successfully. Buy a developer a beer!
