  ==> Input File <==

--------------------------------------------------------------------------
set {
	reference rhf
	basis cc-pvtz
}

set_num_threads( 4 )
memory 2 gb

molecule MOL {
0 1

H	 0.949598	 -2.555056	 -2.121460
O	 0.872356	 -2.144601	 -1.273347
C	 -0.128764	 -1.270326	 -1.318327
C	 -0.318151	 -0.570512	 0.000144
O	 -0.767842	 -1.095166	 -2.297544
C	 -1.454884	 0.441630	 -0.000560
H	 -0.475032	 -1.338672	 0.750617
H	 0.627357	 -0.100901	 0.251894
C	 -2.822577	 -0.232186	 0.000063
H	 -1.359760	 1.084704	 -0.867077
H	 -1.359641	 1.085996	 0.864983
H	 -2.954352	 -0.858985	 -0.875745
H	 -3.615886	 0.505352	 0.000019
H	 -2.953878	 -0.858359	 0.876394

	symmetry c1
}
set optking {
	frozen_dihedral = ("
		7 4 6 10
	")
}

ee = optimize('scf')
oeprop('DIPOLE', 'QUADRUPOLE', 'MULLIKEN_CHARGES')
f=open( 'psi4out.xyz', 'w' )
f.write( "14  " )
f.write( str(ee) + "\n" )
f.write( MOL.save_string_xyz() )
f.close()
--------------------------------------------------------------------------

    Molecular point group: c1
  Charge       = 0
  Multiplicity = 1
  Basis Set: CC-PVTZ
  Basis Set:
  @DF-RHF Final Energy:  -305.99986337395808
    Total Energy =                       -305.9998633739580214
    Molecular point group: c1
  Basis Set: CC-PVTZ
  Basis Set:
  Basis Set: CC-PVTZ
  Basis Set:
  @DF-RHF Final Energy:  -306.00014714217048
    Total Energy =                       -306.0001471421704764
  Basis Set: CC-PVTZ
  Basis Set:
  Basis Set: CC-PVTZ
  Basis Set:
  @DF-RHF Final Energy:  -305.99876009147727
    Total Energy =                       -305.9987600914771519
  Basis Set: CC-PVTZ
  Basis Set:
  Basis Set: CC-PVTZ
  Basis Set:
  @DF-RHF Final Energy:  -306.00028098717974
    Total Energy =                       -306.0002809871798490
  Basis Set: CC-PVTZ
  Basis Set:
  Basis Set: CC-PVTZ
  Basis Set:
  @DF-RHF Final Energy:  -306.00031024093806
    Total Energy =                       -306.0003102409382336
  Basis Set: CC-PVTZ
  Basis Set:
  Basis Set: CC-PVTZ
  Basis Set:
  @DF-RHF Final Energy:  -306.00032389813009
    Total Energy =                       -306.0003238981303184
  Basis Set: CC-PVTZ
  Basis Set:
  Charge       = 0
  Multiplicity = 1
  Basis Set: CC-PVTZ
  Basis Set:

    Orbital Energies (a.u.)
    -----------------------

    Doubly Occupied:

       1A    -20.605164     2A    -20.541559     3A    -11.374757
       4A    -11.240049     5A    -11.224145     6A    -11.209286
       7A     -1.478840     8A     -1.370200     9A     -1.082834
      10A     -0.977483    11A     -0.862582    12A     -0.789081
      13A     -0.706153    14A     -0.695254    15A     -0.662620
      16A     -0.614032    17A     -0.597618    18A     -0.567718
      19A     -0.558837    20A     -0.497110    21A     -0.491255
      22A     -0.486588    23A     -0.481559    24A     -0.446576

  @DF-RHF Final Energy:  -306.00032427984814

   => Energetics <=

    Nuclear Repulsion Energy =            244.7363081934179831
    One-Electron Energy =                -902.3506654113913328
    Two-Electron Energy =                 351.6140329381252059
    DFT Exchange-Correlation Energy =       0.0000000000000000
    Empirical Dispersion Energy =           0.0000000000000000
    PCM Polarization Energy =               0.0000000000000000
    EFP Energy =                            0.0000000000000000
    Total Energy =                       -306.0003242798480869
    Molecular point group: c1
  Basis Set: CC-PVTZ
  Basis Set:

  -Total Gradient:
     Atom            X                  Y                   Z
    ------   -----------------  -----------------  -----------------
       1       -0.000007540881     0.000013346028     0.000014789540
       2        0.000035561804    -0.000027358837     0.000012475490
       3       -0.000029603235     0.000006837144    -0.000028436843
       4        0.000381508582     0.000504847470     0.000565721227
       5        0.000002914858     0.000006262685     0.000009915535
       6        0.000489208979     0.000519352656     0.000431093261
       7       -0.000411555026    -0.000483700893    -0.000569946367
       8        0.000009690346    -0.000003797783     0.000012828145
       9       -0.000019198739     0.000018435846     0.000010712344
      10       -0.000469314273    -0.000543781025    -0.000446645387
      11        0.000003234842     0.000008972207     0.000001099429
      12        0.000003418221    -0.000015182920    -0.000006614817
      13        0.000013698060    -0.000003838242    -0.000005219690
      14       -0.000002023537    -0.000000394337    -0.000001771873

  **** Optimization is complete! (in 7 steps) ****
    Final optimized geometry and variables:
    Molecular point group: c1

    Geometry (in Angstrom), charge = 0, multiplicity = 1:

    H            1.654469077582    -1.774021707397    -1.245535218523
    O            1.538151562439    -1.389591435823    -0.389660963126
    C            0.643214940298    -0.411035570815    -0.486326577669
    C            0.429240971039     0.280517640960     0.835087354382
    O            0.119542037711    -0.137659185780    -1.510867316465
    C           -0.732635629714     1.267842272497     0.841738454959
    H            0.302841607652    -0.488616454065     1.588610678199
    H            1.365470952775     0.778435050530     1.066658737812
    C           -2.102185405315     0.595241050749     0.863444112997
    H           -0.658923642346     1.906522990351    -0.029182703312
    H           -0.630637246870     1.903479225075     1.714487002456
    H           -2.247285657786    -0.026679836777    -0.010710992902
    H           -2.892385185544     1.336428597727     0.876788140470
    H           -2.218170692519    -0.026331524543     1.745695801332

  Mulliken Charges: (a.u.)
   Center  Symbol    Alpha    Beta     Spin     Total
       1     H     0.38211  0.38211  0.00000  0.23579
       2     O     4.15968  4.15968  0.00000 -0.31937
       3     C     2.80485  2.80485  0.00000  0.39031
       4     C     3.11137  3.11137  0.00000 -0.22275
       5     O     4.19277  4.19277  0.00000 -0.38553
       6     C     3.08472  3.08472  0.00000 -0.16944
       7     H     0.43778  0.43778  0.00000  0.12443
       8     H     0.43247  0.43247  0.00000  0.13507
       9     C     3.15158  3.15158  0.00000 -0.30316
      10     H     0.44524  0.44524  0.00000  0.10952
      11     H     0.44702  0.44702  0.00000  0.10596
      12     H     0.44525  0.44525  0.00000  0.10949
      13     H     0.44752  0.44752  0.00000  0.10497
      14     H     0.45765  0.45765  0.00000  0.08470

   Total alpha = 24.00000, Total beta = 24.00000, Total charge = -0.00000
