                              Psi4 1.0.54 Driver

  ==> Input File <==

--------------------------------------------------------------------------
set {
	reference rhf
	basis cc-pvtz
}

set_num_threads( 4 )
memory 2 gb

molecule MOL {
0 1

O	 0.287748	 0.934324	 -0.774141
C	 0.029490	 0.077183	 0.000078
C	 -1.232113	 -0.748027	 0.000015
O	 0.834823	 -0.274393	 0.988544
C	 -2.501422	 0.088592	 -0.000052
H	 -1.188777	 -1.400384	 -0.865133
H	 -1.188857	 -1.400312	 0.865225
H	 -2.548170	 0.725504	 -0.873205
H	 -3.371613	 -0.556398	 -0.000040
H	 -2.548215	 0.725571	 0.873047
C	 2.059350	 0.421477	 1.106622
H	 2.657775	 0.293672	 0.216797
H	 2.563365	 -0.005113	 1.958570
H	 1.885015	 1.475304	 1.265682

	symmetry c1
}
set optking {
	frozen_dihedral = ("
		4 2 3 6
	")
}

ee,wfn = optimize('scf', return_wfn=True)
oeprop( wfn, 'DIPOLE', 'QUADRUPOLE', 'MULLIKEN_CHARGES')
f=open( 'psi4out.xyz', 'w' )
f.write( "14  " )
f.write( str(ee) + "\n" )
f.write( MOL.save_string_xyz() )
f.close()
--------------------------------------------------------------------------

    Molecular point group: c1
  Charge       = 0
  Multiplicity = 1
  Basis Set: CC-PVTZ
  Basis Set:
  @DF-RHF Final Energy:  -305.98557228116238
    Total Energy =                       -305.9855722811623764
    Molecular point group: c1
  Basis Set: CC-PVTZ
  Basis Set:
  Basis Set: CC-PVTZ
  Basis Set:
  @DF-RHF Final Energy:  -305.98554252877261
    Total Energy =                       -305.9855425287726121
  Basis Set: CC-PVTZ
  Basis Set:
  Basis Set: CC-PVTZ
  Basis Set:
  @DF-RHF Final Energy:  -305.98615442895482
    Total Energy =                       -305.9861544289550466
  Basis Set: CC-PVTZ
  Basis Set:
  Basis Set: CC-PVTZ
  Basis Set:
  @DF-RHF Final Energy:  -305.98554017553454
    Total Energy =                       -305.9855401755346520
  Basis Set: CC-PVTZ
  Basis Set:
  Basis Set: CC-PVTZ
  Basis Set:
  @DF-RHF Final Energy:  -305.98619742943049
    Total Energy =                       -305.9861974294306606
  Basis Set: CC-PVTZ
  Basis Set:
  Charge       = 0
  Multiplicity = 1
  Basis Set: CC-PVTZ
  Basis Set:

    Orbital Energies (a.u.)
    -----------------------

    Doubly Occupied:

       1A    -20.599678     2A    -20.532332     3A    -11.365081
       4A    -11.279307     5A    -11.236191     6A    -11.219842
       7A     -1.473738     8A     -1.365718     9A     -1.065483
      10A     -0.981129    11A     -0.880504    12A     -0.774009
      13A     -0.701446    14A     -0.684487    15A     -0.675792
      16A     -0.619580    17A     -0.603127    18A     -0.559390
      19A     -0.540179    20A     -0.519745    21A     -0.513058
      22A     -0.499504    23A     -0.460168    24A     -0.440289

  @DF-RHF Final Energy:  -305.98620284089446

   => Energetics <=

    Nuclear Repulsion Energy =            247.6968692265863297
    One-Electron Energy =                -908.1865852316770997
    Two-Electron Energy =                 354.5035131641963062
    DFT Exchange-Correlation Energy =       0.0000000000000000
    Empirical Dispersion Energy =           0.0000000000000000
    PCM Polarization Energy =               0.0000000000000000
    EFP Energy =                            0.0000000000000000
    Total Energy =                       -305.9862028408944070
    Molecular point group: c1
  Basis Set: CC-PVTZ
  Basis Set:

  -Total Gradient:
     Atom            X                  Y                   Z
    ------   -----------------  -----------------  -----------------
       1        0.000088735463     0.000110231526    -0.000045876050
       2        0.000292203883    -0.000582719663    -0.000544991835
       3        0.000362349656    -0.000487131080     0.000589867263
       4       -0.000356205930     0.000453832581     0.000404522259
       5        0.000069451007    -0.000004667292    -0.000007674733
       6       -0.000395674991     0.000558982088    -0.000342783337
       7        0.000012720661    -0.000033542888     0.000001791391
       8       -0.000026971783     0.000002048647     0.000002472906
       9        0.000001312002     0.000004650446     0.000001954757
      10       -0.000012845339    -0.000002587121    -0.000004975347
      11        0.000012833125    -0.000003133429    -0.000077950212
      12       -0.000004218601     0.000002853420     0.000010744462
      13       -0.000012635599    -0.000007089747     0.000010131347
      14       -0.000031053554    -0.000011727484     0.000002767132

  **** Optimization is complete! (in 6 steps) ****
    Final optimized geometry and variables:
    Molecular point group: c1

    Geometry (in Angstrom), charge = 0, multiplicity = 1:

    O            0.198351475938     0.939042159879    -0.911347440638
    C            0.076277360589    -0.003800375660    -0.204624406342
    C           -1.115770017986    -0.928898768929    -0.224296772713
    O            0.982861516577    -0.361778629634     0.686691043905
    C           -2.434271374921    -0.161991104749    -0.158696015021
    H           -1.061856431669    -1.475736313331    -1.159595725334
    H           -1.032984397249    -1.642345729417     0.582251366497
    H           -2.502475631920     0.551510523447    -0.967618438526
    H           -3.268479142370    -0.848352872108    -0.231639293602
    H           -2.526242623938     0.377754422735     0.776602791043
    C            2.154497203100     0.425620562736     0.769499617547
    H            2.684424848198     0.419443176517    -0.171290328513
    H            2.759249045502    -0.021936891678     1.541335716814
    H            1.909941080679     1.444570684842     1.029771100055

  Mulliken Charges: (a.u.)
   Center  Symbol    Alpha    Beta     Spin     Total
       1     O     4.20346  4.20346  0.00000 -0.40691
       2     C     2.80554  2.80554  0.00000  0.38891
       3     C     3.08643  3.08643  0.00000 -0.17286
       4     O     4.14356  4.14356  0.00000 -0.28712
       5     C     3.14437  3.14437  0.00000 -0.28874
       6     H     0.44608  0.44608  0.00000  0.10785
       7     H     0.43878  0.43878  0.00000  0.12243
       8     H     0.44156  0.44156  0.00000  0.11687
       9     H     0.44955  0.44955  0.00000  0.10091
      10     H     0.45349  0.45349  0.00000  0.09302
      11     C     3.03381  3.03381  0.00000 -0.06762
      12     H     0.45420  0.45420  0.00000  0.09160
      13     H     0.44521  0.44521  0.00000  0.10958
      14     H     0.45395  0.45395  0.00000  0.09209

   Total alpha = 24.00000, Total beta = 24.00000, Total charge = -0.00000

*** Psi4 exiting successfully. Buy a developer a beer!
