  ==> Input File <==

--------------------------------------------------------------------------
set {
	reference rhf
	basis cc-pvtz
}

set_num_threads( 4 )
memory 2 gb

molecule MOL {
0 1

H	 -0.000105	 1.988529	 0.748933
O	 -0.000098	 1.879786	 -0.188206
C	 -0.000014	 0.545691	 -0.532416
C	 -1.039338	 0.281613	 -1.623217
C	 -0.159618	 -0.322147	 0.717047
H	 0.965876	 0.312201	 -0.955737
F	 -0.754626	 1.006010	 -2.677279
F	 -1.064541	 -0.973859	 -1.993174
F	 -2.247820	 0.615615	 -1.223981
F	 0.830892	 -0.082154	 1.540546
F	 -0.150271	 -1.601342	 0.439043
F	 -1.280200	 -0.048455	 1.350108

	symmetry c1
}
set optking {
	frozen_dihedral = ("
		6 3 2 1
	")
}

ee = optimize('scf')
oeprop('DIPOLE', 'QUADRUPOLE', 'MULLIKEN_CHARGES')
f=open( 'psi4out.xyz', 'w' )
f.write( "12  " )
f.write( str(ee) + "\n" )
f.write( MOL.save_string_xyz() )
f.close()
--------------------------------------------------------------------------

    Molecular point group: c1
  Charge       = 0
  Multiplicity = 1
  Basis Set: CC-PVTZ
  Basis Set:
  @DF-RHF Final Energy:  -786.58416536575396
    Total Energy =                       -786.5841653657543020
    Molecular point group: c1
  Basis Set: CC-PVTZ
  Basis Set:
  Basis Set: CC-PVTZ
  Basis Set:
  @DF-RHF Final Energy:  -786.58531329651566
    Total Energy =                       -786.5853132965156647
  Basis Set: CC-PVTZ
  Basis Set:
  Basis Set: CC-PVTZ
  Basis Set:
  @DF-RHF Final Energy:  -786.58553038942239
    Total Energy =                       -786.5855303894223880
  Basis Set: CC-PVTZ
  Basis Set:
  Basis Set: CC-PVTZ
  Basis Set:
  @DF-RHF Final Energy:  -786.58558031237851
    Total Energy =                       -786.5855803123791929
  Basis Set: CC-PVTZ
  Basis Set:
  Basis Set: CC-PVTZ
  Basis Set:
  @DF-RHF Final Energy:  -786.58559071219611
    Total Energy =                       -786.5855907121963355
  Basis Set: CC-PVTZ
  Basis Set:
  Basis Set: CC-PVTZ
  Basis Set:
  @DF-RHF Final Energy:  -786.58559307667019
    Total Energy =                       -786.5855930766699657
  Basis Set: CC-PVTZ
  Basis Set:
  Charge       = 0
  Multiplicity = 1
  Basis Set: CC-PVTZ
  Basis Set:

    Orbital Energies (a.u.)
    -----------------------

    Doubly Occupied:

       1A    -26.364749     2A    -26.363412     3A    -26.362355
       4A    -26.351381     5A    -26.348671     6A    -26.347726
       7A    -20.607369     8A    -11.527354     9A    -11.514357
      10A    -11.351857    11A     -1.776942    12A     -1.762029
      13A     -1.672365    14A     -1.669718    15A     -1.657472
      16A     -1.655720    17A     -1.436817    18A     -1.105281
      19A     -1.003198    20A     -0.943951    21A     -0.876469
      22A     -0.869059    23A     -0.863565    24A     -0.849367
      25A     -0.838887    26A     -0.803618    27A     -0.754099
      28A     -0.740867    29A     -0.726350    30A     -0.724645
      31A     -0.710878    32A     -0.696207    33A     -0.692052
      34A     -0.676811    35A     -0.674894    36A     -0.671676
      37A     -0.659355    38A     -0.655697    39A     -0.621040
      40A     -0.550217    41A     -0.507241

  @DF-RHF Final Energy:  -786.58559358811931

   => Energetics <=

    Nuclear Repulsion Energy =            671.1159127264061226
    One-Electron Energy =               -2429.4315685941874108
    Two-Electron Energy =                 971.7300622796620928
    DFT Exchange-Correlation Energy =       0.0000000000000000
    Empirical Dispersion Energy =           0.0000000000000000
    PCM Polarization Energy =               0.0000000000000000
    EFP Energy =                            0.0000000000000000
    Total Energy =                       -786.5855935881191954
    Molecular point group: c1
  Basis Set: CC-PVTZ
  Basis Set:

  -Total Gradient:
     Atom            X                  Y                   Z
    ------   -----------------  -----------------  -----------------
       1       -0.000746913262    -0.000010842075     0.000018717335
       2        0.000879723996     0.000022914377    -0.000213828601
       3        0.000137523233    -0.000146306581     0.000714074377
       4       -0.000055055608     0.000021677361     0.000026705523
       5       -0.000078137366    -0.000015157349    -0.000006255049
       6       -0.000248229354     0.000145982096    -0.000562599117
       7        0.000014178891     0.000050306763    -0.000036842065
       8        0.000010340087    -0.000056093227     0.000002724356
       9        0.000017747746    -0.000001423883     0.000000506494
      10        0.000007193528     0.000006781385     0.000047465802
      11       -0.000004876126    -0.000001955032     0.000005362966
      12        0.000066504226    -0.000015883836     0.000003967992

  **** Optimization is complete! (in 7 steps) ****
    Final optimized geometry and variables:
    Molecular point group: c1

    Geometry (in Angstrom), charge = 0, multiplicity = 1:

    H            0.656253933906     1.926066892458     1.109361010650
    O            0.636110140546     1.766555549545     0.182621372624
    C            0.625728033833     0.419249875148    -0.123426888249
    C           -0.442052068580     0.197966976381    -1.194786221493
    C            0.440471588679    -0.447283349783     1.120509773540
    H            1.567945094875     0.118829544161    -0.566627125599
    F           -0.153714399562     0.927207133500    -2.244888697644
    F           -0.473907317734    -1.058710979831    -1.575790684546
    F           -1.639256277472     0.530470857669    -0.786628915935
    F            1.367649753880    -0.120814388470     2.000693110651
    F            0.572910636575    -1.718317441597     0.851149625658
    F           -0.721449476776    -0.262925943267     1.697799977473

  Mulliken Charges: (a.u.)
   Center  Symbol    Alpha    Beta     Spin     Total
       1     H     0.38224  0.38224  0.00000  0.23552
       2     O     4.18948  4.18948  0.00000 -0.37895
       3     C     2.99475  2.99475  0.00000  0.01049
       4     C     2.67948  2.67948  0.00000  0.64104
       5     C     2.68730  2.68730  0.00000  0.62540
       6     H     0.44057  0.44057  0.00000  0.11885
       7     F     4.60272  4.60272  0.00000 -0.20543
       8     F     4.60650  4.60650  0.00000 -0.21301
       9     F     4.60346  4.60346  0.00000 -0.20692
      10     F     4.61097  4.61097  0.00000 -0.22194
      11     F     4.59890  4.59890  0.00000 -0.19779
      12     F     4.60363  4.60363  0.00000 -0.20726

   Total alpha = 41.00000, Total beta = 41.00000, Total charge = -0.00000
