  ==> Input File <==

--------------------------------------------------------------------------
set {
	reference rhf
	basis 6-31G*
}

set_num_threads( 1 )
memory 2 gb

molecule MOL {
0 1

H	 -0.093839	 4.012800	 -2.200457
C	 0.879519	 4.308825	 -1.789892
C	 1.009425	 4.169418	 -0.294465
O	 1.736537	 4.704804	 -2.511330
C	 0.618937	 2.770527	 0.202405
H	 2.025303	 4.422745	 -0.014237
H	 0.345409	 4.907148	 0.154412
C	 1.575623	 1.669079	 -0.261130
H	 0.587189	 2.787545	 1.287756
H	 -0.393263	 2.539921	 -0.126272
C	 1.180775	 0.282413	 0.250794
H	 2.582497	 1.907379	 0.075417
H	 1.618445	 1.650957	 -1.348502
C	 2.148627	 -0.814315	 -0.201312
H	 1.129515	 0.309314	 1.336326
H	 0.177245	 0.041761	 -0.097631
C	 3.580890	 -0.659131	 0.322722
H	 2.166869	 -0.852443	 -1.289387
H	 1.762857	 -1.776509	 0.128956
C	 4.324889	 0.564933	 -0.213704
H	 4.142010	 -1.551473	 0.056605
H	 3.564836	 -0.624694	 1.410140
H	 4.342616	 0.565491	 -1.300421
H	 3.866655	 1.493402	 0.110242
H	 5.353900	 0.572371	 0.132816

	symmetry c1
}
set optking {
	frozen_dihedral = ("
		6 3 5 8,
		6 3 2 4,
		3 5 8 12,
		12 8 11 14,
		20 17 14 18
	")
}

ee = energy('scf')
oeprop('DIPOLE', 'QUADRUPOLE', 'MULLIKEN_CHARGES')
f=open( 'psi4out.xyz', 'w' )
f.write( "25  " )
f.write( str(ee) + "\n" )
f.write( MOL.save_string_xyz() )
f.close()
--------------------------------------------------------------------------

    Molecular point group: c1

    Geometry (in Angstrom), charge = 0, multiplicity = 1:

       Center              X                  Y                   Z               Mass
    ------------   -----------------  -----------------  -----------------  -----------------
           H         -2.006402422366     2.113649999986    -1.687805968801     1.007825032070
           C         -1.033044422366     2.409674999986    -1.277240968801    12.000000000000
           C         -0.903138422366     2.270267999986     0.218186031199    12.000000000000
           O         -0.176026422366     2.805653999986    -1.998678968801    15.994914619560
           C         -1.293626422366     0.871376999986     0.715056031199    12.000000000000
           H          0.112739577634     2.523594999986     0.498414031199     1.007825032070
           H         -1.567154422366     3.007997999986     0.667063031199     1.007825032070
           C         -0.336940422366    -0.230071000014     0.251521031199    12.000000000000
           H         -1.325374422366     0.888394999986     1.800407031199     1.007825032070
           H         -2.305826422366     0.640770999986     0.386379031199     1.007825032070
           C         -0.731788422366    -1.616737000014     0.763445031199    12.000000000000
           H          0.669933577634     0.008228999986     0.588068031199     1.007825032070
           H         -0.294118422366    -0.248193000014    -0.835850968801     1.007825032070
           C          0.236063577634    -2.713465000014     0.311339031199    12.000000000000
           H         -0.783048422366    -1.589836000014     1.848977031199     1.007825032070
           H         -1.735318422366    -1.857389000014     0.415020031199     1.007825032070
           C          1.668326577634    -2.558281000014     0.835373031199    12.000000000000
           H          0.254305577634    -2.751593000014    -0.776735968801     1.007825032070
           H         -0.149706422366    -3.675659000014     0.641607031199     1.007825032070
           C          2.412325577634    -1.334217000014     0.298947031199    12.000000000000
           H          2.229446577634    -3.450623000014     0.569256031199     1.007825032070
           H          1.652272577634    -2.523844000014     1.922791031199     1.007825032070
           H          2.430052577634    -1.333659000014    -0.787769968801     1.007825032070
           H          1.954091577634    -0.405748000014     0.622893031199     1.007825032070
           H          3.441336577634    -1.326779000014     0.645467031199     1.007825032070

  Charge       = 0
  Multiplicity = 1
  Basis Set: 6-31G*
  Basis Set:

    Orbital Energies (a.u.)
    -----------------------

    Doubly Occupied:

       1A    -20.561498     2A    -11.325639     3A    -11.234141
       4A    -11.232877     5A    -11.220062     6A    -11.218216
       7A    -11.217288     8A    -11.217072     9A    -11.206115
      10A     -1.401534    11A     -1.106405    12A     -1.068921
      13A     -1.007352    14A     -0.951471    15A     -0.877366
      16A     -0.817310    17A     -0.788108    18A     -0.781193
      19A     -0.671660    20A     -0.663470    21A     -0.634151
      22A     -0.622425    23A     -0.605534    24A     -0.594862
      25A     -0.567821    26A     -0.551421    27A     -0.545171
      28A     -0.522727    29A     -0.518584    30A     -0.498949
      31A     -0.487466    32A     -0.474639    33A     -0.465053
      34A     -0.446345    35A     -0.429599    36A     -0.408881

  @DF-RHF Final Energy:  -387.09761832316491

   => Energetics <=

    Nuclear Repulsion Energy =            456.8630468001552458
    One-Electron Energy =               -1430.0383252743581579
    Two-Electron Energy =                 586.0776601510385717
    DFT Exchange-Correlation Energy =       0.0000000000000000
    Empirical Dispersion Energy =           0.0000000000000000
    PCM Polarization Energy =               0.0000000000000000
    EFP Energy =                            0.0000000000000000
    Total Energy =                       -387.0976183231643972

  Mulliken Charges: (a.u.)
   Center  Symbol    Alpha    Beta     Spin     Total
       1     H     0.43257  0.43257  0.00000  0.13485
       2     C     2.83056  2.83056  0.00000  0.33888
       3     C     3.20790  3.20790  0.00000 -0.41580
       4     O     4.23820  4.23820  0.00000 -0.47641
       5     C     3.16358  3.16358  0.00000 -0.32716
       6     H     0.40084  0.40084  0.00000  0.19832
       7     H     0.40689  0.40689  0.00000  0.18622
       8     C     3.15347  3.15347  0.00000 -0.30694
       9     H     0.41410  0.41410  0.00000  0.17180
      10     H     0.42082  0.42082  0.00000  0.15836
      11     C     3.15252  3.15252  0.00000 -0.30504
      12     H     0.42339  0.42339  0.00000  0.15323
      13     H     0.41940  0.41940  0.00000  0.16121
      14     C     3.15578  3.15578  0.00000 -0.31156
      15     H     0.42334  0.42334  0.00000  0.15332
      16     H     0.42105  0.42105  0.00000  0.15791
      17     C     3.15385  3.15385  0.00000 -0.30771
      18     H     0.42264  0.42264  0.00000  0.15473
      19     H     0.41962  0.41962  0.00000  0.16077
      20     C     3.24267  3.24267  0.00000 -0.48533
      21     H     0.41853  0.41853  0.00000  0.16294
      22     H     0.42338  0.42338  0.00000  0.15323
      23     H     0.41874  0.41874  0.00000  0.16252
      24     H     0.41730  0.41730  0.00000  0.16541
      25     H     0.41886  0.41886  0.00000  0.16227

   Total alpha = 36.00000, Total beta = 36.00000, Total charge = -0.00000
