  ==> Input File <==

--------------------------------------------------------------------------
set {
	reference rhf
	basis cc-pvtz
}

set_num_threads( 4 )
memory 2 gb

molecule MOL {
0 1

H	 -0.000342	 -0.223902	 -3.352295
C	 -0.027146	 0.371068	 -2.446756
C	 0.024493	 -0.518541	 -1.216015
H	 -0.932586	 0.964979	 -2.449855
H	 0.819708	 1.049865	 -2.473332
N	 -0.042516	 0.263377	 -0.000000
H	 -0.822211	 -1.197105	 -1.225584
H	 0.921114	 -1.142847	 -1.255206
C	 0.024493	 -0.518541	 1.216015
H	 0.682568	 0.950412	 -0.000000
C	 -1.122521	 -1.511868	 1.296357
H	 0.967474	 -1.055412	 1.218073
H	 0.025106	 0.110259	 2.110349
H	 -1.112687	 -2.175250	 0.440560
H	 -1.051207	 -2.109016	 2.198043
H	 -2.080386	 -1.001177	 1.314288

	symmetry c1
}
set optking {
	frozen_dihedral = ("
		12 9 6 3
	")
}

ee = optimize('scf')
oeprop('DIPOLE', 'QUADRUPOLE', 'MULLIKEN_CHARGES')
f=open( 'psi4out.xyz', 'w' )
f.write( "16  " )
f.write( str(ee) + "\n" )
f.write( MOL.save_string_xyz() )
f.close()
--------------------------------------------------------------------------

    Molecular point group: c1
  Charge       = 0
  Multiplicity = 1
  Basis Set: CC-PVTZ
  Basis Set:
  @DF-RHF Final Energy:  -212.38867327765834
    Total Energy =                       -212.3886732776580857
    Molecular point group: c1
  Basis Set: CC-PVTZ
  Basis Set:
  Basis Set: CC-PVTZ
  Basis Set:
  @DF-RHF Final Energy:  -212.39103034584059
    Total Energy =                       -212.3910303458405338
  Basis Set: CC-PVTZ
  Basis Set:
  Basis Set: CC-PVTZ
  Basis Set:
  @DF-RHF Final Energy:  -212.39210083215627
    Total Energy =                       -212.3921008321563590
  Basis Set: CC-PVTZ
  Basis Set:
  Basis Set: CC-PVTZ
  Basis Set:
  @DF-RHF Final Energy:  -212.39218459959551
    Total Energy =                       -212.3921845995954527
  Basis Set: CC-PVTZ
  Basis Set:
  Basis Set: CC-PVTZ
  Basis Set:
  @DF-RHF Final Energy:  -212.39219146101181
    Total Energy =                       -212.3921914610119188
  Basis Set: CC-PVTZ
  Basis Set:
  Charge       = 0
  Multiplicity = 1
  Basis Set: CC-PVTZ
  Basis Set:

    Orbital Energies (a.u.)
    -----------------------

    Doubly Occupied:

       1A    -15.528250     2A    -11.239533     3A    -11.238179
       4A    -11.207252     5A    -11.204386     6A     -1.205212
       7A     -1.025743     8A     -0.968415     9A     -0.849762
      10A     -0.798139    11A     -0.662001    12A     -0.628116
      13A     -0.617905    14A     -0.587374    15A     -0.537886
      16A     -0.523363    17A     -0.512000    18A     -0.493231
      19A     -0.483741    20A     -0.468977    21A     -0.360172

  @DF-RHF Final Energy:  -212.39219183027328

   => Energetics <=

    Nuclear Repulsion Energy =            191.6922280547687194
    One-Electron Energy =                -665.8895675874232438
    Two-Electron Energy =                 261.8051477023812481
    DFT Exchange-Correlation Energy =       0.0000000000000000
    Empirical Dispersion Energy =           0.0000000000000000
    PCM Polarization Energy =               0.0000000000000000
    EFP Energy =                            0.0000000000000000
    Total Energy =                       -212.3921918302732479
    Molecular point group: c1
  Basis Set: CC-PVTZ
  Basis Set:

  -Total Gradient:
     Atom            X                  Y                   Z
    ------   -----------------  -----------------  -----------------
       1        0.000002978405     0.000002465169     0.000000305972
       2       -0.000018039858    -0.000000592294    -0.000015735688
       3       -0.001707671500    -0.000224640555     0.000017205190
       4        0.000002999731     0.000003758657    -0.000002481244
       5        0.000000214976     0.000000272832     0.000000597381
       6        0.002719606690     0.000803076845     0.000257850334
       7        0.000008805024     0.000008345105     0.000015281861
       8        0.000002488600    -0.000010581875    -0.000005702087
       9       -0.001922134256    -0.002354648207    -0.001310109623
      10        0.000004827462    -0.000017684218     0.000012209771
      11       -0.000003407778     0.000020942063    -0.000011930162
      12        0.000912630318     0.001779202671     0.001025645207
      13        0.000003163397    -0.000008948099     0.000018436528
      14        0.000000706253    -0.000003297464     0.000001213070
      15        0.000004951169     0.000004971107    -0.000004607542
      16       -0.000012118632    -0.000002641739     0.000001821030

  **** Optimization is complete! (in 6 steps) ****
    Final optimized geometry and variables:
    Molecular point group: c1

    Geometry (in Angstrom), charge = 0, multiplicity = 1:

    H            0.282911114570     0.268319167142    -3.148663255059
    C            0.248472126369     0.823681716183    -2.218736007265
    C            0.220901436393    -0.120740653116    -1.028245436101
    H           -0.632839297160     1.453157132443    -2.225647098203
    H            1.121748253506     1.467992648576    -2.186924491542
    N            0.135700120899     0.619195340910     0.213891164086
    H           -0.644092377299    -0.766499219578    -1.111286169905
    H            1.100235050147    -0.770700283271    -1.060304230634
    C            0.255483689756    -0.160748473263     1.431015182343
    H            0.820168603909     1.344460952633     0.218664608675
    C           -0.882775502207    -1.151123287164     1.626334244504
    H            1.212935659485    -0.685873363389     1.489510855908
    H            0.245173392148     0.540170530968     2.258359324172
    H           -0.862264757627    -1.947530966479     0.892885309476
    H           -0.810017313996    -1.609469585793     2.605970668277
    H           -1.839117793838    -0.646910470673     1.553471659356

  Mulliken Charges: (a.u.)
   Center  Symbol    Alpha    Beta     Spin     Total
       1     H     0.45334  0.45334  0.00000  0.09331
       2     C     3.14405  3.14405  0.00000 -0.28809
       3     C     3.02179  3.02179  0.00000 -0.04358
       4     H     0.44917  0.44917  0.00000  0.10167
       5     H     0.45931  0.45931  0.00000  0.08139
       6     N     3.63796  3.63796  0.00000 -0.27592
       7     H     0.45718  0.45718  0.00000  0.08563
       8     H     0.47451  0.47451  0.00000  0.05098
       9     C     3.03228  3.03228  0.00000 -0.06456
      10     H     0.44246  0.44246  0.00000  0.11507
      11     C     3.14860  3.14860  0.00000 -0.29720
      12     H     0.47028  0.47028  0.00000  0.05944
      13     H     0.45480  0.45480  0.00000  0.09040
      14     H     0.45485  0.45485  0.00000  0.09029
      15     H     0.44964  0.44964  0.00000  0.10071
      16     H     0.44977  0.44977  0.00000  0.10047

   Total alpha = 21.00000, Total beta = 21.00000, Total charge = -0.00000
