                              Psi4 1.0.54 Driver

  ==> Input File <==

--------------------------------------------------------------------------
set {
	reference rhf
	basis cc-pvtz
}

set_num_threads( 4 )
memory 2 gb

molecule MOL {
0 1

H	 1.322954	 -2.898327	 -1.474146
O	 1.380909	 -2.336739	 -0.715887
C	 0.589746	 -1.285209	 -0.910249
C	 0.626018	 -0.337582	 0.258241
O	 -0.047033	 -1.152271	 -1.897509
C	 -0.267326	 0.883135	 0.076490
H	 0.356655	 -0.913416	 1.135577
H	 1.662536	 -0.047789	 0.399961
C	 -1.726822	 0.642622	 0.463839
H	 -0.210803	 1.217591	 -0.953497
H	 0.129920	 1.693110	 0.675679
C	 -2.480891	 -0.340606	 -0.429852
H	 -2.243098	 1.597649	 0.438609
H	 -1.776542	 0.301208	 1.495542
C	 -3.955933	 -0.460128	 -0.060472
H	 -2.393755	 -0.020485	 -1.464726
H	 -2.024244	 -1.323637	 -0.374360
H	 -4.467673	 -1.160944	 -0.709827
H	 -4.458917	 0.497287	 -0.144505
H	 -4.076458	 -0.806900	 0.960497

	symmetry c1
}
set optking {
	frozen_dihedral = ("
		7 4 6 10
	")
}

ee,wfn = optimize('scf', return_wfn=True)
oeprop( wfn, 'DIPOLE', 'QUADRUPOLE', 'MULLIKEN_CHARGES')
f=open( 'psi4out.xyz', 'w' )
f.write( "20  " )
f.write( str(ee) + "\n" )
f.write( MOL.save_string_xyz() )
f.close()
--------------------------------------------------------------------------

    Molecular point group: c1
  Charge       = 0
  Multiplicity = 1
  Basis Set: CC-PVTZ
  Basis Set:
  @DF-RHF Final Energy:  -384.08967264978912
    Total Energy =                       -384.0896726497892359
    Molecular point group: c1
  Basis Set: CC-PVTZ
  Basis Set:
  Basis Set: CC-PVTZ
  Basis Set:
  @DF-RHF Final Energy:  -384.09116732290101
    Total Energy =                       -384.0911673229007874
  Basis Set: CC-PVTZ
  Basis Set:
  Basis Set: CC-PVTZ
  Basis Set:
  @DF-RHF Final Energy:  -384.09178076148788
    Total Energy =                       -384.0917807614881667
  Basis Set: CC-PVTZ
  Basis Set:
  Basis Set: CC-PVTZ
  Basis Set:
  @DF-RHF Final Energy:  -384.09216907949695
    Total Energy =                       -384.0921690794965571
  Basis Set: CC-PVTZ
  Basis Set:
  @DF-RHF Final Energy:  -384.09226051094072
    Total Energy =                       -384.0922605109408323
  @DF-RHF Final Energy:  -384.09230951744809
    Total Energy =                       -384.0923095174480295
  @DF-RHF Final Energy:  -384.09240953069281
    Total Energy =                       -384.0924095306927484
  @DF-RHF Final Energy:  -384.09255585762548
    Total Energy =                       -384.0925558576254844
  @DF-RHF Final Energy:  -384.09258868445602
    Total Energy =                       -384.0925886844557908
  @DF-RHF Final Energy:  -384.09268870390446
    Total Energy =                       -384.0926887039042867
  Basis Set: CC-PVTZ
  Basis Set:
  @DF-RHF Final Energy:  -384.09270790847540
    Total Energy =                       -384.0927079084759725
  Basis Set: CC-PVTZ
  Basis Set:
  Basis Set: CC-PVTZ
  Basis Set:
  @DF-RHF Final Energy:  -384.09271528803401
    Total Energy =                       -384.0927152880336735
  Basis Set: CC-PVTZ
  Basis Set:
  Basis Set: CC-PVTZ
  Basis Set:
  @DF-RHF Final Energy:  -384.09271632790166
    Total Energy =                       -384.0927163279018259
  Basis Set: CC-PVTZ
  Basis Set:
  Charge       = 0
  Multiplicity = 1
  Basis Set: CC-PVTZ
  Basis Set:

    Orbital Energies (a.u.)
    -----------------------

    Doubly Occupied:

       1A    -20.605299     2A    -20.539602     3A    -11.374003
       4A    -11.239129     5A    -11.221844     6A    -11.216198
       7A    -11.212540     8A    -11.206474     9A     -1.478330
      10A     -1.369092    11A     -1.094985    12A     -1.038819
      13A     -0.960329    14A     -0.872429    15A     -0.814819
      16A     -0.775066    17A     -0.705173    18A     -0.694402
      19A     -0.665358    20A     -0.630610    21A     -0.603224
      22A     -0.595440    23A     -0.576198    24A     -0.553457
      25A     -0.538701    26A     -0.515190    27A     -0.496159
      28A     -0.486946    29A     -0.465326    30A     -0.462275
      31A     -0.457623    32A     -0.443872

  @DF-RHF Final Energy:  -384.09271653135158

   => Energetics <=

    Nuclear Repulsion Energy =            390.2277127740316018
    One-Electron Energy =               -1296.8230349649998061
    Two-Electron Energy =                 522.5026056596165063
    DFT Exchange-Correlation Energy =       0.0000000000000000
    Empirical Dispersion Energy =           0.0000000000000000
    PCM Polarization Energy =               0.0000000000000000
    EFP Energy =                            0.0000000000000000
    Total Energy =                       -384.0927165313516980
    Molecular point group: c1
  Basis Set: CC-PVTZ
  Basis Set:

  -Total Gradient:
     Atom            X                  Y                   Z
    ------   -----------------  -----------------  -----------------
       1       -0.000010204784     0.000033539870     0.000019926691
       2       -0.000016031461     0.000049744906    -0.000000816553
       3        0.000036174965    -0.000102745994     0.000029386823
       4        0.000258433166     0.000181125023     0.000240340215
       5       -0.000016289060     0.000035645030    -0.000030833863
       6        0.000232984970     0.000189743381     0.000044892569
       7       -0.000220125412    -0.000182812708    -0.000203767552
       8       -0.000008591855    -0.000005309714    -0.000004460271
       9       -0.000000760454    -0.000013900932    -0.000014795823
      10       -0.000249668831    -0.000185527395    -0.000085334273
      11        0.000006280636    -0.000005975727    -0.000001051644
      12       -0.000004958889    -0.000006681077    -0.000000884463
      13       -0.000002897279    -0.000000764492     0.000002754913
      14        0.000010506090     0.000002682226     0.000003425695
      15       -0.000015024871     0.000011569972     0.000008054763
      16        0.000002690456    -0.000005212318    -0.000000838228
      17        0.000003524256     0.000008968645    -0.000002635125
      18       -0.000001482510     0.000001901125     0.000001762543
      19       -0.000002737328    -0.000005479010     0.000000908199
      20       -0.000001821806    -0.000000510813    -0.000006034617

  **** Optimization is complete! (in 14 steps) ****
    Final optimized geometry and variables:
    Molecular point group: c1

    Geometry (in Angstrom), charge = 0, multiplicity = 1:

    H            1.834757466521    -2.418373884776    -1.001460216171
    O            1.769527796551    -1.909381970319    -0.207313298937
    C            1.371024779412    -0.682236547511    -0.527821872481
    C            1.313940373942     0.222727683742     0.675956462259
    O            1.140866962668    -0.369499691272    -1.644933649718
    C            0.424012835991     1.456009510911     0.511249572608
    H            1.029847980286    -0.368529414198     1.537155617772
    H            2.344148653112     0.523445865546     0.843231895909
    C           -1.044407857784     1.245318643407     0.888358983472
    H            0.497528460336     1.807781284380    -0.509995231423
    H            0.821890673024     2.241712238208     1.143458924168
    C           -1.806474231691     0.227114984862     0.042863157780
    H           -1.548502475783     2.204787779555     0.814591606170
    H           -1.103595275315     0.954619929786     1.935213386824
    C           -3.282323100016     0.144832157584     0.419641291028
    H           -1.710660507716     0.484329089433    -1.006485854028
    H           -1.362225030294    -0.757508061222     0.155135004073
    H           -3.801051630327    -0.588167833679    -0.187221137683
    H           -3.775870467653     1.100468866411     0.277563766182
    H           -3.407389523734    -0.138729283181     1.459641734363

  Mulliken Charges: (a.u.)
   Center  Symbol    Alpha    Beta     Spin     Total
       1     H     0.38139  0.38139  0.00000  0.23722
       2     O     4.16230  4.16230  0.00000 -0.32459
       3     C     2.79866  2.79866  0.00000  0.40269
       4     C     3.11686  3.11686  0.00000 -0.23371
       5     O     4.19682  4.19682  0.00000 -0.39365
       6     C     3.10206  3.10206  0.00000 -0.20412
       7     H     0.43458  0.43458  0.00000  0.13084
       8     H     0.43070  0.43070  0.00000  0.13860
       9     C     3.09590  3.09590  0.00000 -0.19180
      10     H     0.43952  0.43952  0.00000  0.12096
      11     H     0.44181  0.44181  0.00000  0.11638
      12     C     3.08957  3.08957  0.00000 -0.17915
      13     H     0.44817  0.44817  0.00000  0.10367
      14     H     0.45434  0.45434  0.00000  0.09131
      15     C     3.15056  3.15056  0.00000 -0.30113
      16     H     0.44210  0.44210  0.00000  0.11579
      17     H     0.45620  0.45620  0.00000  0.08761
      18     H     0.44755  0.44755  0.00000  0.10489
      19     H     0.45445  0.45445  0.00000  0.09109
      20     H     0.45645  0.45645  0.00000  0.08709

   Total alpha = 32.00000, Total beta = 32.00000, Total charge = -0.00000

*** Psi4 exiting successfully. Buy a developer a beer!
