  ==> Input File <==

--------------------------------------------------------------------------
set {
	reference rhf
	basis 6-31G*
}

set_num_threads( 4 )
memory 2 gb

molecule MOL {
0 1

H	 -3.892951	 0.981613	 -0.358725
C	 -3.196921	 0.361773	 0.172313
C	 -2.076860	 -0.007332	 -0.404944
H	 -3.439953	 0.057760	 1.173024
O	 -1.180634	 -0.819263	 0.215062
H	 -1.811520	 0.292194	 -1.403480
C	 0.051604	 -1.018856	 -0.387932
C	 1.043764	 0.054862	 -0.001873
H	 -0.017620	 -1.041351	 -1.469781
H	 0.437898	 -1.966374	 -0.042284
F	 1.785893	 -0.373540	 1.008830
F	 1.858625	 0.352099	 -1.000613
F	 0.447745	 1.167126	 0.374983

	symmetry c1
}
set optking {
	frozen_dihedral = ("
		11 8 7 9
	")
}

ee = optimize('scf')
oeprop('DIPOLE', 'QUADRUPOLE', 'MULLIKEN_CHARGES')
f=open( 'psi4out.xyz', 'w' )
f.write( "13  " )
f.write( str(ee) + "\n" )
f.write( MOL.save_string_xyz() )
f.close()
--------------------------------------------------------------------------

    Molecular point group: c1
  Charge       = 0
  Multiplicity = 1
  Basis Set: 6-31G*
  Basis Set:
  @DF-RHF Final Energy:  -527.53044259411809
    Total Energy =                       -527.5304425941180853
    Molecular point group: c1
  Basis Set: 6-31G*
  Basis Set:
  Basis Set: 6-31G*
  Basis Set:
  @DF-RHF Final Energy:  -527.53123428391802
    Total Energy =                       -527.5312342839185931
  Basis Set: 6-31G*
  Basis Set:
  Basis Set: 6-31G*
  Basis Set:
  @DF-RHF Final Energy:  -527.53142901437127
    Total Energy =                       -527.5314290143711560
  Basis Set: 6-31G*
  Basis Set:
  Basis Set: 6-31G*
  Basis Set:
  @DF-RHF Final Energy:  -527.53144840772552
    Total Energy =                       -527.5314484077257475
  Basis Set: 6-31G*
  Basis Set:
  Basis Set: 6-31G*
  Basis Set:
  @DF-RHF Final Energy:  -527.53145438530191
    Total Energy =                       -527.5314543853014584
  Basis Set: 6-31G*
  Basis Set:
  Basis Set: 6-31G*
  Basis Set:
  @DF-RHF Final Energy:  -527.53145926019579
    Total Energy =                       -527.5314592601960157
  Basis Set: 6-31G*
  Basis Set:
  Basis Set: 6-31G*
  Basis Set:
  @DF-RHF Final Energy:  -527.53146241898889
    Total Energy =                       -527.5314624189888946
  Basis Set: 6-31G*
  Basis Set:
  Charge       = 0
  Multiplicity = 1
  Basis Set: 6-31G*
  Basis Set:

    Orbital Energies (a.u.)
    -----------------------

    Doubly Occupied:

       1A    -26.345780     2A    -26.341574     3A    -26.340777
       4A    -20.608581     5A    -11.504487     6A    -11.318628
       7A    -11.299803     8A    -11.216013     9A     -1.742105
      10A     -1.641366    11A     -1.636135    12A     -1.438681
      13A     -1.082179    14A     -1.015622    15A     -0.925838
      16A     -0.837001    17A     -0.830914    18A     -0.821288
      19A     -0.789424    20A     -0.726369    21A     -0.713941
      22A     -0.695518    23A     -0.674607    24A     -0.660196
      25A     -0.654659    26A     -0.642597    27A     -0.629510
      28A     -0.584404    29A     -0.561957    30A     -0.525812
      31A     -0.512349    32A     -0.351621

  @DF-RHF Final Energy:  -527.53146317708263

   => Energetics <=

    Nuclear Repulsion Energy =            412.2185228514380242
    One-Electron Energy =               -1548.1605023163824626
    Two-Electron Energy =                 608.4105162878615829
    DFT Exchange-Correlation Energy =       0.0000000000000000
    Empirical Dispersion Energy =           0.0000000000000000
    PCM Polarization Energy =               0.0000000000000000
    EFP Energy =                            0.0000000000000000
    Total Energy =                       -527.5314631770827418
    Molecular point group: c1
  Basis Set: 6-31G*
  Basis Set:

  -Total Gradient:
     Atom            X                  Y                   Z
    ------   -----------------  -----------------  -----------------
       1       -0.000005557224    -0.000017701997    -0.000010338412
       2        0.000006383429    -0.000000065197     0.000004183495
       3        0.000024417304     0.000037077469     0.000032528643
       4        0.000003089639    -0.000004580547    -0.000000759857
       5       -0.000032650579    -0.000011931922     0.000004557154
       6       -0.000003671637    -0.000017095858    -0.000019704262
       7       -0.003415183017     0.003657771854    -0.000895736658
       8       -0.002743061654     0.001615657380     0.003612413651
       9        0.003520788381    -0.003464284918    -0.000026597287
      10       -0.000018929086     0.000011473226     0.000009208388
      11        0.002712814142    -0.001825928756    -0.002602779931
      12       -0.000045044518    -0.000008834186    -0.000048600751
      13       -0.000003395162     0.000028443453    -0.000058374175

  **** Optimization is complete! (in 8 steps) ****
    Final optimized geometry and variables:
    Molecular point group: c1

    Geometry (in Angstrom), charge = 0, multiplicity = 1:

    H           -3.939942259475     0.972602430288    -0.347929911575
    C           -3.265647532728     0.314358906414     0.164577712957
    C           -2.088732041397     0.049606874154    -0.353716262094
    H           -3.575116028616    -0.110100699204     1.101174284026
    O           -1.207626938760    -0.788984466672     0.251731036075
    H           -1.758560043970     0.468920835999    -1.287799397835
    C            0.012500105421    -1.005428334334    -0.364272583140
    C            1.054654873919     0.052091714913    -0.010267564833
    H           -0.057628051987    -1.067821260783    -1.443763300441
    H            0.386877526948    -1.953803052776    -0.007620833652
    F            1.804014905595    -0.318622213673     1.013161710578
    F            1.877795193404     0.225120465627    -1.037687670039
    F            0.517329313130     1.219681491886     0.273978878080

  Mulliken Charges: (a.u.)
   Center  Symbol    Alpha    Beta     Spin     Total
       1     H     0.40703  0.40703  0.00000  0.18594
       2     C     3.23681  3.23681  0.00000 -0.47363
       3     C     2.89322  2.89322  0.00000  0.21355
       4     H     0.40209  0.40209  0.00000  0.19582
       5     O     4.29930  4.29930  0.00000 -0.59859
       6     H     0.40729  0.40729  0.00000  0.18542
       7     C     3.07971  3.07971  0.00000 -0.15941
       8     C     2.44779  2.44779  0.00000  1.10442
       9     H     0.40158  0.40158  0.00000  0.19685
      10     H     0.38640  0.38640  0.00000  0.22719
      11     F     4.67901  4.67901  0.00000 -0.35802
      12     F     4.68581  4.68581  0.00000 -0.37162
      13     F     4.67396  4.67396  0.00000 -0.34792

   Total alpha = 32.00000, Total beta = 32.00000, Total charge = -0.00000
