  ==> Input File <==

--------------------------------------------------------------------------
set {
	reference rhf
	basis 6-31G*
}

set_num_threads( 4 )
memory 2 gb

molecule MOL {
0 1

O	 -0.682937	 1.318834	 -0.186099
C	 -0.860635	 0.152188	 -0.042321
C	 -2.173363	 -0.477127	 0.338347
O	 0.083258	 -0.765189	 -0.202595
H	 -2.477673	 -1.180929	 -0.427595
H	 -2.923125	 0.290956	 0.455536
H	 -2.058825	 -1.029004	 1.264191
C	 -0.105693	 -2.044651	 0.397464
C	 -0.951672	 -2.950410	 -0.478075
H	 -0.548745	 -1.916930	 1.373442
H	 0.893229	 -2.440123	 0.512600
H	 -1.014166	 -3.938293	 -0.032082
H	 -1.956197	 -2.559529	 -0.580589
H	 -0.510150	 -3.048944	 -1.463856

	symmetry c1
}
set optking {
	frozen_dihedral = ("
		8 4 2 1
	")
}

ee = optimize('scf')
oeprop('DIPOLE', 'QUADRUPOLE', 'MULLIKEN_CHARGES')
f=open( 'psi4out.xyz', 'w' )
f.write( "14  " )
f.write( str(ee) + "\n" )
f.write( MOL.save_string_xyz() )
f.close()
--------------------------------------------------------------------------

    Molecular point group: c1
  Charge       = 0
  Multiplicity = 1
  Basis Set: 6-31G*
  Basis Set:
  @DF-RHF Final Energy:  -305.83320514938873
    Total Energy =                       -305.8332051493889594
    Molecular point group: c1
  Basis Set: 6-31G*
  Basis Set:
  Basis Set: 6-31G*
  Basis Set:
  @DF-RHF Final Energy:  -305.85244044894836
    Total Energy =                       -305.8524404489483004
  Basis Set: 6-31G*
  Basis Set:
  Basis Set: 6-31G*
  Basis Set:
  @DF-RHF Final Energy:  -305.85609439860082
    Total Energy =                       -305.8560943986007032
  Basis Set: 6-31G*
  Basis Set:
  Basis Set: 6-31G*
  Basis Set:
  @DF-RHF Final Energy:  -305.85635976881872
    Total Energy =                       -305.8563597688187201
  Basis Set: 6-31G*
  Basis Set:
  @DF-RHF Final Energy:  -305.85745716548968
    Total Energy =                       -305.8574571654899614
  @DF-RHF Final Energy:  -305.85769208946078
    Total Energy =                       -305.8576920894607838
  @DF-RHF Final Energy:  -305.85782004093363
    Total Energy =                       -305.8578200409335750
  @DF-RHF Final Energy:  -305.85798034889433
    Total Energy =                       -305.8579803488943298
  @DF-RHF Final Energy:  -305.85842945873867
    Total Energy =                       -305.8584294587387262
  @DF-RHF Final Energy:  -305.85846899692245
    Total Energy =                       -305.8584689969223405
  @DF-RHF Final Energy:  -305.85858309022194
    Total Energy =                       -305.8585830902219413
  @DF-RHF Final Energy:  -305.85859812934666
    Total Energy =                       -305.8585981293467739
  @DF-RHF Final Energy:  -305.85860557573415
    Total Energy =                       -305.8586055757340887
  @DF-RHF Final Energy:  -305.85861107113800
    Total Energy =                       -305.8586110711379433
  @DF-RHF Final Energy:  -305.85862983672882
    Total Energy =                       -305.8586298367287668
  Basis Set: 6-31G*
  Basis Set:
  @DF-RHF Final Energy:  -305.85863662083921
    Total Energy =                       -305.8586366208394338
  Basis Set: 6-31G*
  Basis Set:
  Basis Set: 6-31G*
  Basis Set:
  @DF-RHF Final Energy:  -305.85864012518113
    Total Energy =                       -305.8586401251811253
  Basis Set: 6-31G*
  Basis Set:
  Basis Set: 6-31G*
  Basis Set:
  @DF-RHF Final Energy:  -305.85864235981285
    Total Energy =                       -305.8586423598126203
  Basis Set: 6-31G*
  Basis Set:
  Charge       = 0
  Multiplicity = 1
  Basis Set: 6-31G*
  Basis Set:

    Orbital Energies (a.u.)
    -----------------------

    Doubly Occupied:

       1A    -20.598813     2A    -20.538640     3A    -11.377170
       4A    -11.301119     5A    -11.243219     6A    -11.231755
       7A     -1.461618     8A     -1.364134     9A     -1.051128
      10A     -1.017626    11A     -0.894154    12A     -0.780346
      13A     -0.700239    14A     -0.688289    15A     -0.655092
      16A     -0.620593    17A     -0.592005    18A     -0.585111
      19A     -0.559322    20A     -0.538679    21A     -0.531722
      22A     -0.496877    23A     -0.443043    24A     -0.433716

  @DF-RHF Final Energy:  -305.85864296412194

   => Energetics <=

    Nuclear Repulsion Energy =            246.5671133844367375
    One-Electron Energy =                -905.4426899431712172
    Two-Electron Energy =                 353.0169335946122828
    DFT Exchange-Correlation Energy =       0.0000000000000000
    Empirical Dispersion Energy =           0.0000000000000000
    PCM Polarization Energy =               0.0000000000000000
    EFP Energy =                            0.0000000000000000
    Total Energy =                       -305.8586429641221685
    Molecular point group: c1
  Basis Set: 6-31G*
  Basis Set:

  -Total Gradient:
     Atom            X                  Y                   Z
    ------   -----------------  -----------------  -----------------
       1        0.000940632862     0.000301885008     0.001906544798
       2       -0.000320394695     0.000088455312    -0.001455621589
       3       -0.000112808447    -0.000098104542    -0.000232914552
       4       -0.001859939989    -0.000998577784    -0.001796468804
       5       -0.000031025637    -0.000019656638     0.000009317837
       6        0.000013058742     0.000018594718     0.000008514509
       7        0.000009097307     0.000011183204    -0.000020538171
       8        0.001374015328     0.000677311018     0.001588947320
       9       -0.000018515184     0.000045177260    -0.000005923288
      10       -0.000011542131     0.000003563775    -0.000011006243
      11        0.000013383608    -0.000019458043     0.000014465077
      12        0.000017550637     0.000014664184     0.000010697435
      13       -0.000016304019    -0.000016980517    -0.000012312273
      14        0.000002791617    -0.000008056961    -0.000003702055

  **** Optimization is complete! (in 19 steps) ****
    Final optimized geometry and variables:
    Molecular point group: c1

    Geometry (in Angstrom), charge = 0, multiplicity = 1:

    O            0.214781101919     2.078525144107    -0.286454691178
    C           -0.129810426318     0.986757002675     0.014497814950
    C           -1.470523361013     0.717419551991     0.664129333425
    O            0.674799179327    -0.047054175384    -0.234764898598
    H           -1.959068897177    -0.155394247398     0.249005125897
    H           -2.088657537013     1.589262158768     0.512207035180
    H           -1.352458086511     0.565240046300     1.731831002938
    C            0.586106327820    -1.305266918406     0.411482525897
    C            0.146070902003    -2.374968719347    -0.570714776756
    H           -0.077925437781    -1.260021213398     1.263277100908
    H            1.580228618194    -1.515437311695     0.781512738224
    H            0.157508900025    -3.349356655969    -0.092456878731
    H           -0.857624157463    -2.185856243867    -0.936236672457
    H            0.816703382700    -2.400758037360    -1.421352386368

  Mulliken Charges: (a.u.)
   Center  Symbol    Alpha    Beta     Spin     Total
       1     O     4.26471  4.26471  0.00000 -0.52942
       2     C     2.61537  2.61537  0.00000  0.76925
       3     C     3.30964  3.30964  0.00000 -0.61929
       4     O     4.30351  4.30351  0.00000 -0.60703
       5     H     0.40564  0.40564  0.00000  0.18871
       6     H     0.38702  0.38702  0.00000  0.22596
       7     H     0.40028  0.40028  0.00000  0.19945
       8     C     3.00631  3.00631  0.00000 -0.01261
       9     C     3.24779  3.24779  0.00000 -0.49558
      10     H     0.41795  0.41795  0.00000  0.16410
      11     H     0.40403  0.40403  0.00000  0.19193
      12     H     0.41700  0.41700  0.00000  0.16601
      13     H     0.41610  0.41610  0.00000  0.16780
      14     H     0.40464  0.40464  0.00000  0.19072

   Total alpha = 24.00000, Total beta = 24.00000, Total charge = -0.00000
