                              Psi4 1.0.54 Driver

  ==> Input File <==

--------------------------------------------------------------------------
set {
	reference rhf
	basis cc-pvtz
}

set_num_threads( 4 )
memory 2 gb

molecule MOL {
0 1

H	 2.777711	 0.808408	 0.137153
N	 2.326826	 -0.066186	 0.000000
C	 0.934676	 -0.005420	 0.000000
H	 2.718145	 -0.556238	 -0.770546
C	 0.226436	 -0.001077	 -1.195129
C	 0.226436	 -0.001077	 1.195129
H	 0.759091	 -0.011439	 -2.128123
C	 -1.153391	 0.009141	 -1.189028
H	 0.759091	 -0.011439	 2.128123
C	 -1.153391	 0.009141	 1.189028
H	 -1.680905	 0.012964	 -2.124348
C	 -1.857876	 0.014675	 0.000000
H	 -1.680905	 0.012964	 2.124348
H	 -2.930222	 0.022904	 0.000000

	symmetry c1
}
set optking {
	frozen_dihedral = ("
		1 2 3 5
	")
}

ee,wfn = optimize('scf', return_wfn=True)
oeprop( wfn, 'DIPOLE', 'QUADRUPOLE', 'MULLIKEN_CHARGES')
f=open( 'psi4out.xyz', 'w' )
f.write( "14  " )
f.write( str(ee) + "\n" )
f.write( MOL.save_string_xyz() )
f.close()
--------------------------------------------------------------------------

    Molecular point group: c1
  Charge       = 0
  Multiplicity = 1
  Basis Set: CC-PVTZ
  Basis Set:
  @DF-RHF Final Energy:  -285.82775660489273
    Total Energy =                       -285.8277566048927270
    Molecular point group: c1
  Basis Set: CC-PVTZ
  Basis Set:
  Basis Set: CC-PVTZ
  Basis Set:
  @DF-RHF Final Energy:  -285.82925695158468
    Total Energy =                       -285.8292569515846822
  Basis Set: CC-PVTZ
  Basis Set:
  Basis Set: CC-PVTZ
  Basis Set:
  @DF-RHF Final Energy:  -285.82952296559813
    Total Energy =                       -285.8295229655977892
  Basis Set: CC-PVTZ
  Basis Set:
  Basis Set: CC-PVTZ
  Basis Set:
  @DF-RHF Final Energy:  -285.82955067365560
    Total Energy =                       -285.8295506736553193
  Basis Set: CC-PVTZ
  Basis Set:
  Charge       = 0
  Multiplicity = 1
  Basis Set: CC-PVTZ
  Basis Set:

    Orbital Energies (a.u.)
    -----------------------

    Doubly Occupied:

       1A    -15.548257     2A    -11.263898     3A    -11.228562
       4A    -11.227456     5A    -11.222020     6A    -11.219990
       7A    -11.218275     8A     -1.216557     9A     -1.132170
      10A     -1.015618    11A     -0.989945    12A     -0.831995
      13A     -0.811718    14A     -0.706527    15A     -0.673324
      16A     -0.650217    17A     -0.618885    18A     -0.594601
      19A     -0.585159    20A     -0.514338    21A     -0.505051
      22A     -0.492867    23A     -0.432032    24A     -0.336792
      25A     -0.314740

  @DF-RHF Final Energy:  -285.82955265591755

   => Energetics <=

    Nuclear Repulsion Energy =            273.2435430826589595
    One-Electron Energy =                -927.4442022709996536
    Two-Electron Energy =                 368.3711065324230276
    DFT Exchange-Correlation Energy =       0.0000000000000000
    Empirical Dispersion Energy =           0.0000000000000000
    PCM Polarization Energy =               0.0000000000000000
    EFP Energy =                            0.0000000000000000
    Total Energy =                       -285.8295526559177233
    Molecular point group: c1
  Basis Set: CC-PVTZ
  Basis Set:

  -Total Gradient:
     Atom            X                  Y                   Z
    ------   -----------------  -----------------  -----------------
       1        0.000104647089     0.000608419768    -0.003270492471
       2       -0.000100076970     0.000517410881     0.004020398338
       3       -0.000076742703    -0.003763208835    -0.000594374343
       4       -0.000053857292     0.000061757452     0.000094665792
       5       -0.000113661641     0.002632606038    -0.000131986091
       6        0.000235884321    -0.000038773687    -0.000100034775
       7        0.000004092744     0.000000555936     0.000010832067
       8        0.000188993750    -0.000088755015    -0.000094357726
       9       -0.000003537287     0.000008886563     0.000016269764
      10       -0.000170783414    -0.000019222476    -0.000135934220
      11       -0.000018571365     0.000016453762     0.000008378695
      12       -0.000012588210     0.000069355597     0.000203347912
      13        0.000019797154    -0.000003366628    -0.000002494865
      14       -0.000003596176    -0.000002119357    -0.000024218076

  **** Optimization is complete! (in 5 steps) ****
    Final optimized geometry and variables:
    Molecular point group: c1

    Geometry (in Angstrom), charge = 0, multiplicity = 1:

    H            2.733813625189     0.825577483458     0.207701594890
    N            2.346091008599    -0.078546202252     0.037212116917
    C            0.927748766575    -0.038404656374    -0.001768110958
    H            2.723686337079    -0.405394647976    -0.825497948600
    C            0.220645583078    -0.019395643406    -1.193397597785
    C            0.226833411607    -0.005259658906     1.193835799005
    H            0.752438578295    -0.031806102992    -2.126978327109
    C           -1.161613972461     0.010630400838    -1.189008755240
    H            0.772716782145    -0.032934940578     2.117152199442
    C           -1.152597789822     0.048466904418     1.194626454245
    H           -1.693840337190     0.015182236751    -2.121401247319
    C           -1.855856408498     0.051268056284     0.003792826661
    H           -1.680279383422     0.075214930614     2.129191207494
    H           -2.928259882533     0.082252159468     0.006579825017

  Mulliken Charges: (a.u.)
   Center  Symbol    Alpha    Beta     Spin     Total
       1     H     0.42088  0.42088  0.00000  0.15823
       2     N     3.69266  3.69266  0.00000 -0.38531
       3     C     2.89101  2.89101  0.00000  0.21797
       4     H     0.42503  0.42503  0.00000  0.14995
       5     C     3.11433  3.11433  0.00000 -0.22865
       6     C     3.10927  3.10927  0.00000 -0.21853
       7     H     0.43070  0.43070  0.00000  0.13861
       8     C     3.06888  3.06888  0.00000 -0.13776
       9     H     0.42118  0.42118  0.00000  0.15764
      10     C     3.06327  3.06327  0.00000 -0.12653
      11     H     0.42385  0.42385  0.00000  0.15229
      12     C     3.09123  3.09123  0.00000 -0.18246
      13     H     0.42359  0.42359  0.00000  0.15283
      14     H     0.42414  0.42414  0.00000  0.15173

   Total alpha = 25.00000, Total beta = 25.00000, Total charge = -0.00000

*** Psi4 exiting successfully. Buy a developer a beer!
