                              Psi4 1.0.54 Driver

  ==> Input File <==

--------------------------------------------------------------------------
set {
	reference rhf
	basis cc-pvtz
}

set_num_threads( 4 )
memory 2 gb

molecule MOL {
0 1

H	 3.730277	 0.024007	 0.653449
N	 3.091268	 -0.241216	 -0.065538
C	 1.860978	 0.530248	 0.016256
H	 2.908527	 -1.216448	 0.047935
C	 0.644130	 -0.381765	 -0.031064
H	 1.835721	 1.204666	 -0.833114
H	 1.808789	 1.151975	 0.911067
C	 -0.678115	 0.376691	 0.025731
H	 0.693998	 -0.977147	 -0.936845
H	 0.693309	 -1.082142	 0.800523
C	 -1.900706	 -0.535531	 -0.022488
H	 -0.725296	 1.079516	 -0.802982
H	 -0.715474	 0.974884	 0.933278
C	 -3.220513	 0.226854	 0.028039
H	 -1.865036	 -1.134397	 -0.928236
H	 -1.857948	 -1.236381	 0.806820
H	 -3.309098	 0.911849	 -0.808725
H	 -4.066838	 -0.449485	 -0.008086
H	 -3.301685	 0.809374	 0.939860

	symmetry c1
}
set optking {
	frozen_dihedral = ("
		1 2 3 6
	")
}

ee,wfn = optimize('scf', return_wfn=True)
oeprop( wfn, 'DIPOLE', 'QUADRUPOLE', 'MULLIKEN_CHARGES')
f=open( 'psi4out.xyz', 'w' )
f.write( "19  " )
f.write( str(ee) + "\n" )
f.write( MOL.save_string_xyz() )
f.close()
--------------------------------------------------------------------------

    Molecular point group: c1
  Charge       = 0
  Multiplicity = 1
  Basis Set: CC-PVTZ
  Basis Set:
  @DF-RHF Final Energy:  -251.44403838135932
    Total Energy =                       -251.4440383813594053
    Molecular point group: c1
  Basis Set: CC-PVTZ
  Basis Set:
  Basis Set: CC-PVTZ
  Basis Set:
  @DF-RHF Final Energy:  -251.44441128330112
    Total Energy =                       -251.4444112833011786
  Basis Set: CC-PVTZ
  Basis Set:
  Basis Set: CC-PVTZ
  Basis Set:
  @DF-RHF Final Energy:  -251.44449138576562
    Total Energy =                       -251.4444913857652182
  Basis Set: CC-PVTZ
  Basis Set:
  Basis Set: CC-PVTZ
  Basis Set:
  @DF-RHF Final Energy:  -251.44449372905555
    Total Energy =                       -251.4444937290554094
  Basis Set: CC-PVTZ
  Basis Set:
  Charge       = 0
  Multiplicity = 1
  Basis Set: CC-PVTZ
  Basis Set:

    Orbital Energies (a.u.)
    -----------------------

    Doubly Occupied:

       1A    -15.523568     2A    -11.237608     3A    -11.214465
       4A    -11.213831     5A    -11.213131     6A    -11.207247
       7A     -1.175504     8A     -1.076815     9A     -1.001495
      10A     -0.902238    11A     -0.818060    12A     -0.793663
      13A     -0.663802    14A     -0.645282    15A     -0.608470
      16A     -0.598963    17A     -0.566182    18A     -0.548557
      19A     -0.536504    20A     -0.497168    21A     -0.488288
      22A     -0.468117    23A     -0.465071    24A     -0.454275
      25A     -0.378999

  @DF-RHF Final Energy:  -251.44449430564970

   => Energetics <=

    Nuclear Repulsion Energy =            246.0898708312344638
    One-Electron Energy =                -826.4741241776640663
    Two-Electron Energy =                 328.9397590407798475
    DFT Exchange-Correlation Energy =       0.0000000000000000
    Empirical Dispersion Energy =           0.0000000000000000
    PCM Polarization Energy =               0.0000000000000000
    EFP Energy =                            0.0000000000000000
    Total Energy =                       -251.4444943056498118
    Molecular point group: c1
  Basis Set: CC-PVTZ
  Basis Set:

  -Total Gradient:
     Atom            X                  Y                   Z
    ------   -----------------  -----------------  -----------------
       1       -0.000525851864    -0.001040278578     0.000865882138
       2        0.000561859510     0.001062067973    -0.001311254858
       3        0.000574034213     0.000906177391     0.001162806489
       4        0.000001736498    -0.000019345782     0.000006892704
       5        0.000023951970     0.000005043987     0.000005811281
       6       -0.000593765849    -0.000929923452    -0.000719753478
       7       -0.000036480423     0.000001102675    -0.000013168484
       8        0.000009284359     0.000003693331     0.000008832387
       9        0.000009469369     0.000004121197     0.000006801906
      10        0.000007113730     0.000001541756    -0.000006849283
      11       -0.000008875245     0.000008345314    -0.000010220713
      12       -0.000005274792    -0.000002265759     0.000008961855
      13       -0.000003331373     0.000001853121     0.000000809828
      14       -0.000010820821    -0.000006788796    -0.000000759948
      15        0.000000880352    -0.000004988583    -0.000000283267
      16        0.000000001007     0.000009857905    -0.000004348988
      17        0.000000225039    -0.000002748419     0.000000951039
      18       -0.000005674936     0.000003158680     0.000000668295
      19        0.000001519262    -0.000000623962    -0.000001778902

  **** Optimization is complete! (in 5 steps) ****
    Final optimized geometry and variables:
    Molecular point group: c1

    Geometry (in Angstrom), charge = 0, multiplicity = 1:

    H            3.764342470179     0.036770713176     0.628847532079
    N            3.115802317978    -0.209099986159    -0.086138077704
    C            1.863162791266     0.532931056671     0.039847163023
    H            2.962205059549    -1.191557411468    -0.012730333217
    C            0.644297098208    -0.379126885151    -0.006616313165
    H            1.790884264389     1.245213850613    -0.776372405641
    H            1.842192348995     1.107452629743     0.961815982256
    C           -0.678248472000     0.380019684198     0.023563241158
    H            0.694776993537    -0.982035933106    -0.910322984501
    H            0.685851110396    -1.071215532334     0.831582648052
    C           -1.900769975271    -0.532366559821    -0.024248958635
    H           -0.715226654217     1.070866452399    -0.814924074086
    H           -0.723259279918     0.990236913230     0.922641051735
    C           -3.220165303284     0.231779981199     0.004336234506
    H           -1.857512362082    -1.142440453423    -0.922279265339
    H           -1.866472516686    -1.222567054132     0.814284399117
    H           -3.300344905507     0.905780279851    -0.842045635622
    H           -4.066655798143    -0.444376686322    -0.030560992589
    H           -3.308837415436     0.826064379524     0.907756583662

  Mulliken Charges: (a.u.)
   Center  Symbol    Alpha    Beta     Spin     Total
       1     H     0.42894  0.42894  0.00000  0.14212
       2     N     3.69347  3.69347  0.00000 -0.38695
       3     C     3.01683  3.01683  0.00000 -0.03366
       4     H     0.43026  0.43026  0.00000  0.13948
       5     C     3.08993  3.08993  0.00000 -0.17986
       6     H     0.46327  0.46327  0.00000  0.07345
       7     H     0.46441  0.46441  0.00000  0.07119
       8     C     3.09323  3.09323  0.00000 -0.18646
       9     H     0.45181  0.45181  0.00000  0.09637
      10     H     0.45786  0.45786  0.00000  0.08427
      11     C     3.08349  3.08349  0.00000 -0.16698
      12     H     0.45350  0.45350  0.00000  0.09300
      13     H     0.45545  0.45545  0.00000  0.08910
      14     C     3.15002  3.15002  0.00000 -0.30005
      15     H     0.45417  0.45417  0.00000  0.09167
      16     H     0.45488  0.45488  0.00000  0.09025
      17     H     0.45479  0.45479  0.00000  0.09043
      18     H     0.44839  0.44839  0.00000  0.10321
      19     H     0.45530  0.45530  0.00000  0.08941

   Total alpha = 25.00000, Total beta = 25.00000, Total charge =  0.00000

*** Psi4 exiting successfully. Buy a developer a beer!
