  ==> Input File <==

--------------------------------------------------------------------------
set {
	reference rhf
	basis cc-pvtz
}

set_num_threads( 4 )
memory 2 gb

molecule MOL {
0 1

H	 2.190573	 -0.629143	 -0.208718
O	 1.355408	 -0.529451	 0.208662
C	 0.700177	 0.619554	 -0.266242
C	 -0.713111	 0.588314	 0.266177
H	 0.678680	 0.627133	 -1.351786
H	 1.199747	 1.521489	 0.077736
O	 -1.421673	 -0.521378	 -0.196983
H	 -1.244794	 1.469161	 -0.069059
H	 -0.685100	 0.604721	 1.352683
H	 -1.324065	 -0.569871	 -1.131940

	symmetry c1
}
set optking {
	frozen_dihedral = ("
		10 7 4 3
	")
}

ee = optimize('scf')
oeprop('DIPOLE', 'QUADRUPOLE', 'MULLIKEN_CHARGES')
f=open( 'psi4out.xyz', 'w' )
f.write( "10  " )
f.write( str(ee) + "\n" )
f.write( MOL.save_string_xyz() )
f.close()
--------------------------------------------------------------------------

    Molecular point group: c1
  Charge       = 0
  Multiplicity = 1
  Basis Set: CC-PVTZ
  Basis Set:
  @DF-RHF Final Energy:  -229.02134182025455
    Total Energy =                       -229.0213418202544062
    Molecular point group: c1
  Basis Set: CC-PVTZ
  Basis Set:
  Basis Set: CC-PVTZ
  Basis Set:
  @DF-RHF Final Energy:  -229.02313464165343
    Total Energy =                       -229.0231346416534564
  Basis Set: CC-PVTZ
  Basis Set:
  Basis Set: CC-PVTZ
  Basis Set:
  @DF-RHF Final Energy:  -229.02337343214882
    Total Energy =                       -229.0233734321487873
  Basis Set: CC-PVTZ
  Basis Set:
  Basis Set: CC-PVTZ
  Basis Set:
  @DF-RHF Final Energy:  -229.02338526715678
    Total Energy =                       -229.0233852671569252
  Basis Set: CC-PVTZ
  Basis Set:
  Basis Set: CC-PVTZ
  Basis Set:
  @DF-RHF Final Energy:  -229.02338713030767
    Total Energy =                       -229.0233871303077535
  Basis Set: CC-PVTZ
  Basis Set:
  Charge       = 0
  Multiplicity = 1
  Basis Set: CC-PVTZ
  Basis Set:

    Orbital Energies (a.u.)
    -----------------------

    Doubly Occupied:

       1A    -20.553089     2A    -20.545663     3A    -11.276139
       4A    -11.268481     5A     -1.380061     6A     -1.358165
       7A     -1.004541     8A     -0.848358     9A     -0.722879
      10A     -0.677446    11A     -0.660102    12A     -0.601310
      13A     -0.573896    14A     -0.548383    15A     -0.477294
      16A     -0.450547    17A     -0.441523

  @DF-RHF Final Energy:  -229.02338730758817

   => Energetics <=

    Nuclear Repulsion Energy =            133.5359342227127968
    One-Electron Energy =                -578.3428823375940055
    Two-Electron Energy =                 215.7835608072930142
    DFT Exchange-Correlation Energy =       0.0000000000000000
    Empirical Dispersion Energy =           0.0000000000000000
    PCM Polarization Energy =               0.0000000000000000
    EFP Energy =                            0.0000000000000000
    Total Energy =                       -229.0233873075881945
    Molecular point group: c1
  Basis Set: CC-PVTZ
  Basis Set:

  -Total Gradient:
     Atom            X                  Y                   Z
    ------   -----------------  -----------------  -----------------
       1       -0.000002707921    -0.000013043453     0.000006633299
       2        0.000001575909     0.000022255655    -0.000019284431
       3       -0.000045013399     0.000087749185    -0.000179805893
       4        0.000167996181    -0.000268844665     0.000321290804
       5       -0.000000024000     0.000014086302    -0.000020061228
       6       -0.000010081053     0.000014878787    -0.000010224715
       7       -0.000425769310     0.000400692111    -0.000147129796
       8       -0.000011395736    -0.000003243845     0.000004605387
       9       -0.000003475855     0.000007370309     0.000007426993
      10        0.000328895183    -0.000261900384     0.000036549581

  **** Optimization is complete! (in 6 steps) ****
    Final optimized geometry and variables:
    Molecular point group: c1

    Geometry (in Angstrom), charge = 0, multiplicity = 1:

    H            2.279013661678    -0.553721881236    -0.105001631399
    O            1.402215867102    -0.539745577552     0.231423594609
    C            0.715597674308     0.575822254739    -0.253992531503
    C           -0.701875602381     0.570523290234     0.272881772788
    H            0.698378470518     0.576686487589    -1.344291404663
    H            1.193472029144     1.499890330453     0.064852878992
    O           -1.470204138797    -0.506589807928    -0.173918288645
    H           -1.167427456088     1.516823786014     0.003228286150
    H           -0.680726214672     0.504992384345     1.351883543825
    H           -1.407073640528    -0.587909249041    -1.108233569074

  Mulliken Charges: (a.u.)
   Center  Symbol    Alpha    Beta     Spin     Total
       1     H     0.39575  0.39575  0.00000  0.20850
       2     O     4.19080  4.19080  0.00000 -0.38160
       3     C     2.96874  2.96874  0.00000  0.06252
       4     C     2.96117  2.96117  0.00000  0.07766
       5     H     0.48251  0.48251  0.00000  0.03499
       6     H     0.47416  0.47416  0.00000  0.05168
       7     O     4.19735  4.19735  0.00000 -0.39471
       8     H     0.47589  0.47589  0.00000  0.04822
       9     H     0.45741  0.45741  0.00000  0.08518
      10     H     0.39622  0.39622  0.00000  0.20756

   Total alpha = 17.00000, Total beta = 17.00000, Total charge =  0.00000
