  ==> Input File <==

--------------------------------------------------------------------------
set {
	reference rhf
	basis 6-31G*
}

set_num_threads( 4 )
memory 2 gb

molecule MOL {
0 1

O	 2.387214	 2.093885	 -0.180891
C	 1.338913	 2.497159	 -0.582379
C	 0.083531	 1.643505	 -0.567221
C	 1.193155	 3.899139	 -1.137683
C	 0.291004	 0.242674	 0.000989
H	 -0.677166	 2.179701	 -0.001338
H	 -0.297486	 1.593038	 -1.586377
C	 -0.994322	 -0.586602	 0.000262
H	 0.678304	 0.322568	 1.011803
H	 1.058228	 -0.264888	 -0.575115
C	 -2.259874	 0.272531	 0.000494
H	 -1.004862	 -1.240012	 -0.870939
H	 -1.005220	 -1.241071	 0.870675
C	 -3.549786	 -0.549746	 -0.000374
H	 -2.250389	 0.926680	 -0.869574
H	 -2.250838	 0.925513	 0.871430
C	 -4.809590	 0.315458	 -0.000369
H	 -3.560515	 -1.202009	 -0.871156
H	 -3.561123	 -1.202955	 0.869711
H	 -4.844746	 0.956611	 -0.876632
H	 -5.706986	 -0.295590	 -0.001609
H	 -4.845960	 0.954827	 0.877144
H	 0.457397	 4.458238	 -0.566993
H	 2.145657	 4.408884	 -1.096026
H	 0.845084	 3.864854	 -2.165936

	symmetry c1
}
set optking {
	frozen_dihedral = ("
		9 5 8 12
	")
}

ee = optimize('scf')
oeprop('DIPOLE', 'QUADRUPOLE', 'MULLIKEN_CHARGES')
f=open( 'psi4out.xyz', 'w' )
f.write( "25  " )
f.write( str(ee) + "\n" )
f.write( MOL.save_string_xyz() )
f.close()
--------------------------------------------------------------------------

    Molecular point group: c1
  Charge       = 0
  Multiplicity = 1
  Basis Set: 6-31G*
  Basis Set:
  @DF-RHF Final Energy:  -387.12561346626842
    Total Energy =                       -387.1256134662683053
    Molecular point group: c1
  Basis Set: 6-31G*
  Basis Set:
  Basis Set: 6-31G*
  Basis Set:
  @DF-RHF Final Energy:  -387.12667240590821
    Total Energy =                       -387.1266724059084936
  Basis Set: 6-31G*
  Basis Set:
  Basis Set: 6-31G*
  Basis Set:
  @DF-RHF Final Energy:  -387.12954148416003
    Total Energy =                       -387.1295414841603133
  Basis Set: 6-31G*
  Basis Set:
  Basis Set: 6-31G*
  Basis Set:
  @DF-RHF Final Energy:  -387.12991592973873
    Total Energy =                       -387.1299159297384449
  Basis Set: 6-31G*
  Basis Set:
  Basis Set: 6-31G*
  Basis Set:
  @DF-RHF Final Energy:  -387.12994339566734
    Total Energy =                       -387.1299433956669418
  Basis Set: 6-31G*
  Basis Set:
  Basis Set: 6-31G*
  Basis Set:
  @DF-RHF Final Energy:  -387.12996422292940
    Total Energy =                       -387.1299642229300844
  Basis Set: 6-31G*
  Basis Set:
  Basis Set: 6-31G*
  Basis Set:
  @DF-RHF Final Energy:  -387.12997045825665
    Total Energy =                       -387.1299704582568211
  Basis Set: 6-31G*
  Basis Set:
  Charge       = 0
  Multiplicity = 1
  Basis Set: 6-31G*
  Basis Set:

    Orbital Energies (a.u.)
    -----------------------

    Doubly Occupied:

       1A    -20.550351     2A    -11.326199     3A    -11.231563
       4A    -11.228216     5A    -11.217956     6A    -11.217409
       7A    -11.216910     8A    -11.216391     9A    -11.211139
      10A     -1.395738    11A     -1.093301    12A     -1.055578
      13A     -1.013805    14A     -0.968005    15A     -0.900307
      16A     -0.817430    17A     -0.786614    18A     -0.728251
      19A     -0.658409    20A     -0.654026    21A     -0.633216
      22A     -0.621954    23A     -0.595704    24A     -0.583587
      25A     -0.567931    26A     -0.561606    27A     -0.543922
      28A     -0.528606    29A     -0.519797    30A     -0.494055
      31A     -0.489343    32A     -0.476381    33A     -0.460733
      34A     -0.453671    35A     -0.447268    36A     -0.400984

  @DF-RHF Final Energy:  -387.12997047718233

   => Energetics <=

    Nuclear Repulsion Energy =            445.5171234478637530
    One-Electron Energy =               -1407.5614799226291325
    Two-Electron Energy =                 574.9143859975828263
    DFT Exchange-Correlation Energy =       0.0000000000000000
    Empirical Dispersion Energy =           0.0000000000000000
    PCM Polarization Energy =               0.0000000000000000
    EFP Energy =                            0.0000000000000000
    Total Energy =                       -387.1299704771826100
    Molecular point group: c1
  Basis Set: 6-31G*
  Basis Set:

  -Total Gradient:
     Atom            X                  Y                   Z
    ------   -----------------  -----------------  -----------------
       1       -0.000079711917    -0.000044716948    -0.000156030140
       2        0.000040842906     0.000149257088     0.000248922619
       3        0.000006033749    -0.000281592517    -0.000280112868
       4        0.000043373826    -0.000006275911    -0.000102841993
       5       -0.003738715840     0.005335605605     0.001879903564
       6       -0.000089533736    -0.000056737951     0.000079828295
       7        0.000070828951     0.000095273569     0.000050053882
       8       -0.002472607563     0.004457676868    -0.004389664067
       9        0.003445952609    -0.005252652665    -0.000885612872
      10        0.000074493991     0.000100925828     0.000057629369
      11        0.000130181744    -0.000047342623     0.000363250784
      12        0.002832962338    -0.004517093989     0.003364373276
      13       -0.000113051791    -0.000080612791    -0.000090490245
      14       -0.000046247744     0.000049645412     0.000051333627
      15        0.000044962533    -0.000060595131    -0.000084256069
      16       -0.000071094095     0.000071927641    -0.000043104839
      17       -0.000081268142    -0.000031677283    -0.000031621923
      18       -0.000020444109     0.000010874722    -0.000021743596
      19        0.000073309615     0.000055494507    -0.000041111085
      20       -0.000016719571     0.000009685342    -0.000000982871
      21       -0.000033680219     0.000015587712    -0.000005133783
      22        0.000016519924    -0.000014190146     0.000002333299
      23       -0.000013421545     0.000079425423    -0.000009456937
      24        0.000000079344     0.000015145958    -0.000001930752
      25       -0.000003045254    -0.000053037721     0.000046465325

  **** Optimization is complete! (in 8 steps) ****
    Final optimized geometry and variables:
    Molecular point group: c1

    Geometry (in Angstrom), charge = 0, multiplicity = 1:

    O            3.164860821002     0.931364858216     0.158798438488
    C            2.174062770030     1.408321981245    -0.303096994521
    C            0.850432442319     0.663751867348    -0.334080935261
    C            2.173512607832     2.802157030678    -0.897505833033
    C            0.924177364930    -0.732771450208     0.275587736354
    H            0.114739616458     1.283125282353     0.173573922350
    H            0.523786904823     0.617259649588    -1.371946046285
    C           -0.367241414661    -1.574848568988     0.192330309429
    H            1.267418313232    -0.677517709843     1.302935095238
    H            1.714827056929    -1.275350820885    -0.232294412496
    C           -1.695301838960    -0.818519547918     0.262961583191
    H           -0.334999493418    -2.202998437155    -0.695164724243
    H           -0.342197487305    -2.283838242176     1.017475407173
    C           -2.905388603349    -1.754572737221     0.294310028720
    H           -1.792659711885    -0.148635543195    -0.588340363035
    H           -1.709978762116    -0.188991956820     1.151624600624
    C           -4.237727949250    -1.008322124143     0.356566773629
    H           -2.889552352399    -2.391314571112    -0.587732238426
    H           -2.823505448705    -2.419111430046     1.151391794015
    H           -4.365971407679    -0.360733415253    -0.506353818809
    H           -5.075022932628    -1.698968036740     0.378037584082
    H           -4.298399132981    -0.387872530213     1.246328954470
    H            1.463627825305     3.437499759080    -0.375835205168
    H            3.163315261634     3.230640215482    -0.823229782253
    H            1.870337902588     2.768463620235    -1.939837686112

  Mulliken Charges: (a.u.)
   Center  Symbol    Alpha    Beta     Spin     Total
       1     O     4.26097  4.26097  0.00000 -0.52194
       2     C     2.73580  2.73580  0.00000  0.52839
       3     C     3.21315  3.21315  0.00000 -0.42631
       4     C     3.28637  3.28637  0.00000 -0.57275
       5     C     3.15209  3.15209  0.00000 -0.30418
       6     H     0.40766  0.40766  0.00000  0.18468
       7     H     0.40983  0.40983  0.00000  0.18034
       8     C     3.15713  3.15713  0.00000 -0.31426
       9     H     0.41111  0.41111  0.00000  0.17777
      10     H     0.40989  0.40989  0.00000  0.18022
      11     C     3.15477  3.15477  0.00000 -0.30954
      12     H     0.42142  0.42142  0.00000  0.15716
      13     H     0.41957  0.41957  0.00000  0.16085
      14     C     3.15118  3.15118  0.00000 -0.30236
      15     H     0.42445  0.42445  0.00000  0.15109
      16     H     0.42395  0.42395  0.00000  0.15211
      17     C     3.23931  3.23931  0.00000 -0.47861
      18     H     0.42249  0.42249  0.00000  0.15502
      19     H     0.42190  0.42190  0.00000  0.15620
      20     H     0.42243  0.42243  0.00000  0.15514
      21     H     0.41860  0.41860  0.00000  0.16281
      22     H     0.42184  0.42184  0.00000  0.15631
      23     H     0.40869  0.40869  0.00000  0.18262
      24     H     0.39651  0.39651  0.00000  0.20699
      25     H     0.40888  0.40888  0.00000  0.18224

   Total alpha = 36.00000, Total beta = 36.00000, Total charge =  0.00000
