  ==> Input File <==

--------------------------------------------------------------------------
set {
	reference rhf
	basis 6-31G*
}

set_num_threads( 4 )
memory 2 gb

molecule MOL {
0 1

H	 1.136379	 0.211822	 1.465562
C	 1.135357	 0.094285	 0.374742
C	 0.065331	 0.871482	 -0.349150
O	 1.941633	 -0.601957	 -0.151457
C	 0.464089	 1.212806	 -1.792054
H	 -0.154645	 1.765229	 0.223336
H	 -0.830318	 0.251947	 -0.361388
C	 1.632654	 2.195231	 -1.879923
H	 -0.399893	 1.631884	 -2.297940
H	 0.712577	 0.297188	 -2.324535
H	 1.391957	 3.130381	 -1.383852
H	 1.872442	 2.418355	 -2.914347
H	 2.528737	 1.798127	 -1.412233

	symmetry c1
}
set optking {
	frozen_dihedral = ("
		6 3 2 4
	")
}

ee = optimize('scf')
oeprop('DIPOLE', 'QUADRUPOLE', 'MULLIKEN_CHARGES')
f=open( 'psi4out.xyz', 'w' )
f.write( "13  " )
f.write( str(ee) + "\n" )
f.write( MOL.save_string_xyz() )
f.close()
--------------------------------------------------------------------------

    Molecular point group: c1
  Charge       = 0
  Multiplicity = 1
  Basis Set: 6-31G*
  Basis Set:
  @DF-RHF Final Energy:  -230.98472734205436
    Total Energy =                       -230.9847273420541285
    Molecular point group: c1
  Basis Set: 6-31G*
  Basis Set:
  Basis Set: 6-31G*
  Basis Set:
  @DF-RHF Final Energy:  -230.98390950285014
    Total Energy =                       -230.9839095028503380
  Basis Set: 6-31G*
  Basis Set:
  Basis Set: 6-31G*
  Basis Set:
  @DF-RHF Final Energy:  -230.98511472550749
    Total Energy =                       -230.9851147255074579
  Basis Set: 6-31G*
  Basis Set:
  Basis Set: 6-31G*
  Basis Set:
  @DF-RHF Final Energy:  -230.98541066868918
    Total Energy =                       -230.9854106686890987
  Basis Set: 6-31G*
  Basis Set:
  Basis Set: 6-31G*
  Basis Set:
  @DF-RHF Final Energy:  -230.98541622688688
    Total Energy =                       -230.9854162268870255
  Basis Set: 6-31G*
  Basis Set:
  Charge       = 0
  Multiplicity = 1
  Basis Set: 6-31G*
  Basis Set:

    Orbital Energies (a.u.)
    -----------------------

    Doubly Occupied:

       1A    -20.564347     2A    -11.329429     3A    -11.237634
       4A    -11.225954     5A    -11.212263     6A     -1.404762
       7A     -1.078120     8A     -0.972217     9A     -0.851477
      10A     -0.765437    11A     -0.686479    12A     -0.634938
      13A     -0.628713    14A     -0.585699    15A     -0.562374
      16A     -0.522307    17A     -0.497257    18A     -0.484360
      19A     -0.480253    20A     -0.412064

  @DF-RHF Final Energy:  -230.98541699786625

   => Energetics <=

    Nuclear Repulsion Energy =            176.1201854140312548
    One-Electron Energy =                -661.9390357912405989
    Two-Electron Energy =                 254.8334333793431483
    DFT Exchange-Correlation Energy =       0.0000000000000000
    Empirical Dispersion Energy =           0.0000000000000000
    PCM Polarization Energy =               0.0000000000000000
    EFP Energy =                            0.0000000000000000
    Total Energy =                       -230.9854169978661957
    Molecular point group: c1
  Basis Set: 6-31G*
  Basis Set:

  -Total Gradient:
     Atom            X                  Y                   Z
    ------   -----------------  -----------------  -----------------
       1       -0.000000915795    -0.000006756781    -0.000009208995
       2        0.001430103045     0.002022434589     0.000130161025
       3        0.001193226902     0.000453284771    -0.001086769325
       4       -0.001231250416    -0.001502374095     0.000031916951
       5       -0.000013897596    -0.000000801028     0.000004290048
       6       -0.001358978273    -0.000930745427     0.000887144322
       7       -0.000008160962     0.000001293548     0.000008401709
       8        0.000012778896    -0.000040916461     0.000036464790
       9       -0.000000504984    -0.000004510478    -0.000004208270
      10        0.000004460246     0.000003311198    -0.000002120323
      11        0.000000790528     0.000015403357    -0.000004431283
      12       -0.000012017764    -0.000008666985     0.000004098592
      13       -0.000015633828    -0.000000956210     0.000004260757

  **** Optimization is complete! (in 6 steps) ****
    Final optimized geometry and variables:
    Molecular point group: c1

    Geometry (in Angstrom), charge = 0, multiplicity = 1:

    H           -0.011633860703    -0.629095436793     2.251259136053
    C            0.056631528195    -0.678534050442     1.158821512666
    C           -0.975555623530     0.129007116863     0.407779473496
    O            0.870277654535    -1.376245481090     0.644725127494
    C           -0.596803448430     0.462103412673    -1.035172872640
    H           -1.210745930369     1.021266318946     0.983496054693
    H           -1.884988580303    -0.473174351873     0.428009696314
    C            0.554888168417     1.461533359605    -1.143270052109
    H           -1.472871168136     0.865017464141    -1.535194035240
    H           -0.334106719833    -0.455317448659    -1.549046796437
    H            0.309493766180     2.398150514612    -0.649396268758
    H            0.773296730219     1.684952404981    -2.182457346982
    H            1.460167675362     1.068924594314    -0.693828934237

  Mulliken Charges: (a.u.)
   Center  Symbol    Alpha    Beta     Spin     Total
       1     H     0.42676  0.42676  0.00000  0.14648
       2     C     2.83791  2.83791  0.00000  0.32418
       3     C     3.21104  3.21104  0.00000 -0.42208
       4     O     4.23841  4.23841  0.00000 -0.47681
       5     C     3.15214  3.15214  0.00000 -0.30428
       6     H     0.41237  0.41237  0.00000  0.17526
       7     H     0.40208  0.40208  0.00000  0.19584
       8     C     3.24541  3.24541  0.00000 -0.49083
       9     H     0.41827  0.41827  0.00000  0.16346
      10     H     0.40510  0.40510  0.00000  0.18979
      11     H     0.42421  0.42421  0.00000  0.15157
      12     H     0.41632  0.41632  0.00000  0.16737
      13     H     0.40997  0.40997  0.00000  0.18006

   Total alpha = 20.00000, Total beta = 20.00000, Total charge = -0.00000
