  ==> Input File <==

--------------------------------------------------------------------------
set {
	reference rhf
	basis 6-31G*
}

set_num_threads( 1 )
memory 2 gb

molecule MOL {
0 1

O	 1.133434	 1.201333	 -0.497712
C	 1.122059	 0.121804	 -0.000188
C	 -0.055131	 -0.508603	 0.703164
O	 2.172624	 -0.688929	 0.000216
C	 -1.292567	 0.383162	 0.732316
H	 -0.262046	 -1.452959	 0.207047
H	 0.267493	 -0.767311	 1.708021
C	 -2.469542	 -0.278923	 1.450466
H	 -1.576629	 0.635327	 -0.284653
H	 -1.046176	 1.322219	 1.218080
C	 -3.713215	 0.608241	 1.485414
H	 -2.711756	 -1.219712	 0.960237
H	 -2.178682	 -0.531836	 2.468064
H	 -4.049501	 0.850624	 0.481514
H	 -4.532512	 0.115542	 1.999493
H	 -3.512792	 1.543127	 2.000643
C	 3.452279	 -0.082609	 0.000533
H	 3.583069	 0.529321	 -0.880332
H	 4.163299	 -0.894027	 0.001117
H	 3.582335	 0.529955	 0.881077

	symmetry c1
}
set optking {
	frozen_dihedral = ("
		9 5 8 12,
		1 2 3 6,
		9 5 3 6
	")
}

ee = energy('scf')
oeprop('DIPOLE', 'QUADRUPOLE', 'MULLIKEN_CHARGES')
f=open( 'psi4out.xyz', 'w' )
f.write( "20  " )
f.write( str(ee) + "\n" )
f.write( MOL.save_string_xyz() )
f.close()
--------------------------------------------------------------------------

    Molecular point group: c1

    Geometry (in Angstrom), charge = 0, multiplicity = 1:

       Center              X                  Y                   Z               Mass
    ------------   -----------------  -----------------  -----------------  -----------------
           O          1.055317368587     1.099870384155    -0.974502002276    15.994914619560
           C          1.043942368587     0.020341384155    -0.476978002276    12.000000000000
           C         -0.133247631413    -0.610065615845     0.226373997724    12.000000000000
           O          2.094507368587    -0.790391615845    -0.476574002276    15.994914619560
           C         -1.370683631413     0.281699384155     0.255525997724    12.000000000000
           H         -0.340162631413    -1.554421615845    -0.269743002276     1.007825032070
           H          0.189376368587    -0.868773615845     1.231230997724     1.007825032070
           C         -2.547658631413    -0.380385615845     0.973675997724    12.000000000000
           H         -1.654745631413     0.533864384155    -0.761443002276     1.007825032070
           H         -1.124292631413     1.220756384155     0.741289997724     1.007825032070
           C         -3.791331631413     0.506778384155     1.008623997724    12.000000000000
           H         -2.789872631413    -1.321174615845     0.483446997724     1.007825032070
           H         -2.256798631413    -0.633298615845     1.991273997724     1.007825032070
           H         -4.127617631413     0.749161384155     0.004723997724     1.007825032070
           H         -4.610628631413     0.014079384155     1.522702997724     1.007825032070
           H         -3.590908631413     1.441664384155     1.523852997724     1.007825032070
           C          3.374162368587    -0.184071615845    -0.476257002276    12.000000000000
           H          3.504952368587     0.427858384155    -1.357122002276     1.007825032070
           H          4.085182368587    -0.995489615845    -0.475673002276     1.007825032070
           H          3.504218368587     0.428492384155     0.404286997724     1.007825032070

  Charge       = 0
  Multiplicity = 1
  Basis Set: 6-31G*
  Basis Set:

    Orbital Energies (a.u.)
    -----------------------

    Doubly Occupied:

       1A    -20.599113     2A    -20.547332     3A    -11.372846
       4A    -11.283302     5A    -11.235860     6A    -11.220441
       7A    -11.219321     8A    -11.210763     9A     -1.468054
      10A     -1.363366    11A     -1.088687    12A     -1.023661
      13A     -0.970051    14A     -0.887286    15A     -0.804353
      16A     -0.767763    17A     -0.696766    18A     -0.682436
      19A     -0.672239    20A     -0.645597    21A     -0.600573
      22A     -0.592087    23A     -0.580818    24A     -0.543544
      25A     -0.536047    26A     -0.519515    27A     -0.501014
      28A     -0.479198    29A     -0.475009    30A     -0.470337
      31A     -0.454146    32A     -0.434910

  @DF-RHF Final Energy:  -383.93633046421115

   => Energetics <=

    Nuclear Repulsion Energy =            381.1634173767842526
    One-Electron Energy =               -1278.3067921903218576
    Two-Electron Energy =                 513.2070443493253151
    DFT Exchange-Correlation Energy =       0.0000000000000000
    Empirical Dispersion Energy =           0.0000000000000000
    PCM Polarization Energy =               0.0000000000000000
    EFP Energy =                            0.0000000000000000
    Total Energy =                       -383.9363304642122330

  Mulliken Charges: (a.u.)
   Center  Symbol    Alpha    Beta     Spin     Total
       1     O     4.28090  4.28090  0.00000 -0.56180
       2     C     2.60488  2.60488  0.00000  0.79025
       3     C     3.20937  3.20937  0.00000 -0.41873
       4     O     4.30855  4.30855  0.00000 -0.61710
       5     C     3.15151  3.15151  0.00000 -0.30302
       6     H     0.39969  0.39969  0.00000  0.20062
       7     H     0.40263  0.40263  0.00000  0.19473
       8     C     3.15415  3.15415  0.00000 -0.30830
       9     H     0.41146  0.41146  0.00000  0.17709
      10     H     0.41259  0.41259  0.00000  0.17481
      11     C     3.23929  3.23929  0.00000 -0.47858
      12     H     0.42271  0.42271  0.00000  0.15458
      13     H     0.42334  0.42334  0.00000  0.15331
      14     H     0.41979  0.41979  0.00000  0.16042
      15     H     0.41876  0.41876  0.00000  0.16249
      16     H     0.42014  0.42014  0.00000  0.15972
      17     C     3.09448  3.09448  0.00000 -0.18895
      18     H     0.40320  0.40320  0.00000  0.19359
      19     H     0.40728  0.40728  0.00000  0.18544
      20     H     0.41529  0.41529  0.00000  0.16943

   Total alpha = 32.00000, Total beta = 32.00000, Total charge = -0.00000
