  ==> Input File <==

--------------------------------------------------------------------------
set {
	reference rhf
	basis 6-31G*
}

set_num_threads( 1 )
memory 2 gb

molecule MOL {
0 1

H	 3.729471	 -0.928294	 -0.070608
O	 2.826016	 -1.159218	 0.122261
C	 2.077727	 -0.067559	 -0.035091
C	 0.624473	 -0.343591	 0.253101
O	 2.542965	 0.974826	 -0.363729
C	 -0.265902	 0.883932	 0.072916
H	 0.324016	 -1.163849	 -0.390541
H	 0.565024	 -0.726111	 1.268924
C	 -1.728698	 0.646073	 0.462102
H	 -0.209144	 1.219470	 -0.958188
H	 0.135059	 1.692851	 0.673903
C	 -1.973372	 -0.591433	 1.330244
H	 -2.309149	 0.547870	 -0.452334
H	 -2.116866	 1.526586	 0.972180
C	 -3.458104	 -0.835595	 1.599379
H	 -1.547495	 -1.463691	 0.838472
H	 -1.455046	 -0.492024	 2.280422
H	 -3.606118	 -1.715799	 2.217155
H	 -4.004858	 -0.985395	 0.672854
H	 -3.907049	 0.009118	 2.114301

	symmetry c1
}
set optking {
	frozen_dihedral = ("
		16 12 9 6,
		7 4 6 10,
		5 3 4 7,
		1 2 3 5
	")
}

ee = energy('scf')
oeprop('DIPOLE', 'QUADRUPOLE', 'MULLIKEN_CHARGES')
f=open( 'psi4out.xyz', 'w' )
f.write( "20  " )
f.write( str(ee) + "\n" )
f.write( MOL.save_string_xyz() )
f.close()
--------------------------------------------------------------------------

    Molecular point group: c1

    Geometry (in Angstrom), charge = 0, multiplicity = 1:

       Center              X                  Y                   Z               Mass
    ------------   -----------------  -----------------  -----------------  -----------------
           H          3.603053383924    -0.849505364609    -0.497608584722     1.007825032070
           O          2.699598383924    -1.080429364609    -0.304739584722    15.994914619560
           C          1.951309383924     0.011229635391    -0.462091584722    12.000000000000
           C          0.498055383924    -0.264802364609    -0.173899584722    12.000000000000
           O          2.416547383924     1.053614635391    -0.790729584722    15.994914619560
           C         -0.392319616076     0.962720635391    -0.354084584722    12.000000000000
           H          0.197598383924    -1.085060364609    -0.817541584722     1.007825032070
           H          0.438606383924    -0.647322364609     0.841923415278     1.007825032070
           C         -1.855115616076     0.724861635391     0.035101415278    12.000000000000
           H         -0.335561616076     1.298258635391    -1.385188584722     1.007825032070
           H          0.008641383924     1.771639635391     0.246902415278     1.007825032070
           C         -2.099789616076    -0.512644364609     0.903243415278    12.000000000000
           H         -2.435566616076     0.626658635391    -0.879334584722     1.007825032070
           H         -2.243283616076     1.605374635391     0.545179415278     1.007825032070
           C         -3.584521616076    -0.756806364609     1.172378415278    12.000000000000
           H         -1.673912616076    -1.384902364609     0.411471415278     1.007825032070
           H         -1.581463616076    -0.413235364609     1.853421415278     1.007825032070
           H         -3.732535616076    -1.637010364609     1.790154415278     1.007825032070
           H         -4.131275616076    -0.906606364609     0.245853415278     1.007825032070
           H         -4.033466616076     0.087906635391     1.687300415278     1.007825032070

  Charge       = 0
  Multiplicity = 1
  Basis Set: 6-31G*
  Basis Set:

    Orbital Energies (a.u.)
    -----------------------

    Doubly Occupied:

       1A    -20.612005     2A    -20.550728     3A    -11.380139
       4A    -11.239426     5A    -11.221637     6A    -11.221322
       7A    -11.219115     8A    -11.212490     9A     -1.473939
      10A     -1.364920    11A     -1.098626    12A     -1.038060
      13A     -0.961865    14A     -0.869249    15A     -0.824924
      16A     -0.765535    17A     -0.699070    18A     -0.689669
      19A     -0.669283    20A     -0.637069    21A     -0.598149
      22A     -0.592878    23A     -0.581421    24A     -0.550562
      25A     -0.540171    26A     -0.519210    27A     -0.499384
      28A     -0.478257    29A     -0.471538    30A     -0.458696
      31A     -0.454875    32A     -0.442777

  @DF-RHF Final Energy:  -383.93991667879033

   => Energetics <=

    Nuclear Repulsion Energy =            379.3976556070951460
    One-Electron Energy =               -1274.8011094022558609
    Two-Electron Energy =                 511.4635371163700484
    DFT Exchange-Correlation Energy =       0.0000000000000000
    Empirical Dispersion Energy =           0.0000000000000000
    PCM Polarization Energy =               0.0000000000000000
    EFP Energy =                            0.0000000000000000
    Total Energy =                       -383.9399166787906097

  Mulliken Charges: (a.u.)
   Center  Symbol    Alpha    Beta     Spin     Total
       1     H     0.26785  0.26785  0.00000  0.46429
       2     O     4.35160  4.35160  0.00000 -0.70320
       3     C     2.62073  2.62073  0.00000  0.75853
       4     C     3.21950  3.21950  0.00000 -0.43900
       5     O     4.27928  4.27928  0.00000 -0.55856
       6     C     3.15518  3.15518  0.00000 -0.31036
       7     H     0.39807  0.39807  0.00000  0.20386
       8     H     0.39528  0.39528  0.00000  0.20945
       9     C     3.15521  3.15521  0.00000 -0.31043
      10     H     0.40920  0.40920  0.00000  0.18160
      11     H     0.40873  0.40873  0.00000  0.18253
      12     C     3.16079  3.16079  0.00000 -0.32159
      13     H     0.42070  0.42070  0.00000  0.15860
      14     H     0.41746  0.41746  0.00000  0.16508
      15     C     3.23772  3.23772  0.00000 -0.47544
      16     H     0.42048  0.42048  0.00000  0.15904
      17     H     0.42175  0.42175  0.00000  0.15649
      18     H     0.41861  0.41861  0.00000  0.16279
      19     H     0.42100  0.42100  0.00000  0.15801
      20     H     0.42085  0.42085  0.00000  0.15830

   Total alpha = 32.00000, Total beta = 32.00000, Total charge =  0.00000
