  ==> Input File <==

--------------------------------------------------------------------------
set {
	reference rhf
	basis 6-31G*
}

set_num_threads( 4 )
memory 2 gb

molecule MOL {
0 1

O	 -2.564527	 0.972202	 -0.462766
C	 -1.921153	 0.064240	 -0.045697
C	 -2.450936	 -1.319113	 0.218902
O	 -0.632575	 0.154573	 0.251549
H	 -2.309606	 -1.571817	 1.263466
H	 -3.500121	 -1.359836	 -0.032865
H	 -1.898997	 -2.041583	 -0.371146
C	 0.160891	 -1.019931	 0.106212
C	 1.589627	 -0.672828	 0.480843
H	 0.089836	 -1.367806	 -0.916050
H	 -0.238459	 -1.792301	 0.749618
C	 2.246377	 0.346236	 -0.452210
H	 2.163194	 -1.597435	 0.473358
H	 1.604769	 -0.303424	 1.502885
C	 3.691736	 0.652107	 -0.061850
H	 2.219579	 -0.032311	 -1.472055
H	 1.666466	 1.263317	 -0.447249
H	 4.134505	 1.377213	 -0.737283
H	 4.305508	 -0.243868	 -0.089969
H	 3.748266	 1.059562	 0.943567

	symmetry c1
}
set optking {
	frozen_dihedral = ("
		1 2 4 8
	")
}

ee = optimize('scf')
oeprop('DIPOLE', 'QUADRUPOLE', 'MULLIKEN_CHARGES')
f=open( 'psi4out.xyz', 'w' )
f.write( "20  " )
f.write( str(ee) + "\n" )
f.write( MOL.save_string_xyz() )
f.close()
--------------------------------------------------------------------------

    Molecular point group: c1
  Charge       = 0
  Multiplicity = 1
  Basis Set: 6-31G*
  Basis Set:
  @DF-RHF Final Energy:  -383.92204858243292
    Total Energy =                       -383.9220485824328080
    Molecular point group: c1
  Basis Set: 6-31G*
  Basis Set:
  Basis Set: 6-31G*
  Basis Set:
  @DF-RHF Final Energy:  -383.92250504143431
    Total Energy =                       -383.9225050414346470
  Basis Set: 6-31G*
  Basis Set:
  Basis Set: 6-31G*
  Basis Set:
  @DF-RHF Final Energy:  -383.92815355571270
    Total Energy =                       -383.9281535557126972
  Basis Set: 6-31G*
  Basis Set:
  Basis Set: 6-31G*
  Basis Set:
  @DF-RHF Final Energy:  -383.92926884427317
    Total Energy =                       -383.9292688442732242
  Basis Set: 6-31G*
  Basis Set:
  @DF-RHF Final Energy:  -383.92902220784384
    Total Energy =                       -383.9290222078437864
  Basis Set: 6-31G*
  Basis Set:
  @DF-RHF Final Energy:  -383.92997393947076
    Total Energy =                       -383.9299739394703010
  Basis Set: 6-31G*
  Basis Set:
  Basis Set: 6-31G*
  Basis Set:
  @DF-RHF Final Energy:  -383.92998295307075
    Total Energy =                       -383.9299829530706347
  Basis Set: 6-31G*
  Basis Set:
  Basis Set: 6-31G*
  Basis Set:
  @DF-RHF Final Energy:  -383.92999322435253
    Total Energy =                       -383.9299932243529838
  Basis Set: 6-31G*
  Basis Set:
  Charge       = 0
  Multiplicity = 1
  Basis Set: 6-31G*
  Basis Set:

    Orbital Energies (a.u.)
    -----------------------

    Doubly Occupied:

       1A    -20.596550     2A    -20.542672     3A    -11.376301
       4A    -11.297682     5A    -11.241708     6A    -11.230338
       7A    -11.219820     8A    -11.212765     9A     -1.461233
      10A     -1.365656    11A     -1.085981    12A     -1.019332
      13A     -0.998733    14A     -0.888150    15A     -0.812979
      16A     -0.781039    17A     -0.698580    18A     -0.685722
      19A     -0.659624    20A     -0.634641    21A     -0.608190
      22A     -0.593605    23A     -0.579928    24A     -0.562836
      25A     -0.544355    26A     -0.526904    27A     -0.516784
      28A     -0.486300    29A     -0.476996    30A     -0.472968
      31A     -0.444336    32A     -0.433353

  @DF-RHF Final Energy:  -383.92999369868693

   => Energetics <=

    Nuclear Repulsion Energy =            384.9166431425731503
    One-Electron Energy =               -1285.5811464536570838
    Two-Electron Energy =                 516.7345096123967778
    DFT Exchange-Correlation Energy =       0.0000000000000000
    Empirical Dispersion Energy =           0.0000000000000000
    PCM Polarization Energy =               0.0000000000000000
    EFP Energy =                            0.0000000000000000
    Total Energy =                       -383.9299936986872126
    Molecular point group: c1
  Basis Set: 6-31G*
  Basis Set:

  -Total Gradient:
     Atom            X                  Y                   Z
    ------   -----------------  -----------------  -----------------
       1        0.000726007908    -0.000650058578    -0.002792676627
       2       -0.000759125818     0.001370262819     0.002668873062
       3        0.000001469207    -0.000001198698    -0.000027706351
       4       -0.000625430825    -0.001449111402     0.002485142051
       5       -0.000001815534     0.000006858892     0.000007496426
       6       -0.000002119402     0.000001910624     0.000006788069
       7        0.000010403860     0.000007952473     0.000022713925
       8        0.000625780833     0.000744889375    -0.002343095432
       9       -0.000009984709    -0.000039666685    -0.000014477927
      10        0.000016556756    -0.000016558284    -0.000000635840
      11        0.000018743121     0.000010792387    -0.000012329430
      12        0.000003847141     0.000008813884     0.000003435963
      13        0.000010271359    -0.000000422691     0.000003122558
      14       -0.000013686764    -0.000002171250    -0.000006490575
      15        0.000000874393    -0.000002739479    -0.000007933990
      16       -0.000001517070     0.000004644869     0.000003304589
      17        0.000000520534     0.000004083135     0.000002998879
      18        0.000003134041    -0.000002818390    -0.000003167394
      19       -0.000003184977    -0.000000640254     0.000006070595
      20       -0.000000744046     0.000005177252    -0.000001432550

  **** Optimization is complete! (in 9 steps) ****
    Final optimized geometry and variables:
    Molecular point group: c1

    Geometry (in Angstrom), charge = 0, multiplicity = 1:

    O           -2.432116161457     1.134159293879    -0.398800805861
    C           -1.912330311603     0.137943572934    -0.028452884362
    C           -2.652999037336    -1.172310331044     0.109179635452
    O           -0.620120984724     0.150087295798     0.315128027766
    H           -2.524284187532    -1.581995539014     1.104827438601
    H           -3.700494860180    -0.992198830633    -0.078547059324
    H           -2.287441543648    -1.904779697865    -0.602123420981
    C            0.208736460612    -0.989642218665     0.164276956291
    C            1.634630831221    -0.575599552579     0.481565202197
    H            0.137848497337    -1.359619455664    -0.853581956704
    H           -0.112209890097    -1.776671250869     0.837424090535
    C            2.206606444097     0.458603448620    -0.489318569414
    H            2.249332071238    -1.473539519318     0.469984149033
    H            1.661335408107    -0.187802580875     1.496020575680
    C            3.642537337480     0.850993212711    -0.144295491549
    H            2.175161491848     0.056422342286    -1.500158351070
    H            1.574462364847     1.339285844352    -0.485845280766
    H            4.026647593739     1.581643143906    -0.848737458091
    H            4.304757556783    -0.010259538254    -0.166704431964
    H            3.701286905319     1.287540061455     0.848591955469

  Mulliken Charges: (a.u.)
   Center  Symbol    Alpha    Beta     Spin     Total
       1     O     4.26111  4.26111  0.00000 -0.52222
       2     C     2.61648  2.61648  0.00000  0.76703
       3     C     3.30654  3.30654  0.00000 -0.61308
       4     O     4.30600  4.30600  0.00000 -0.61199
       5     H     0.40206  0.40206  0.00000  0.19587
       6     H     0.38876  0.38876  0.00000  0.22249
       7     H     0.40348  0.40348  0.00000  0.19304
       8     C     3.00408  3.00408  0.00000 -0.00816
       9     C     3.16145  3.16145  0.00000 -0.32290
      10     H     0.41863  0.41863  0.00000  0.16273
      11     H     0.41754  0.41754  0.00000  0.16492
      12     C     3.15686  3.15686  0.00000 -0.31371
      13     H     0.41968  0.41968  0.00000  0.16064
      14     H     0.41100  0.41100  0.00000  0.17799
      15     C     3.24098  3.24098  0.00000 -0.48196
      16     H     0.42451  0.42451  0.00000  0.15099
      17     H     0.40185  0.40185  0.00000  0.19629
      18     H     0.41619  0.41619  0.00000  0.16763
      19     H     0.42321  0.42321  0.00000  0.15359
      20     H     0.41959  0.41959  0.00000  0.16082

   Total alpha = 32.00000, Total beta = 32.00000, Total charge = -0.00000
