  ==> Input File <==

--------------------------------------------------------------------------
set {
	reference rhf
	basis 6-31G*
}

set_num_threads( 1 )
memory 2 gb

molecule MOL {
0 1

H	 1.129437	 3.918396	 2.290376
N	 0.301957	 3.358919	 2.214174
C	 0.441717	 2.372921	 1.152194
H	 -0.453930	 3.986041	 2.013716
C	 -0.779100	 1.460267	 1.102990
H	 1.324769	 1.779158	 1.367884
H	 0.598847	 2.821490	 0.168072
C	 -0.679275	 0.379305	 0.025956
H	 -0.906755	 1.005217	 2.080982
H	 -1.668264	 2.064642	 0.925632
C	 -1.903357	 -0.536963	 -0.023547
H	 0.210789	 -0.223204	 0.200936
H	 -0.543428	 0.846775	 -0.948141
C	 -3.225172	 0.228290	 0.028445
H	 -1.867824	 -1.134999	 -0.931459
H	 -1.860449	 -1.239604	 0.805977
H	 -3.313397	 0.915643	 -0.808262
H	 -4.073500	 -0.448134	 -0.008893
H	 -3.306061	 0.809945	 0.942516

	symmetry c1
}
set optking {
	frozen_dihedral = ("
		6 3 5 9,
		12 8 5 9,
		1 2 3 6
	")
}

ee = energy('scf')
oeprop('DIPOLE', 'QUADRUPOLE', 'MULLIKEN_CHARGES')
f=open( 'psi4out.xyz', 'w' )
f.write( "19  " )
f.write( str(ee) + "\n" )
f.write( MOL.save_string_xyz() )
f.close()
--------------------------------------------------------------------------

    Molecular point group: c1

    Geometry (in Angstrom), charge = 0, multiplicity = 1:

       Center              X                  Y                   Z               Mass
    ------------   -----------------  -----------------  -----------------  -----------------
           H          2.097913424194     2.665875280928     1.525775055074     1.007825032070
           N          1.270433424194     2.106398280928     1.449573055074    14.003074004780
           C          1.410193424194     1.120400280928     0.387593055074    12.000000000000
           H          0.514546424194     2.733520280928     1.249115055074     1.007825032070
           C          0.189376424194     0.207746280928     0.338389055074    12.000000000000
           H          2.293245424194     0.526637280928     0.603283055074     1.007825032070
           H          1.567323424194     1.568969280928    -0.596528944926     1.007825032070
           C          0.289201424194    -0.873215719072    -0.738644944926    12.000000000000
           H          0.061721424194    -0.247303719072     1.316381055074     1.007825032070
           H         -0.699787575806     0.812121280928     0.161031055074     1.007825032070
           C         -0.934880575806    -1.789483719072    -0.788147944926    12.000000000000
           H          1.179265424194    -1.475724719072    -0.563664944926     1.007825032070
           H          0.425048424194    -0.405745719072    -1.712741944926     1.007825032070
           C         -2.256695575806    -1.024230719072    -0.736155944926    12.000000000000
           H         -0.899347575806    -2.387519719072    -1.696059944926     1.007825032070
           H         -0.891972575806    -2.492124719072     0.041376055074     1.007825032070
           H         -2.344920575806    -0.336877719072    -1.572862944926     1.007825032070
           H         -3.105023575806    -1.700654719072    -0.773493944926     1.007825032070
           H         -2.337584575806    -0.442575719072     0.177915055074     1.007825032070

  Charge       = 0
  Multiplicity = 1
  Basis Set: 6-31G*
  Basis Set:

    Orbital Energies (a.u.)
    -----------------------

    Doubly Occupied:

       1A    -15.532261     2A    -11.239326     3A    -11.213790
       4A    -11.212505     5A    -11.208371     6A    -11.206229
       7A     -1.176367     8A     -1.075325     9A     -0.992466
      10A     -0.904458    11A     -0.826134    12A     -0.772851
      13A     -0.664820    14A     -0.634027    15A     -0.616895
      16A     -0.605231    17A     -0.565407    18A     -0.547525
      19A     -0.523261    20A     -0.503317    21A     -0.484872
      22A     -0.456735    23A     -0.455383    24A     -0.452324
      25A     -0.380842

  @DF-RHF Final Energy:  -251.34715603166697

   => Energetics <=

    Nuclear Repulsion Energy =            250.8283654898146722
    One-Electron Energy =                -835.8495877206116802
    Two-Electron Energy =                 333.6740661991299248
    DFT Exchange-Correlation Energy =       0.0000000000000000
    Empirical Dispersion Energy =           0.0000000000000000
    PCM Polarization Energy =               0.0000000000000000
    EFP Energy =                            0.0000000000000000
    Total Energy =                       -251.3471560316670548

  Mulliken Charges: (a.u.)
   Center  Symbol    Alpha    Beta     Spin     Total
       1     H     0.33251  0.33251  0.00000  0.33499
       2     N     3.92195  3.92195  0.00000 -0.84390
       3     C     3.05931  3.05931  0.00000 -0.11863
       4     H     0.33545  0.33545  0.00000  0.32909
       5     C     3.15678  3.15678  0.00000 -0.31355
       6     H     0.42120  0.42120  0.00000  0.15759
       7     H     0.43488  0.43488  0.00000  0.13025
       8     C     3.15612  3.15612  0.00000 -0.31224
       9     H     0.41358  0.41358  0.00000  0.17283
      10     H     0.42387  0.42387  0.00000  0.15225
      11     C     3.15073  3.15073  0.00000 -0.30145
      12     H     0.42141  0.42141  0.00000  0.15717
      13     H     0.42481  0.42481  0.00000  0.15037
      14     C     3.24533  3.24533  0.00000 -0.49065
      15     H     0.42103  0.42103  0.00000  0.15794
      16     H     0.42200  0.42200  0.00000  0.15599
      17     H     0.42318  0.42318  0.00000  0.15364
      18     H     0.41894  0.41894  0.00000  0.16213
      19     H     0.41692  0.41692  0.00000  0.16617

   Total alpha = 25.00000, Total beta = 25.00000, Total charge = -0.00000
