  ==> Input File <==

--------------------------------------------------------------------------
set {
	reference rhf
	basis 6-31G*
}

set_num_threads( 1 )
memory 2 gb

molecule MOL {
0 1

H	 -1.002570	 -1.802524	 -4.831077
O	 -1.274316	 -2.667577	 -5.101092
C	 -0.660580	 -3.632923	 -4.285317
C	 -1.240768	 -3.685998	 -2.876313
H	 -0.819082	 -4.581620	 -4.781831
H	 0.415189	 -3.466785	 -4.241760
C	 -1.027720	 -2.404496	 -2.066850
H	 -2.304075	 -3.899206	 -2.949033
H	 -0.784125	 -4.524431	 -2.352982
C	 -1.573182	 -2.508910	 -0.639830
H	 -1.507326	 -1.574890	 -2.578805
H	 0.037118	 -2.174688	 -2.026252
C	 -1.309753	 -1.282496	 0.241564
H	 -2.643966	 -2.700569	 -0.679008
H	 -1.127359	 -3.378582	 -0.161696
C	 -2.037799	 -0.007733	 -0.193645
H	 -1.609590	 -1.522545	 1.259548
H	 -0.238467	 -1.090886	 0.279898
C	 -3.489788	 0.042957	 0.286558
H	 -2.017067	 0.064384	 -1.280144
H	 -1.513726	 0.868678	 0.179924
C	 -4.216917	 1.317354	 -0.141063
H	 -4.025645	 -0.823308	 -0.095450
H	 -3.513059	 -0.038752	 1.371301
H	 -4.239342	 1.411634	 -1.223113
H	 -5.243387	 1.322503	 0.212445
H	 -3.726170	 2.201406	 0.256408

	symmetry c1
}
set optking {
	frozen_dihedral = ("
		14 10 7 4,
		14 10 13 16,
		10 7 4 8,
		8 4 3 2,
		20 16 19 22,
		4 3 2 1
	")
}

ee = energy('scf')
oeprop('DIPOLE', 'QUADRUPOLE', 'MULLIKEN_CHARGES')
f=open( 'psi4out.xyz', 'w' )
f.write( "27  " )
f.write( str(ee) + "\n" )
f.write( MOL.save_string_xyz() )
f.close()
--------------------------------------------------------------------------

    Molecular point group: c1

    Geometry (in Angstrom), charge = 0, multiplicity = 1:

       Center              X                  Y                   Z               Mass
    ------------   -----------------  -----------------  -----------------  -----------------
           H          0.866277773163    -0.154045812451    -3.128878483236     1.007825032070
           O          0.594531773163    -1.019098812451    -3.398893483236    15.994914619560
           C          1.208267773163    -1.984444812451    -2.583118483236    12.000000000000
           C          0.628079773163    -2.037519812451    -1.174114483236    12.000000000000
           H          1.049765773163    -2.933141812451    -3.079632483236     1.007825032070
           H          2.284036773163    -1.818306812451    -2.539561483236     1.007825032070
           C          0.841127773163    -0.756017812451    -0.364651483236    12.000000000000
           H         -0.435227226837    -2.250727812451    -1.246834483236     1.007825032070
           H          1.084722773163    -2.875952812451    -0.650783483236     1.007825032070
           C          0.295665773163    -0.860431812451     1.062368516764    12.000000000000
           H          0.361521773163     0.073588187549    -0.876606483236     1.007825032070
           H          1.905965773163    -0.526209812451    -0.324053483236     1.007825032070
           C          0.559094773163     0.365982187549     1.943762516764    12.000000000000
           H         -0.775118226837    -1.052090812451     1.023190516764     1.007825032070
           H          0.741488773163    -1.730103812451     1.540502516764     1.007825032070
           C         -0.168951226837     1.640745187549     1.508553516764    12.000000000000
           H          0.259257773163     0.125933187549     2.961746516764     1.007825032070
           H          1.630380773163     0.557592187549     1.982096516764     1.007825032070
           C         -1.620940226837     1.691435187549     1.988756516764    12.000000000000
           H         -0.148219226837     1.712862187549     0.422054516764     1.007825032070
           H          0.355121773163     2.517156187549     1.882122516764     1.007825032070
           C         -2.348069226837     2.965832187549     1.561135516764    12.000000000000
           H         -2.156797226837     0.825170187549     1.606748516764     1.007825032070
           H         -1.644211226837     1.609726187549     3.073499516764     1.007825032070
           H         -2.370494226837     3.060112187549     0.479085516764     1.007825032070
           H         -3.374539226837     2.970981187549     1.914643516764     1.007825032070
           H         -1.857322226837     3.849884187549     1.958606516764     1.007825032070

  Charge       = 0
  Multiplicity = 1
  Basis Set: 6-31G*
  Basis Set:

    Orbital Energies (a.u.)
    -----------------------

    Doubly Occupied:

       1A    -20.552588     2A    -11.267294     3A    -11.220068
       4A    -11.217335     5A    -11.215578     6A    -11.215302
       7A    -11.215115     8A    -11.213479     9A    -11.208781
      10A     -1.359316    11A     -1.096373    12A     -1.060691
      13A     -1.010323    14A     -0.948813    15A     -0.887463
      16A     -0.826820    17A     -0.804088    18A     -0.768625
      19A     -0.693796    20A     -0.654882    21A     -0.633338
      22A     -0.611481    23A     -0.603914    24A     -0.589712
      25A     -0.576138    26A     -0.562436    27A     -0.534349
      28A     -0.526353    29A     -0.509460    30A     -0.492213
      31A     -0.488732    32A     -0.481907    33A     -0.466916
      34A     -0.452652    35A     -0.447408    36A     -0.444310
      37A     -0.423988

  @DF-RHF Final Energy:  -388.27880966434952

   => Energetics <=

    Nuclear Repulsion Energy =            465.6852033125704793
    One-Electron Energy =               -1449.3640904814326404
    Two-Electron Energy =                 595.4000775045120690
    DFT Exchange-Correlation Energy =       0.0000000000000000
    Empirical Dispersion Energy =           0.0000000000000000
    PCM Polarization Energy =               0.0000000000000000
    EFP Energy =                            0.0000000000000000
    Total Energy =                       -388.2788096643500921

  Mulliken Charges: (a.u.)
   Center  Symbol    Alpha    Beta     Spin     Total
       1     H     0.27980  0.27980  0.00000  0.44039
       2     O     4.37098  4.37098  0.00000 -0.74195
       3     C     2.99742  2.99742  0.00000  0.00516
       4     C     3.16069  3.16069  0.00000 -0.32138
       5     H     0.41437  0.41437  0.00000  0.17125
       6     H     0.43193  0.43193  0.00000  0.13615
       7     C     3.16293  3.16293  0.00000 -0.32586
       8     H     0.41510  0.41510  0.00000  0.16980
       9     H     0.42418  0.42418  0.00000  0.15163
      10     C     3.15365  3.15365  0.00000 -0.30731
      11     H     0.42369  0.42369  0.00000  0.15262
      12     H     0.42514  0.42514  0.00000  0.14973
      13     C     3.15671  3.15671  0.00000 -0.31342
      14     H     0.42072  0.42072  0.00000  0.15856
      15     H     0.42093  0.42093  0.00000  0.15814
      16     C     3.15464  3.15464  0.00000 -0.30929
      17     H     0.42076  0.42076  0.00000  0.15848
      18     H     0.42215  0.42215  0.00000  0.15570
      19     C     3.15284  3.15284  0.00000 -0.30568
      20     H     0.42339  0.42339  0.00000  0.15321
      21     H     0.42107  0.42107  0.00000  0.15785
      22     C     3.23905  3.23905  0.00000 -0.47810
      23     H     0.42199  0.42199  0.00000  0.15603
      24     H     0.42280  0.42280  0.00000  0.15439
      25     H     0.42189  0.42189  0.00000  0.15623
      26     H     0.41918  0.41918  0.00000  0.16164
      27     H     0.42199  0.42199  0.00000  0.15601

   Total alpha = 37.00000, Total beta = 37.00000, Total charge = -0.00000
