  ==> Input File <==

--------------------------------------------------------------------------
set {
	reference rhf
	basis 6-31G*
}

set_num_threads( 4 )
memory 2 gb

molecule MOL {
0 1

H	 2.214253	 0.092652	 -0.703633
O	 1.450397	 -0.474774	 -0.739458
C	 0.489431	 0.077273	 0.000046
C	 -0.764129	 -0.759190	 0.000191
O	 0.643397	 1.105723	 0.573762
C	 -2.038368	 0.075731	 -0.000248
H	 -0.717284	 -1.412404	 -0.866059
H	 -0.717458	 -1.411724	 0.866967
H	 -2.086483	 0.712501	 -0.875098
H	 -2.908485	 -0.571682	 -0.000042
H	 -2.086576	 0.713280	 0.874068

	symmetry c1
}
set optking {
	frozen_dihedral = ("
		2 3 4 7
	")
}

ee = optimize('scf')
oeprop('DIPOLE', 'QUADRUPOLE', 'MULLIKEN_CHARGES')
f=open( 'psi4out.xyz', 'w' )
f.write( "11  " )
f.write( str(ee) + "\n" )
f.write( MOL.save_string_xyz() )
f.close()
--------------------------------------------------------------------------

    Molecular point group: c1
  Charge       = 0
  Multiplicity = 1
  Basis Set: 6-31G*
  Basis Set:
  @DF-RHF Final Energy:  -266.84475524740867
    Total Energy =                       -266.8447552474088411
    Molecular point group: c1
  Basis Set: 6-31G*
  Basis Set:
  Basis Set: 6-31G*
  Basis Set:
  @DF-RHF Final Energy:  -266.84504472991262
    Total Energy =                       -266.8450447299126722
  Basis Set: 6-31G*
  Basis Set:
  Basis Set: 6-31G*
  Basis Set:
  @DF-RHF Final Energy:  -266.84472903288923
    Total Energy =                       -266.8447290328891768
  Basis Set: 6-31G*
  Basis Set:
  Basis Set: 6-31G*
  Basis Set:
  @DF-RHF Final Energy:  -266.84508696812406
    Total Energy =                       -266.8450869681240647
  Basis Set: 6-31G*
  Basis Set:
  Charge       = 0
  Multiplicity = 1
  Basis Set: 6-31G*
  Basis Set:

    Orbital Energies (a.u.)
    -----------------------

    Doubly Occupied:

       1A    -20.615443     2A    -20.550942     3A    -11.382258
       4A    -11.243648     5A    -11.223328     6A     -1.476310
       7A     -1.366461     8A     -1.065304     9A     -0.916323
      10A     -0.805425    11A     -0.702815    12A     -0.690049
      13A     -0.655199    14A     -0.602266    15A     -0.593555
      16A     -0.533796    17A     -0.526422    18A     -0.507675
      19A     -0.476811    20A     -0.444497

  @DF-RHF Final Energy:  -266.84508795483862

   => Energetics <=

    Nuclear Repulsion Energy =            179.6979831778481582
    One-Electron Energy =                -720.3290857865290491
    Two-Electron Energy =                 273.7860146538423578
    DFT Exchange-Correlation Energy =       0.0000000000000000
    Empirical Dispersion Energy =           0.0000000000000000
    PCM Polarization Energy =               0.0000000000000000
    EFP Energy =                            0.0000000000000000
    Total Energy =                       -266.8450879548385046
    Molecular point group: c1
  Basis Set: 6-31G*
  Basis Set:

  -Total Gradient:
     Atom            X                  Y                   Z
    ------   -----------------  -----------------  -----------------
       1        0.000011871667    -0.000010351962     0.000024956388
       2       -0.000299684550     0.000540878715    -0.001039883746
       3        0.000563417184    -0.000863444546     0.001625293650
       4       -0.000976230050     0.001468380356    -0.001296473526
       5       -0.000000955534    -0.000100365752    -0.000106772807
       6        0.000035571057    -0.000050624879    -0.000015336823
       7        0.000645423706    -0.000949895835     0.000785242464
       8        0.000021052751    -0.000030123276     0.000033632034
       9       -0.000009139531     0.000007781611    -0.000011114903
      10       -0.000009148689     0.000008349070    -0.000007511577
      11        0.000017821984    -0.000020583507     0.000007968847

  **** Optimization is complete! (in 5 steps) ****
    Final optimized geometry and variables:
    Molecular point group: c1

    Geometry (in Angstrom), charge = 0, multiplicity = 1:

    H            2.243080431185     0.089852854188    -0.606624187925
    O            1.478463587749    -0.472550913474    -0.686559384691
    C            0.496417387392     0.061311416654     0.035794726471
    C           -0.756400791816    -0.778786694440     0.019583015502
    O            0.629904660543     1.082720275330     0.628331720742
    C           -2.026860375575     0.066637647025     0.052471127756
    H           -0.727532368834    -1.442315708302    -0.835108762408
    H           -0.707462885007    -1.411800208552     0.902770868730
    H           -2.109977959117     0.683134411789    -0.836114466491
    H           -2.900813801914    -0.573410327408     0.100104084646
    H           -2.029570407039     0.720120586998     0.914949729488

  Mulliken Charges: (a.u.)
   Center  Symbol    Alpha    Beta     Spin     Total
       1     H     0.26805  0.26805  0.00000  0.46390
       2     O     4.34933  4.34933  0.00000 -0.69866
       3     C     2.62331  2.62331  0.00000  0.75338
       4     C     3.20948  3.20948  0.00000 -0.41896
       5     O     4.27942  4.27942  0.00000 -0.55883
       6     C     3.24404  3.24404  0.00000 -0.48808
       7     H     0.39815  0.39815  0.00000  0.20371
       8     H     0.39769  0.39769  0.00000  0.20462
       9     H     0.41376  0.41376  0.00000  0.17247
      10     H     0.41483  0.41483  0.00000  0.17035
      11     H     0.40195  0.40195  0.00000  0.19610

   Total alpha = 20.00000, Total beta = 20.00000, Total charge = -0.00000
