  ==> Input File <==

--------------------------------------------------------------------------
set {
	reference rhf
	basis 6-31G*
}

set_num_threads( 1 )
memory 2 gb

molecule MOL {
0 1

O	 3.225979	 0.970355	 -0.599647
C	 2.701189	 0.057885	 -0.047330
C	 1.245376	 -0.013843	 0.345420
O	 3.347903	 -1.046386	 0.304773
C	 0.455112	 1.231400	 -0.050772
H	 0.838542	 -0.913825	 -0.103701
H	 1.208210	 -0.175333	 1.419774
C	 -0.998893	 1.219485	 0.433193
H	 0.482531	 1.345121	 -1.130325
H	 0.957290	 2.103070	 0.354729
C	 -1.883438	 0.145884	 -0.207175
H	 -1.431207	 2.195402	 0.224832
H	 -1.019646	 1.105716	 1.516076
C	 -1.353265	 -1.272062	 0.014966
H	 -2.890048	 0.221398	 0.201303
H	 -1.973542	 0.323462	 -1.276437
C	 -2.226424	 -2.352843	 -0.625061
H	 -1.272701	 -1.462678	 1.083802
H	 -0.342618	 -1.345199	 -0.383710
C	 -1.692129	 -3.766158	 -0.395343
H	 -3.236958	 -2.280544	 -0.228530
H	 -2.304573	 -2.166494	 -1.694148
H	 -2.332050	 -4.509516	 -0.860667
H	 -1.634986	 -3.996134	 0.664865
H	 -0.695188	 -3.880914	 -0.811532
C	 4.728119	 -1.109107	 -0.004993
H	 4.882018	 -1.033965	 -1.071845
H	 5.068212	 -2.067527	 0.355250
H	 5.265056	 -0.311663	 0.488280

	symmetry c1
}
set optking {
	frozen_dihedral = ("
		21 17 14 11,
		17 14 11 15,
		6 3 5 9,
		11 8 5 9,
		2 4 26 27,
		1 2 4 26,
		6 3 2 1
	")
}

ee = energy('scf')
oeprop('DIPOLE', 'QUADRUPOLE', 'MULLIKEN_CHARGES')
f=open( 'psi4out.xyz', 'w' )
f.write( "29  " )
f.write( str(ee) + "\n" )
f.write( MOL.save_string_xyz() )
f.close()
--------------------------------------------------------------------------

    Molecular point group: c1

    Geometry (in Angstrom), charge = 0, multiplicity = 1:

       Center              X                  Y                   Z               Mass
    ------------   -----------------  -----------------  -----------------  -----------------
           O          2.489743566708     1.530081229575    -0.521082832168    15.994914619560
           C          1.964953566708     0.617611229575     0.031234167832    12.000000000000
           C          0.509140566708     0.545883229575     0.423984167832    12.000000000000
           O          2.611667566708    -0.486659770425     0.383337167832    15.994914619560
           C         -0.281123433292     1.791126229575     0.027792167832    12.000000000000
           H          0.102306566708    -0.354098770425    -0.025136832168     1.007825032070
           H          0.471974566708     0.384393229575     1.498338167832     1.007825032070
           C         -1.735128433292     1.779211229575     0.511757167832    12.000000000000
           H         -0.253704433292     1.904847229575    -1.051760832168     1.007825032070
           H          0.221054566708     2.662796229575     0.433293167832     1.007825032070
           C         -2.619673433292     0.705610229575    -0.128610832168    12.000000000000
           H         -2.167442433292     2.755128229575     0.303396167832     1.007825032070
           H         -1.755881433292     1.665442229575     1.594640167832     1.007825032070
           C         -2.089500433292    -0.712335770425     0.093530167832    12.000000000000
           H         -3.626283433292     0.781124229575     0.279867167832     1.007825032070
           H         -2.709777433292     0.883188229575    -1.197872832168     1.007825032070
           C         -2.962659433292    -1.793116770425    -0.546496832168    12.000000000000
           H         -2.008936433292    -0.902951770425     1.162366167832     1.007825032070
           H         -1.078853433292    -0.785472770425    -0.305145832168     1.007825032070
           C         -2.428364433292    -3.206431770425    -0.316778832168    12.000000000000
           H         -3.973193433292    -1.720817770425    -0.149965832168     1.007825032070
           H         -3.040808433292    -1.606767770425    -1.615583832168     1.007825032070
           H         -3.068285433292    -3.949789770425    -0.782102832168     1.007825032070
           H         -2.371221433292    -3.436407770425     0.743429167832     1.007825032070
           H         -1.431423433292    -3.321187770425    -0.732967832168     1.007825032070
           C          3.991883566708    -0.549380770425     0.073571167832    12.000000000000
           H          4.145782566708    -0.474238770425    -0.993280832168     1.007825032070
           H          4.331976566708    -1.507800770425     0.433814167832     1.007825032070
           H          4.528820566708     0.248063229575     0.566844167832     1.007825032070

  Charge       = 0
  Multiplicity = 1
  Basis Set: 6-31G*
  Basis Set:

    Orbital Energies (a.u.)
    -----------------------

    Doubly Occupied:

       1A    -20.602271     2A    -20.542935     3A    -11.369268
       4A    -11.279993     5A    -11.228476     6A    -11.219389
       7A    -11.218234     8A    -11.216747     9A    -11.215804
      10A    -11.212694    11A    -11.210037    12A     -1.467587
      13A     -1.360810    14A     -1.105213    15A     -1.061935
      16A     -1.019977    17A     -0.975124    18A     -0.937941
      19A     -0.861996    20A     -0.808362    21A     -0.786621
      22A     -0.763935    23A     -0.701186    24A     -0.685076
      25A     -0.670334    26A     -0.660210    27A     -0.623240
      28A     -0.608843    29A     -0.593885    30A     -0.575121
      31A     -0.569485    32A     -0.559822    33A     -0.538898
      34A     -0.531037    35A     -0.523254    36A     -0.501782
      37A     -0.495373    38A     -0.483615    39A     -0.470835
      40A     -0.463068    41A     -0.454881    42A     -0.453527
      43A     -0.437882    44A     -0.421178

  @DF-RHF Final Energy:  -501.01500982428877

   => Energetics <=

    Nuclear Repulsion Energy =            641.1239676519588784
    One-Electron Energy =               -1953.3020076921238797
    Two-Electron Energy =                 811.1630302158758923
    DFT Exchange-Correlation Energy =       0.0000000000000000
    Empirical Dispersion Energy =           0.0000000000000000
    PCM Polarization Energy =               0.0000000000000000
    EFP Energy =                            0.0000000000000000
    Total Energy =                       -501.0150098242889953

  Mulliken Charges: (a.u.)
   Center  Symbol    Alpha    Beta     Spin     Total
       1     O     4.28689  4.28689  0.00000 -0.57377
       2     C     2.60331  2.60331  0.00000  0.79338
       3     C     3.21185  3.21185  0.00000 -0.42371
       4     O     4.30748  4.30748  0.00000 -0.61496
       5     C     3.15461  3.15461  0.00000 -0.30921
       6     H     0.39846  0.39846  0.00000  0.20307
       7     H     0.40090  0.40090  0.00000  0.19819
       8     C     3.15894  3.15894  0.00000 -0.31788
       9     H     0.41340  0.41340  0.00000  0.17319
      10     H     0.40719  0.40719  0.00000  0.18562
      11     C     3.15128  3.15128  0.00000 -0.30255
      12     H     0.41673  0.41673  0.00000  0.16655
      13     H     0.42379  0.42379  0.00000  0.15243
      14     C     3.15277  3.15277  0.00000 -0.30554
      15     H     0.41995  0.41995  0.00000  0.16011
      16     H     0.42225  0.42225  0.00000  0.15551
      17     C     3.14826  3.14826  0.00000 -0.29652
      18     H     0.42363  0.42363  0.00000  0.15273
      19     H     0.42957  0.42957  0.00000  0.14087
      20     C     3.23948  3.23948  0.00000 -0.47896
      21     H     0.42333  0.42333  0.00000  0.15335
      22     H     0.42329  0.42329  0.00000  0.15342
      23     H     0.41874  0.41874  0.00000  0.16252
      24     H     0.42173  0.42173  0.00000  0.15654
      25     H     0.42266  0.42266  0.00000  0.15469
      26     C     3.09223  3.09223  0.00000 -0.18445
      27     H     0.40936  0.40936  0.00000  0.18128
      28     H     0.40875  0.40875  0.00000  0.18251
      29     H     0.40920  0.40920  0.00000  0.18160

   Total alpha = 44.00000, Total beta = 44.00000, Total charge = -0.00000
