  ==> Input File <==

--------------------------------------------------------------------------
set {
	reference rhf
	basis 6-31G*
}

set_num_threads( 1 )
memory 2 gb

molecule MOL {
0 1

O	 3.027052	 1.086255	 0.734468
C	 2.843464	 0.164689	 -0.000222
C	 1.546494	 -0.624492	 -0.000609
C	 3.902596	 -0.280124	 -0.987915
C	 0.291004	 0.242674	 0.000989
H	 1.557904	 -1.283758	 -0.867573
H	 1.558622	 -1.285963	 0.864672
C	 -0.994322	 -0.586602	 0.000262
H	 0.309117	 0.896430	 -0.865270
H	 0.309661	 0.894078	 0.869017
C	 -2.259874	 0.272531	 0.000494
H	 -1.004862	 -1.240012	 -0.870939
H	 -1.005220	 -1.241071	 0.870675
C	 -3.549786	 -0.549746	 -0.000374
H	 -2.250389	 0.926680	 -0.869574
H	 -2.250838	 0.925513	 0.871430
C	 -4.809590	 0.315458	 -0.000369
H	 -3.560515	 -1.202009	 -0.871156
H	 -3.561123	 -1.202955	 0.869711
H	 -4.844746	 0.956611	 -0.876632
H	 -5.706986	 -0.295590	 -0.001609
H	 -4.845960	 0.954827	 0.877144
H	 3.520093	 -0.227595	 -2.003076
H	 4.774498	 0.352685	 -0.897509
H	 4.183435	 -1.312784	 -0.802508

	symmetry c1
}
set optking {
	frozen_dihedral = ("
		9 5 8 12,
		15 11 8 12,
		15 11 14 18,
		9 5 3 6
	")
}

ee = energy('scf')
oeprop('DIPOLE', 'QUADRUPOLE', 'MULLIKEN_CHARGES')
f=open( 'psi4out.xyz', 'w' )
f.write( "25  " )
f.write( str(ee) + "\n" )
f.write( MOL.save_string_xyz() )
f.close()
--------------------------------------------------------------------------

    Molecular point group: c1

    Geometry (in Angstrom), charge = 0, multiplicity = 1:

       Center              X                  Y                   Z               Mass
    ------------   -----------------  -----------------  -----------------  -----------------
           O          3.033767062378     1.075204339252     0.764419188231    15.994914619560
           C          2.850179062378     0.153638339252     0.029729188231    12.000000000000
           C          1.553209062378    -0.635542660748     0.029342188231    12.000000000000
           C          3.909311062378    -0.291174660748    -0.957963811769    12.000000000000
           C          0.297719062378     0.231623339252     0.030940188231    12.000000000000
           H          1.564619062378    -1.294808660748    -0.837621811769     1.007825032070
           H          1.565337062378    -1.297013660748     0.894623188231     1.007825032070
           C         -0.987606937622    -0.597652660748     0.030213188231    12.000000000000
           H          0.315832062378     0.885379339252    -0.835318811769     1.007825032070
           H          0.316376062378     0.883027339252     0.898968188231     1.007825032070
           C         -2.253158937622     0.261480339252     0.030445188231    12.000000000000
           H         -0.998146937622    -1.251062660748    -0.840987811769     1.007825032070
           H         -0.998504937622    -1.252121660748     0.900626188231     1.007825032070
           C         -3.543070937622    -0.560796660748     0.029577188231    12.000000000000
           H         -2.243673937622     0.915629339252    -0.839622811769     1.007825032070
           H         -2.244122937622     0.914462339252     0.901381188231     1.007825032070
           C         -4.802874937622     0.304407339252     0.029582188231    12.000000000000
           H         -3.553799937622    -1.213059660748    -0.841204811769     1.007825032070
           H         -3.554407937622    -1.214005660748     0.899662188231     1.007825032070
           H         -4.838030937622     0.945560339252    -0.846680811769     1.007825032070
           H         -5.700270937622    -0.306640660748     0.028342188231     1.007825032070
           H         -4.839244937622     0.943776339252     0.907095188231     1.007825032070
           H          3.526808062378    -0.238645660748    -1.973124811769     1.007825032070
           H          4.781213062378     0.341634339252    -0.867557811769     1.007825032070
           H          4.190150062378    -1.323834660748    -0.772556811769     1.007825032070

  Charge       = 0
  Multiplicity = 1
  Basis Set: 6-31G*
  Basis Set:

    Orbital Energies (a.u.)
    -----------------------

    Doubly Occupied:

       1A    -20.548731     2A    -11.325609     3A    -11.230661
       4A    -11.227854     5A    -11.223115     6A    -11.219605
       7A    -11.217019     8A    -11.215743     9A    -11.209633
      10A     -1.394315    11A     -1.096395    12A     -1.057908
      13A     -1.014204    14A     -0.969891    15A     -0.892395
      16A     -0.816664    17A     -0.793215    18A     -0.731032
      19A     -0.663900    20A     -0.648978    21A     -0.635552
      22A     -0.616096    23A     -0.599133    24A     -0.585680
      25A     -0.568595    26A     -0.559344    27A     -0.541584
      28A     -0.533754    29A     -0.510498    30A     -0.494224
      31A     -0.488110    32A     -0.473547    33A     -0.466138
      34A     -0.464578    35A     -0.452402    36A     -0.396662

  @DF-RHF Final Energy:  -387.13445487602263

   => Energetics <=

    Nuclear Repulsion Energy =            438.1239863214873935
    One-Electron Energy =               -1392.7514516535338771
    Two-Electron Energy =                 567.4930104560241944
    DFT Exchange-Correlation Energy =       0.0000000000000000
    Empirical Dispersion Energy =           0.0000000000000000
    PCM Polarization Energy =               0.0000000000000000
    EFP Energy =                            0.0000000000000000
    Total Energy =                       -387.1344548760223461

  Mulliken Charges: (a.u.)
   Center  Symbol    Alpha    Beta     Spin     Total
       1     O     4.26247  4.26247  0.00000 -0.52495
       2     C     2.73375  2.73375  0.00000  0.53249
       3     C     3.20686  3.20686  0.00000 -0.41372
       4     C     3.29007  3.29007  0.00000 -0.58013
       5     C     3.15418  3.15418  0.00000 -0.30836
       6     H     0.41668  0.41668  0.00000  0.16664
       7     H     0.40288  0.40288  0.00000  0.19424
       8     C     3.15347  3.15347  0.00000 -0.30693
       9     H     0.41923  0.41923  0.00000  0.16153
      10     H     0.40444  0.40444  0.00000  0.19112
      11     C     3.15127  3.15127  0.00000 -0.30254
      12     H     0.42418  0.42418  0.00000  0.15164
      13     H     0.42229  0.42229  0.00000  0.15542
      14     C     3.15173  3.15173  0.00000 -0.30346
      15     H     0.42331  0.42331  0.00000  0.15338
      16     H     0.42153  0.42153  0.00000  0.15694
      17     C     3.23943  3.23943  0.00000 -0.47885
      18     H     0.42346  0.42346  0.00000  0.15307
      19     H     0.42281  0.42281  0.00000  0.15437
      20     H     0.42159  0.42159  0.00000  0.15681
      21     H     0.41916  0.41916  0.00000  0.16168
      22     H     0.42101  0.42101  0.00000  0.15798
      23     H     0.40844  0.40844  0.00000  0.18313
      24     H     0.39753  0.39753  0.00000  0.20494
      25     H     0.40823  0.40823  0.00000  0.18355

   Total alpha = 36.00000, Total beta = 36.00000, Total charge =  0.00000
