  ==> Input File <==

--------------------------------------------------------------------------
set {
	reference rhf
	basis cc-pvtz
}

set_num_threads( 4 )
memory 2 gb

molecule MOL {
0 1

H	 -0.000105	 1.988529	 0.748933
O	 -0.000098	 1.879786	 -0.188206
C	 -0.000014	 0.545691	 -0.532416
C	 -1.286000	 -0.125171	 -0.046657
C	 1.286016	 -0.125031	 -0.046584
H	 0.000021	 0.481103	 -1.610604
F	 -1.787622	 0.567537	 0.946011
F	 -2.194956	 -0.197686	 -0.985941
F	 -1.053705	 -1.343112	 0.393835
F	 2.317750	 0.468717	 -0.594166
F	 1.336617	 -1.393765	 -0.365123
F	 1.414467	 -0.024806	 1.259108

	symmetry c1
}
set optking {
	frozen_dihedral = ("
		7 4 3 6
	")
}

ee = optimize('scf')
oeprop('DIPOLE', 'QUADRUPOLE', 'MULLIKEN_CHARGES')
f=open( 'psi4out.xyz', 'w' )
f.write( "12  " )
f.write( str(ee) + "\n" )
f.write( MOL.save_string_xyz() )
f.close()
--------------------------------------------------------------------------

    Molecular point group: c1
  Charge       = 0
  Multiplicity = 1
  Basis Set: CC-PVTZ
  Basis Set:
  @DF-RHF Final Energy:  -786.58376681895663
    Total Energy =                       -786.5837668189564056
    Molecular point group: c1
  Basis Set: CC-PVTZ
  Basis Set:
  Basis Set: CC-PVTZ
  Basis Set:
  @DF-RHF Final Energy:  -786.58492331908678
    Total Energy =                       -786.5849233190865561
  Basis Set: CC-PVTZ
  Basis Set:
  Basis Set: CC-PVTZ
  Basis Set:
  @DF-RHF Final Energy:  -786.58561494490596
    Total Energy =                       -786.5856149449061832
  Basis Set: CC-PVTZ
  Basis Set:
  Basis Set: CC-PVTZ
  Basis Set:
  @DF-RHF Final Energy:  -786.58572407677286
    Total Energy =                       -786.5857240767721805
  Basis Set: CC-PVTZ
  Basis Set:
  Basis Set: CC-PVTZ
  Basis Set:
  @DF-RHF Final Energy:  -786.58575302372833
    Total Energy =                       -786.5857530237281026
  Basis Set: CC-PVTZ
  Basis Set:
  Basis Set: CC-PVTZ
  Basis Set:
  @DF-RHF Final Energy:  -786.58575828385403
    Total Energy =                       -786.5857582838552844
  Basis Set: CC-PVTZ
  Basis Set:
  Charge       = 0
  Multiplicity = 1
  Basis Set: CC-PVTZ
  Basis Set:

    Orbital Energies (a.u.)
    -----------------------

    Doubly Occupied:

       1A    -26.360270     2A    -26.359251     3A    -26.357473
       4A    -26.355513     5A    -26.354471     6A    -26.352534
       7A    -20.607938     8A    -11.522847     9A    -11.517766
      10A    -11.351619    11A     -1.772831    12A     -1.766017
      13A     -1.668386    14A     -1.663866    15A     -1.663117
      16A     -1.660011    17A     -1.437965    18A     -1.100853
      19A     -1.001652    20A     -0.944401    21A     -0.872876
      22A     -0.867213    23A     -0.858935    24A     -0.853442
      25A     -0.841473    26A     -0.821983    27A     -0.743242
      28A     -0.736677    29A     -0.733173    30A     -0.730299
      31A     -0.694577    32A     -0.693082    33A     -0.688071
      34A     -0.683058    35A     -0.676813    36A     -0.668153
      37A     -0.664465    38A     -0.653816    39A     -0.623688
      40A     -0.554047    41A     -0.508934

  @DF-RHF Final Energy:  -786.58575889202837

   => Energetics <=

    Nuclear Repulsion Energy =            670.0417975580459142
    One-Electron Energy =               -2427.2815135573791849
    Two-Electron Energy =                 970.6539571073046773
    DFT Exchange-Correlation Energy =       0.0000000000000000
    Empirical Dispersion Energy =           0.0000000000000000
    PCM Polarization Energy =               0.0000000000000000
    EFP Energy =                            0.0000000000000000
    Total Energy =                       -786.5857588920287071
    Molecular point group: c1
  Basis Set: CC-PVTZ
  Basis Set:

  -Total Gradient:
     Atom            X                  Y                   Z
    ------   -----------------  -----------------  -----------------
       1        0.000000848180     0.000010966652     0.000004047068
       2        0.000013118224    -0.000024896748     0.000008524092
       3        0.002056645414    -0.004514344756    -0.000493687363
       4        0.002546327396    -0.002096025391     0.003509172183
       5       -0.000005310511     0.000024789348    -0.000125812103
       6       -0.002306746808     0.004314739266    -0.000291498750
       7       -0.002260821082     0.002197679824    -0.002646177068
       8       -0.000073043152     0.000019607731    -0.000087452723
       9        0.000012548333     0.000106577022    -0.000008565824
      10       -0.000007861185    -0.000014018052     0.000017344976
      11        0.000007441272     0.000011454517     0.000053285981
      12        0.000016853927    -0.000036529419     0.000060819527

  **** Optimization is complete! (in 7 steps) ****
    Final optimized geometry and variables:
    Molecular point group: c1

    Geometry (in Angstrom), charge = 0, multiplicity = 1:

    H           -0.072713213614     2.045611778778     0.650911482522
    O            0.020463359242     1.884256665682    -0.273091904391
    C            0.005542571823     0.534867815358    -0.553318321113
    C           -1.285221577563    -0.124792433696    -0.015904060632
    C            1.289781038862    -0.128864020632    -0.060985170130
    H           -0.022773949930     0.454618436296    -1.628696139652
    F           -1.781972382609     0.566317275263     0.985299309112
    F           -2.196121678655    -0.142989813300    -0.962550992786
    F           -1.110094100469    -1.355589126922     0.391073090767
    F            2.328288454989     0.526246107435    -0.514269557241
    F            1.387737064624    -1.368062369021    -0.474097736254
    F            1.353618992765    -0.122547542085     1.254392925002

  Mulliken Charges: (a.u.)
   Center  Symbol    Alpha    Beta     Spin     Total
       1     H     0.38083  0.38083  0.00000  0.23835
       2     O     4.18731  4.18731  0.00000 -0.37463
       3     C     3.01953  3.01953  0.00000 -0.03907
       4     C     2.67483  2.67483  0.00000  0.65034
       5     C     2.67968  2.67968  0.00000  0.64064
       6     H     0.42618  0.42618  0.00000  0.14764
       7     F     4.60912  4.60912  0.00000 -0.21825
       8     F     4.60518  4.60518  0.00000 -0.21037
       9     F     4.59993  4.59993  0.00000 -0.19986
      10     F     4.60063  4.60063  0.00000 -0.20127
      11     F     4.60468  4.60468  0.00000 -0.20936
      12     F     4.61209  4.61209  0.00000 -0.22418

   Total alpha = 41.00000, Total beta = 41.00000, Total charge = -0.00000
