                              Psi4 1.0.54 Driver

  ==> Input File <==

--------------------------------------------------------------------------
set {
	reference rhf
	basis cc-pvtz
}

set_num_threads( 4 )
memory 2 gb

molecule MOL {
0 1

H	 -1.269184	 -3.211132	 1.617365
O	 -1.353636	 -2.525944	 0.971530
C	 -0.253460	 -1.779267	 1.003506
C	 -0.310616	 -0.658853	 0.000791
O	 0.636839	 -2.002593	 1.748799
C	 0.926581	 0.227233	 0.000178
H	 -1.206894	 -0.085260	 0.213875
H	 -0.473658	 -1.109893	 -0.972707
C	 2.220156	 -0.582071	 -0.000088
H	 0.899945	 0.878221	 -0.866390
H	 0.900542	 0.878581	 0.866486
C	 3.466689	 0.296012	 -0.000457
H	 2.239073	 -1.234095	 -0.869382
H	 2.239505	 -1.233985	 0.869270
H	 3.493549	 0.935857	 -0.875887
H	 4.368821	 -0.304526	 -0.001199
H	 3.494559	 0.935166	 0.875458

	symmetry c1
}
set optking {
	frozen_dihedral = ("
		7 4 6 10
	")
}

ee,wfn = optimize('scf', return_wfn=True)
oeprop( wfn, 'DIPOLE', 'QUADRUPOLE', 'MULLIKEN_CHARGES')
f=open( 'psi4out.xyz', 'w' )
f.write( "17  " )
f.write( str(ee) + "\n" )
f.write( MOL.save_string_xyz() )
f.close()
--------------------------------------------------------------------------

    Molecular point group: c1
  Charge       = 0
  Multiplicity = 1
  Basis Set: CC-PVTZ
  Basis Set:
  @DF-RHF Final Energy:  -345.03829704197170
    Total Energy =                       -345.0382970419717594
    Molecular point group: c1
  Basis Set: CC-PVTZ
  Basis Set:
  Basis Set: CC-PVTZ
  Basis Set:
  @DF-RHF Final Energy:  -345.04432716261175
    Total Energy =                       -345.0443271626118076
  Basis Set: CC-PVTZ
  Basis Set:
  Basis Set: CC-PVTZ
  Basis Set:
  @DF-RHF Final Energy:  -345.04522678069378
    Total Energy =                       -345.0452267806937243
  Basis Set: CC-PVTZ
  Basis Set:
  Basis Set: CC-PVTZ
  Basis Set:
  @DF-RHF Final Energy:  -345.04335167279226
    Total Energy =                       -345.0433516727921983
  Basis Set: CC-PVTZ
  Basis Set:
  @DF-RHF Final Energy:  -345.04595217365994
    Total Energy =                       -345.0459521736597139
  @DF-RHF Final Energy:  -345.04615045609125
    Total Energy =                       -345.0461504560913113
  Basis Set: CC-PVTZ
  Basis Set:
  @DF-RHF Final Energy:  -345.04632496766652
    Total Energy =                       -345.0463249676662372
  Basis Set: CC-PVTZ
  Basis Set:
  Basis Set: CC-PVTZ
  Basis Set:
  @DF-RHF Final Energy:  -345.04634548053156
    Total Energy =                       -345.0463454805314427
  Basis Set: CC-PVTZ
  Basis Set:
  Basis Set: CC-PVTZ
  Basis Set:
  @DF-RHF Final Energy:  -345.04634858129617
    Total Energy =                       -345.0463485812962290
  Basis Set: CC-PVTZ
  Basis Set:
  Charge       = 0
  Multiplicity = 1
  Basis Set: CC-PVTZ
  Basis Set:

    Orbital Energies (a.u.)
    -----------------------

    Doubly Occupied:

       1A    -20.605724     2A    -20.539165     3A    -11.374151
       4A    -11.240034     5A    -11.224363     6A    -11.214587
       7A    -11.207851     8A     -1.478537     9A     -1.369088
      10A     -1.090829    11A     -1.016963    12A     -0.913168
      13A     -0.831057    14A     -0.785379    15A     -0.706314
      16A     -0.691763    17A     -0.658543    18A     -0.633130
      19A     -0.589750    20A     -0.584623    21A     -0.577448
      22A     -0.534516    23A     -0.520003    24A     -0.489236
      25A     -0.479572    26A     -0.472102    27A     -0.467932
      28A     -0.441311

  @DF-RHF Final Energy:  -345.04634892890158

   => Energetics <=

    Nuclear Repulsion Energy =            312.0821847115789751
    One-Electron Energy =               -1088.7827881686816909
    Two-Electron Energy =                 431.6542545282009655
    DFT Exchange-Correlation Energy =       0.0000000000000000
    Empirical Dispersion Energy =           0.0000000000000000
    PCM Polarization Energy =               0.0000000000000000
    EFP Energy =                            0.0000000000000000
    Total Energy =                       -345.0463489289017502
    Molecular point group: c1
  Basis Set: CC-PVTZ
  Basis Set:

  -Total Gradient:
     Atom            X                  Y                   Z
    ------   -----------------  -----------------  -----------------
       1        0.000015242543     0.000021706665     0.000000474111
       2        0.000010739941     0.000017310620    -0.000016205514
       3       -0.000062443311    -0.000038538782    -0.000011847272
       4        0.000112938978     0.000015212345    -0.006540097743
       5        0.000038912054     0.000021369227     0.000005129857
       6       -0.003090232825     0.003947030960     0.003976703953
       7        0.000364796345    -0.000609429365     0.004903543821
       8        0.000002573738     0.000011282824     0.000001087872
       9       -0.000040160112    -0.000000218977    -0.000016701005
      10        0.002664338860    -0.003386858594    -0.002313512538
      11       -0.000009906558    -0.000007355519    -0.000003038469
      12        0.000003638791     0.000016178429     0.000008787439
      13       -0.000000161987    -0.000007545185    -0.000003050626
      14       -0.000007481052     0.000003263725     0.000004105953
      15       -0.000001059479    -0.000004627678     0.000002883681
      16       -0.000004401341    -0.000003571326     0.000001229471
      17        0.000002665412     0.000004790629     0.000000507010

  **** Optimization is complete! (in 10 steps) ****
    Final optimized geometry and variables:
    Molecular point group: c1

    Geometry (in Angstrom), charge = 0, multiplicity = 1:

    H           -1.757693400785    -2.392978933588     0.948474534930
    O           -1.714962126121    -1.834775857479     0.186311299594
    C           -1.052809735541    -0.730138434596     0.513219499628
    C           -1.005237730286     0.264067120066    -0.619439222493
    O           -0.608802339539    -0.561715878928     1.596985239352
    C            0.206587871972     1.194705864605    -0.591592353528
    H           -1.914993312150     0.842611408600    -0.480782864995
    H           -1.089369016455    -0.264441761361    -1.558439515413
    C            1.555074595429     0.473314157781    -0.568197987137
    H            0.175232816659     1.788132768604    -1.500286228934
    H            0.134892523766     1.868691740574     0.252624770220
    C            2.731115107225     1.440498824469    -0.654825818299
    H            1.601386105910    -0.223049635102    -1.402443449501
    H            1.641570870185    -0.114389499708     0.336462073826
    H            2.696515513090     2.023877520459    -1.569140887826
    H            3.675369904059     0.909017170868    -0.637372046838
    H            2.727002083591     2.133422095574     0.179757209478

  Mulliken Charges: (a.u.)
   Center  Symbol    Alpha    Beta     Spin     Total
       1     H     0.38122  0.38122  0.00000  0.23757
       2     O     4.15991  4.15991  0.00000 -0.31983
       3     C     2.80079  2.80079  0.00000  0.39842
       4     C     3.11509  3.11509  0.00000 -0.23017
       5     O     4.19770  4.19770  0.00000 -0.39540
       6     C     3.08537  3.08537  0.00000 -0.17074
       7     H     0.43522  0.43522  0.00000  0.12956
       8     H     0.43363  0.43363  0.00000  0.13273
       9     C     3.09266  3.09266  0.00000 -0.18533
      10     H     0.44840  0.44840  0.00000  0.10320
      11     H     0.44574  0.44574  0.00000  0.10851
      12     C     3.15094  3.15094  0.00000 -0.30189
      13     H     0.45569  0.45569  0.00000  0.08862
      14     H     0.44056  0.44056  0.00000  0.11887
      15     H     0.45655  0.45655  0.00000  0.08689
      16     H     0.44754  0.44754  0.00000  0.10492
      17     H     0.45298  0.45298  0.00000  0.09404

   Total alpha = 28.00000, Total beta = 28.00000, Total charge =  0.00000

*** Psi4 exiting successfully. Buy a developer a beer!
