  ==> Input File <==

--------------------------------------------------------------------------
set {
	reference rhf
	basis 6-31G*
}

set_num_threads( 4 )
memory 2 gb

molecule MOL {
0 1

H	 1.701964	 -1.699303	 -2.178927
O	 1.324788	 -1.636645	 -1.306804
C	 0.339190	 -0.740700	 -1.345670
C	 -0.318135	 -0.576402	 0.000164
O	 0.047541	 -0.164320	 -2.342527
C	 -1.454360	 0.441875	 -0.000474
H	 -0.667604	 -1.556991	 0.312127
H	 0.458347	 -0.300262	 0.708560
C	 -2.826123	 -0.230780	 0.000056
H	 -1.357605	 1.085198	 -0.868380
H	 -1.357504	 1.086451	 0.866496
H	 -2.959731	 -0.858053	 -0.876869
H	 -3.619374	 0.509403	 -0.000080
H	 -2.959371	 -0.857318	 0.877556

	symmetry c1
}
set optking {
	frozen_dihedral = ("
		7 4 6 10
	")
}

ee = optimize('scf')
oeprop('DIPOLE', 'QUADRUPOLE', 'MULLIKEN_CHARGES')
f=open( 'psi4out.xyz', 'w' )
f.write( "14  " )
f.write( str(ee) + "\n" )
f.write( MOL.save_string_xyz() )
f.close()
--------------------------------------------------------------------------

    Molecular point group: c1
  Charge       = 0
  Multiplicity = 1
  Basis Set: 6-31G*
  Basis Set:
  @DF-RHF Final Energy:  -305.87684579350048
    Total Energy =                       -305.8768457935007063
    Molecular point group: c1
  Basis Set: 6-31G*
  Basis Set:
  Basis Set: 6-31G*
  Basis Set:
  @DF-RHF Final Energy:  -305.87722673134658
    Total Energy =                       -305.8772267313466386
  Basis Set: 6-31G*
  Basis Set:
  Basis Set: 6-31G*
  Basis Set:
  @DF-RHF Final Energy:  -305.87705885681567
    Total Energy =                       -305.8770588568156654
  Basis Set: 6-31G*
  Basis Set:
  Basis Set: 6-31G*
  Basis Set:
  @DF-RHF Final Energy:  -305.87732043074431
    Total Energy =                       -305.8773204307443621
  Basis Set: 6-31G*
  Basis Set:
  Basis Set: 6-31G*
  Basis Set:
  @DF-RHF Final Energy:  -305.87732500660798
    Total Energy =                       -305.8773250066080891
  Basis Set: 6-31G*
  Basis Set:
  Basis Set: 6-31G*
  Basis Set:
  @DF-RHF Final Energy:  -305.87732781101386
    Total Energy =                       -305.8773278110139131
  Basis Set: 6-31G*
  Basis Set:
  Basis Set: 6-31G*
  Basis Set:
  @DF-RHF Final Energy:  -305.87732936851535
    Total Energy =                       -305.8773293685155181
  Basis Set: 6-31G*
  Basis Set:
  Charge       = 0
  Multiplicity = 1
  Basis Set: 6-31G*
  Basis Set:

    Orbital Energies (a.u.)
    -----------------------

    Doubly Occupied:

       1A    -20.613580     2A    -20.553014     3A    -11.382428
       4A    -11.241341     5A    -11.224096     6A    -11.213517
       7A     -1.475904     8A     -1.366837     9A     -1.080200
      10A     -0.977607    11A     -0.858267    12A     -0.788958
      13A     -0.701831    14A     -0.693166    15A     -0.658185
      16A     -0.611660    17A     -0.597538    18A     -0.564239
      19A     -0.559100    20A     -0.492375    21A     -0.488854
      22A     -0.486379    23A     -0.476854    24A     -0.445968

  @DF-RHF Final Energy:  -305.87732963498524

   => Energetics <=

    Nuclear Repulsion Energy =            242.4017482344550274
    One-Electron Energy =                -897.4543562485362145
    Two-Electron Energy =                 349.1752783790958574
    DFT Exchange-Correlation Energy =       0.0000000000000000
    Empirical Dispersion Energy =           0.0000000000000000
    PCM Polarization Energy =               0.0000000000000000
    EFP Energy =                            0.0000000000000000
    Total Energy =                       -305.8773296349853581
    Molecular point group: c1
  Basis Set: 6-31G*
  Basis Set:

  -Total Gradient:
     Atom            X                  Y                   Z
    ------   -----------------  -----------------  -----------------
       1        0.000011370533    -0.000006827107    -0.000007584271
       2       -0.000003737561     0.000001510756    -0.000013112846
       3       -0.000037993662     0.000048020246    -0.000048884841
       4        0.000458882329     0.000499862777     0.003928294819
       5        0.000039483005    -0.000043938390     0.000033021943
       6        0.002297349638     0.002579619147     0.001450697389
       7       -0.000751583121    -0.000794887521    -0.003445220791
       8        0.000001111317    -0.000000787522    -0.000002981207
       9       -0.000026164863    -0.000019685528    -0.000001272587
      10       -0.001999880529    -0.002263970381    -0.001907825546
      11        0.000000458489     0.000004743083     0.000013357955
      12       -0.000000477107     0.000002658165    -0.000005275915
      13        0.000012648198    -0.000002699739    -0.000000255659
      14       -0.000001466672    -0.000003617985     0.000007041562

  **** Optimization is complete! (in 8 steps) ****
    Final optimized geometry and variables:
    Molecular point group: c1

    Geometry (in Angstrom), charge = 0, multiplicity = 1:

    H            2.154978134519    -1.189341913905    -1.322060232549
    O            1.807420306797    -1.093540568548    -0.440715882791
    C            0.784665384938    -0.240766319400    -0.489342909609
    C            0.165565685712    -0.046792105155     0.874498014968
    O            0.435590120521     0.266756450750    -1.505144941666
    C           -0.989070207647     0.965046761132     0.889236864584
    H           -0.169788653160    -1.034699576046     1.178751042165
    H            0.966300754539     0.227603421698     1.552660580295
    C           -2.362430187412     0.292835226218     0.841079481315
    H           -0.900158195711     1.613767743685     0.027450440156
    H           -0.917654250472     1.582312762975     1.778416098604
    H           -2.464481138754    -0.313130986468    -0.054261528487
    H           -3.156193554550     1.032721372506     0.830654476688
    H           -2.519703821360    -0.351045322497     1.702056328290

  Mulliken Charges: (a.u.)
   Center  Symbol    Alpha    Beta     Spin     Total
       1     H     0.26760  0.26760  0.00000  0.46480
       2     O     4.34995  4.34995  0.00000 -0.69991
       3     C     2.62875  2.62875  0.00000  0.74251
       4     C     3.21102  3.21102  0.00000 -0.42203
       5     O     4.27908  4.27908  0.00000 -0.55816
       6     C     3.16021  3.16021  0.00000 -0.32043
       7     H     0.39674  0.39674  0.00000  0.20651
       8     H     0.39506  0.39506  0.00000  0.20988
       9     C     3.24313  3.24313  0.00000 -0.48627
      10     H     0.39689  0.39689  0.00000  0.20623
      11     H     0.41700  0.41700  0.00000  0.16600
      12     H     0.41542  0.41542  0.00000  0.16916
      13     H     0.41651  0.41651  0.00000  0.16698
      14     H     0.42265  0.42265  0.00000  0.15471

   Total alpha = 24.00000, Total beta = 24.00000, Total charge =  0.00000
