                              Psi4 1.0.54 Driver

  ==> Input File <==

--------------------------------------------------------------------------
set {
	reference rhf
	basis cc-pvtz
}

set_num_threads( 4 )
memory 2 gb

molecule MOL {
0 1

H	 1.033997	 0.633657	 0.000000
C	 0.788096	 -0.429819	 0.000000
N	 -0.537714	 -0.645117	 0.000000
O	 1.632679	 -1.268507	 -0.000000
C	 -1.522613	 0.412524	 0.000000
H	 -0.845894	 -1.585866	 0.000000
H	 -2.150256	 0.356137	 -0.880771
H	 -1.005621	 1.357208	 0.000000
H	 -2.150256	 0.356137	 0.880771

	symmetry c1
}
set optking {
	frozen_dihedral = ("
		1 2 3 6
	")
}

ee,wfn = optimize('scf', return_wfn=True)
oeprop( wfn, 'DIPOLE', 'QUADRUPOLE', 'MULLIKEN_CHARGES')
f=open( 'psi4out.xyz', 'w' )
f.write( "9  " )
f.write( str(ee) + "\n" )
f.write( MOL.save_string_xyz() )
f.close()
--------------------------------------------------------------------------

    Molecular point group: c1
  Charge       = 0
  Multiplicity = 1
  Basis Set: CC-PVTZ
  Basis Set:
  @DF-RHF Final Energy:  -208.04187484575863
    Total Energy =                       -208.0418748457585707
    Molecular point group: c1
  Basis Set: CC-PVTZ
  Basis Set:
  Basis Set: CC-PVTZ
  Basis Set:
  @DF-RHF Final Energy:  -208.04210211194473
    Total Energy =                       -208.0421021119447005
  Basis Set: CC-PVTZ
  Basis Set:
  Charge       = 0
  Multiplicity = 1
  Basis Set: CC-PVTZ
  Basis Set:

    Orbital Energies (a.u.)
    -----------------------

    Doubly Occupied:

       1A    -20.515491     2A    -15.584607     3A    -11.338068
       4A    -11.274838     5A     -1.393277     6A     -1.243332
       7A     -0.967775     8A     -0.848338     9A     -0.694291
      10A     -0.678016    11A     -0.636626    12A     -0.596889
      13A     -0.571432    14A     -0.548438    15A     -0.427885
      16A     -0.394527

  @DF-RHF Final Energy:  -208.04211850769516

   => Energetics <=

    Nuclear Repulsion Energy =            120.6865720955024983
    One-Electron Energy =                -522.0297197457284710
    Two-Electron Energy =                 193.3010291425307514
    DFT Exchange-Correlation Energy =       0.0000000000000000
    Empirical Dispersion Energy =           0.0000000000000000
    PCM Polarization Energy =               0.0000000000000000
    EFP Energy =                            0.0000000000000000
    Total Energy =                       -208.0421185076952497
    Molecular point group: c1
  Basis Set: CC-PVTZ
  Basis Set:

  -Total Gradient:
     Atom            X                  Y                   Z
    ------   -----------------  -----------------  -----------------
       1        0.000005943895    -0.000035157153    -0.000000115901
       2       -0.000044447610     0.000002641664     0.000000390596
       3        0.000327234335     0.000097584102    -0.000000106498
       4       -0.000005775658    -0.000003363869    -0.000000159480
       5       -0.000378169025    -0.000010406751    -0.000000032536
       6       -0.000105924880    -0.000059850385     0.000000023740
       7        0.000068484434    -0.000004073299    -0.000013380382
       8        0.000064151984     0.000016721197     0.000000000134
       9        0.000068502526    -0.000004095505     0.000013380326

  **** Optimization is complete! (in 3 steps) ****
    Final optimized geometry and variables:
    Molecular point group: c1

    Geometry (in Angstrom), charge = 0, multiplicity = 1:

    H            0.989479988175     1.112784483724    -0.000000208522
    C            0.719719806757     0.054635381864     0.000000594454
    N           -0.608182585299    -0.147760547436     0.000000076924
    O            1.541719033382    -0.805305112725    -0.000000544070
    C           -1.603858704988     0.893157449835    -0.000000005596
    H           -0.900986986619    -1.096895858435     0.000000761415
    H           -2.232923164609     0.838086506874    -0.879953665068
    H           -1.113253781336     1.856545352630     0.000000405461
    H           -2.232923652238     0.838085976929     0.879953261258

  Mulliken Charges: (a.u.)
   Center  Symbol    Alpha    Beta     Spin     Total
       1     H     0.47052  0.47052  0.00000  0.05896
       2     C     2.88317  2.88317  0.00000  0.23366
       3     N     3.59708  3.59708  0.00000 -0.19416
       4     O     4.20910  4.20910  0.00000 -0.41819
       5     C     3.07115  3.07115  0.00000 -0.14230
       6     H     0.40823  0.40823  0.00000  0.18354
       7     H     0.45305  0.45305  0.00000  0.09390
       8     H     0.45465  0.45465  0.00000  0.09070
       9     H     0.45305  0.45305  0.00000  0.09390

   Total alpha = 16.00000, Total beta = 16.00000, Total charge = -0.00000

*** Psi4 exiting successfully. Buy a developer a beer!
