  ==> Input File <==

--------------------------------------------------------------------------
set {
	reference rhf
	basis 6-31G*
}

set_num_threads( 4 )
memory 2 gb

molecule MOL {
0 1

H	 -3.261111	 -0.295142	 1.469456
C	 -3.306842	 -0.277400	 0.373456
C	 -2.660244	 0.921717	 -0.272021
O	 -3.838538	 -1.161155	 -0.216482
C	 -1.220012	 1.144545	 0.209990
H	 -2.705793	 0.797307	 -1.347733
H	 -3.263782	 1.790044	 -0.010477
C	 -0.252658	 0.041456	 -0.226725
H	 -0.873521	 2.100229	 -0.171974
H	 -1.211708	 1.231594	 1.295398
C	 1.180775	 0.282413	 0.250794
H	 -0.266029	 -0.034465	 -1.312038
H	 -0.597733	 -0.921000	 0.146291
C	 2.148627	 -0.814315	 -0.201312
H	 1.516199	 1.249228	 -0.115937
H	 1.192670	 0.346017	 1.338083
C	 3.580890	 -0.659131	 0.322722
H	 2.166869	 -0.852443	 -1.289387
H	 1.762857	 -1.776509	 0.128956
C	 4.625620	 -1.486342	 -0.428198
H	 3.595879	 -0.948271	 1.370635
H	 3.862944	 0.391378	 0.294474
H	 4.360769	 -2.540438	 -0.430267
H	 4.729850	 -1.169318	 -1.460480
H	 5.600554	 -1.392289	 0.040475

	symmetry c1
}
set optking {
	frozen_dihedral = ("
		20 17 14 18
	")
}

ee = optimize('scf')
oeprop('DIPOLE', 'QUADRUPOLE', 'MULLIKEN_CHARGES')
f=open( 'psi4out.xyz', 'w' )
f.write( "25  " )
f.write( str(ee) + "\n" )
f.write( MOL.save_string_xyz() )
f.close()
--------------------------------------------------------------------------

    Molecular point group: c1
  Charge       = 0
  Multiplicity = 1
  Basis Set: 6-31G*
  Basis Set:
  @DF-RHF Final Energy:  -387.12221150075027
    Total Energy =                       -387.1222115007501543
    Molecular point group: c1
  Basis Set: 6-31G*
  Basis Set:
  Basis Set: 6-31G*
  Basis Set:
  @DF-RHF Final Energy:  -387.12235040121573
    Total Energy =                       -387.1223504012158401
  Basis Set: 6-31G*
  Basis Set:
  Basis Set: 6-31G*
  Basis Set:
  @DF-RHF Final Energy:  -387.11843436880190
    Total Energy =                       -387.1184343688014451
  Basis Set: 6-31G*
  Basis Set:
  Basis Set: 6-31G*
  Basis Set:
  @DF-RHF Final Energy:  -387.12251716571546
    Total Energy =                       -387.1225171657157489
  Basis Set: 6-31G*
  Basis Set:
  @DF-RHF Final Energy:  -387.12258352360863
    Total Energy =                       -387.1225835236082276
  @DF-RHF Final Energy:  -387.12253878715131
    Total Energy =                       -387.1225387871511430
  Basis Set: 6-31G*
  Basis Set:
  @DF-RHF Final Energy:  -387.12261246529602
    Total Energy =                       -387.1226124652960152
  Basis Set: 6-31G*
  Basis Set:
  Basis Set: 6-31G*
  Basis Set:
  @DF-RHF Final Energy:  -387.12261102581977
    Total Energy =                       -387.1226110258198787
  Basis Set: 6-31G*
  Basis Set:
  Basis Set: 6-31G*
  Basis Set:
  @DF-RHF Final Energy:  -387.12261338477799
    Total Energy =                       -387.1226133847782194
  Basis Set: 6-31G*
  Basis Set:
  Charge       = 0
  Multiplicity = 1
  Basis Set: 6-31G*
  Basis Set:

    Orbital Energies (a.u.)
    -----------------------

    Doubly Occupied:

       1A    -20.562068     2A    -11.326219     3A    -11.235436
       4A    -11.234739     5A    -11.224032     6A    -11.220569
       7A    -11.217640     8A    -11.216577     9A    -11.210340
      10A     -1.402008    11A     -1.103953    12A     -1.069817
      13A     -1.015285    14A     -0.943562    15A     -0.868195
      16A     -0.814728    17A     -0.794490    18A     -0.787051
      19A     -0.664857    20A     -0.663852    21A     -0.638819
      22A     -0.614105    23A     -0.607929    24A     -0.591795
      25A     -0.566589    26A     -0.555833    27A     -0.536534
      28A     -0.520157    29A     -0.508361    30A     -0.499915
      31A     -0.486477    32A     -0.478154    33A     -0.466917
      34A     -0.463193    35A     -0.440600    36A     -0.409596

  @DF-RHF Final Energy:  -387.12261354787552

   => Energetics <=

    Nuclear Repulsion Energy =            435.3460789323319204
    One-Electron Energy =               -1387.0165999736934737
    Two-Electron Energy =                 564.5479074934853543
    DFT Exchange-Correlation Energy =       0.0000000000000000
    Empirical Dispersion Energy =           0.0000000000000000
    PCM Polarization Energy =               0.0000000000000000
    EFP Energy =                            0.0000000000000000
    Total Energy =                       -387.1226135478761989
    Molecular point group: c1
  Basis Set: 6-31G*
  Basis Set:

  -Total Gradient:
     Atom            X                  Y                   Z
    ------   -----------------  -----------------  -----------------
       1       -0.000010614383    -0.000005168762     0.000002519781
       2        0.000014738677    -0.000005367691    -0.000011511078
       3        0.000002821953     0.000007524102    -0.000002277120
       4       -0.000005279530    -0.000001693920     0.000011824583
       5       -0.000002762171    -0.000004437964     0.000005789744
       6        0.000003422501     0.000003467537     0.000000168775
       7        0.000001132641     0.000001370314     0.000005388395
       8       -0.000000604146    -0.000000109935    -0.000000968021
       9       -0.000004659662    -0.000001066257    -0.000006626910
      10        0.000000023881     0.000005210371     0.000000434235
      11       -0.000002297370     0.000004764367    -0.000003012367
      12        0.000003722885     0.000001650742    -0.000000069834
      13       -0.000003537325    -0.000001515031    -0.000002896278
      14       -0.000321312334     0.004651970904    -0.000783776810
      15       -0.000004417837     0.000001477288    -0.000005326708
      16        0.000003178403     0.000003432541     0.000000109800
      17       -0.000367519311    -0.003216395443     0.002122743015
      18        0.000366715912    -0.003209361103     0.000170987700
      19       -0.000004762778     0.000000338462    -0.000005983256
      20        0.000330158892     0.001772526682    -0.001507137055
      21       -0.000000822232    -0.000007521147    -0.000005950926
      22        0.000000676332     0.000002232446     0.000013707521
      23        0.000001745146    -0.000004004861    -0.000000059663
      24       -0.000002569555     0.000002090909     0.000004025656
      25        0.000002821417    -0.000001414548    -0.000002103178

  **** Optimization is complete! (in 10 steps) ****
    Final optimized geometry and variables:
    Molecular point group: c1

    Geometry (in Angstrom), charge = 0, multiplicity = 1:

    H           -3.311061113513    -0.056321446608     1.481011058857
    C           -3.346189962095    -0.029984946833     0.384696704441
    C           -2.686038227604     1.170028509389    -0.245384399225
    O           -3.883138036839    -0.903055069386    -0.216366423640
    C           -1.246522953448     1.375898746451     0.246444228592
    H           -2.726569568489     1.056331769456    -1.322532443243
    H           -3.283700055289     2.040777041579     0.021247393498
    C           -0.284755300898     0.271659127661    -0.199755092429
    H           -0.891013740024     2.334246448011    -0.120774485821
    H           -1.243033592226     1.448215289602     1.332793391396
    C            1.148620275443     0.498936687661     0.283059889562
    H           -0.295701889248     0.208104611072    -1.285898496043
    H           -0.636281366734    -0.692885051007     0.161796696539
    C            2.118462271295    -0.591072895060    -0.172742030085
    H            1.500130521652     1.464833832973    -0.075353839873
    H            1.158054871535     0.556218963761     1.370482064170
    C            3.543894706641    -0.404574525604     0.358193539233
    H            2.138583446213    -0.644140978234    -1.259748710574
    H            1.746108308233    -1.561055724534     0.153739218258
    C            4.578124395763    -1.238001865605    -0.397751841051
    H            3.571765117879    -0.649358686424     1.417207147500
    H            3.821425015460     0.645100039445     0.282665487513
    H            4.341221362730    -2.297636222497    -0.353771049748
    H            4.615752126012    -0.952107047755    -1.444787404179
    H            5.571832404035    -1.104750574520     0.018606899955

  Mulliken Charges: (a.u.)
   Center  Symbol    Alpha    Beta     Spin     Total
       1     H     0.43261  0.43261  0.00000  0.13478
       2     C     2.83085  2.83085  0.00000  0.33830
       3     C     3.20813  3.20813  0.00000 -0.41626
       4     O     4.23774  4.23774  0.00000 -0.47548
       5     C     3.16669  3.16669  0.00000 -0.33338
       6     H     0.39970  0.39970  0.00000  0.20061
       7     H     0.40660  0.40660  0.00000  0.18681
       8     C     3.15522  3.15522  0.00000 -0.31045
       9     H     0.41278  0.41278  0.00000  0.17443
      10     H     0.41958  0.41958  0.00000  0.16084
      11     C     3.15268  3.15268  0.00000 -0.30535
      12     H     0.41795  0.41795  0.00000  0.16411
      13     H     0.41823  0.41823  0.00000  0.16355
      14     C     3.15243  3.15243  0.00000 -0.30486
      15     H     0.42260  0.42260  0.00000  0.15480
      16     H     0.42314  0.42314  0.00000  0.15372
      17     C     3.15203  3.15203  0.00000 -0.30405
      18     H     0.42237  0.42237  0.00000  0.15526
      19     H     0.42195  0.42195  0.00000  0.15610
      20     C     3.23982  3.23982  0.00000 -0.47964
      21     H     0.42170  0.42170  0.00000  0.15661
      22     H     0.42356  0.42356  0.00000  0.15288
      23     H     0.42121  0.42121  0.00000  0.15758
      24     H     0.42123  0.42123  0.00000  0.15754
      25     H     0.41922  0.41922  0.00000  0.16155

   Total alpha = 36.00000, Total beta = 36.00000, Total charge = -0.00000
