                              Psi4 1.0.54 Driver

  ==> Input File <==

--------------------------------------------------------------------------
set {
	reference rhf
	basis cc-pvtz
}

set_num_threads( 4 )
memory 2 gb

molecule MOL {
0 1

H	 -3.144994	 -1.202467	 -0.018751
O	 -2.321472	 -0.864941	 -0.318626
C	 -2.021813	 0.336996	 0.342658
C	 -0.669613	 0.837286	 -0.127252
H	 -2.780861	 1.084746	 0.127159
H	 -2.006390	 0.184138	 1.420053
C	 0.490865	 -0.082543	 0.241244
H	 -0.708709	 0.967192	 -1.204587
H	 -0.507562	 1.822272	 0.303070
C	 0.259941	 -1.531963	 -0.176443
H	 0.656983	 -0.035366	 1.311401
H	 1.401025	 0.284637	 -0.228767
C	 1.422602	 -2.450496	 0.184530
H	 -0.647787	 -1.899625	 0.294255
H	 0.085942	 -1.576538	 -1.248556
H	 1.598731	 -2.454769	 1.254986
H	 1.227628	 -3.471665	 -0.122887
H	 2.339731	 -2.129372	 -0.298376

	symmetry c1
}
set optking {
	frozen_dihedral = ("
		10 7 4 8
	")
}

ee,wfn = optimize('scf', return_wfn=True)
oeprop( wfn, 'DIPOLE', 'QUADRUPOLE', 'MULLIKEN_CHARGES')
f=open( 'psi4out.xyz', 'w' )
f.write( "18  " )
f.write( str(ee) + "\n" )
f.write( MOL.save_string_xyz() )
f.close()
--------------------------------------------------------------------------

    Molecular point group: c1
  Charge       = 0
  Multiplicity = 1
  Basis Set: CC-PVTZ
  Basis Set:
  @DF-RHF Final Energy:  -271.27543148784525
    Total Energy =                       -271.2754314878450828
    Molecular point group: c1
  Basis Set: CC-PVTZ
  Basis Set:
  Basis Set: CC-PVTZ
  Basis Set:
  @DF-RHF Final Energy:  -271.28060149872533
    Total Energy =                       -271.2806014987252752
  Basis Set: CC-PVTZ
  Basis Set:
  Basis Set: CC-PVTZ
  Basis Set:
  @DF-RHF Final Energy:  -271.28260258041769
    Total Energy =                       -271.2826025804179153
  Basis Set: CC-PVTZ
  Basis Set:
  Basis Set: CC-PVTZ
  Basis Set:
  @DF-RHF Final Energy:  -271.28294046820542
    Total Energy =                       -271.2829404682054246
  Basis Set: CC-PVTZ
  Basis Set:
  Basis Set: CC-PVTZ
  Basis Set:
  @DF-RHF Final Energy:  -271.28305353351277
    Total Energy =                       -271.2830535335127706
  Basis Set: CC-PVTZ
  Basis Set:
  Basis Set: CC-PVTZ
  Basis Set:
  @DF-RHF Final Energy:  -271.28307388352334
    Total Energy =                       -271.2830738835231159
  Basis Set: CC-PVTZ
  Basis Set:
  Basis Set: CC-PVTZ
  Basis Set:
  @DF-RHF Final Energy:  -271.28307734038100
    Total Energy =                       -271.2830773403808280
  Basis Set: CC-PVTZ
  Basis Set:
  Charge       = 0
  Multiplicity = 1
  Basis Set: CC-PVTZ
  Basis Set:

    Orbital Energies (a.u.)
    -----------------------

    Doubly Occupied:

       1A    -20.546523     2A    -11.267181     3A    -11.211830
       4A    -11.208487     5A    -11.201463     6A    -11.199371
       7A     -1.364629     8A     -1.073586     9A     -1.007569
      10A     -0.913980    11A     -0.828581    12A     -0.772378
      13A     -0.705356    14A     -0.651424    15A     -0.618567
      16A     -0.577470    17A     -0.572551    18A     -0.555318
      19A     -0.531211    20A     -0.506333    21A     -0.486717
      22A     -0.464680    23A     -0.452795    24A     -0.448809
      25A     -0.428363

  @DF-RHF Final Energy:  -271.28307759507368

   => Energetics <=

    Nuclear Repulsion Energy =            254.7069554168320735
    One-Electron Energy =                -872.7897188771246419
    Two-Electron Energy =                 346.7996858652191463
    DFT Exchange-Correlation Energy =       0.0000000000000000
    Empirical Dispersion Energy =           0.0000000000000000
    PCM Polarization Energy =               0.0000000000000000
    EFP Energy =                            0.0000000000000000
    Total Energy =                       -271.2830775950733937
    Molecular point group: c1
  Basis Set: CC-PVTZ
  Basis Set:

  -Total Gradient:
     Atom            X                  Y                   Z
    ------   -----------------  -----------------  -----------------
       1       -0.000006428377     0.000001920846    -0.000000971847
       2        0.000009685047     0.000014280646    -0.000007490350
       3       -0.000007389443    -0.000035739350     0.000016001445
       4       -0.002162328701    -0.003103168565     0.000048299427
       5        0.000009516286     0.000010231682    -0.000011427845
       6        0.000001890596     0.000003514245     0.000019060461
       7        0.001770102495     0.001479058282    -0.002249435388
       8        0.001400904506     0.002275104515     0.000543565314
       9       -0.000012394691    -0.000003357197     0.000002174584
      10       -0.001020198703    -0.000645035711     0.001667272483
      11        0.000005799649     0.000006013316    -0.000008761250
      12       -0.000009690702     0.000017901082    -0.000001588636
      13       -0.000025519169     0.000002202013    -0.000022155753
      14        0.000004190508    -0.000014621354     0.000001659699
      15        0.000016985934    -0.000000852421     0.000000741193
      16       -0.000001891032     0.000002295197     0.000006860865
      17        0.000005983147    -0.000009513968    -0.000001285364
      18        0.000020782647    -0.000000233258    -0.000002519039

  **** Optimization is complete! (in 8 steps) ****
    Final optimized geometry and variables:
    Molecular point group: c1

    Geometry (in Angstrom), charge = 0, multiplicity = 1:

    H           -2.829567061513    -0.525927288701    -0.446416244246
    O           -1.979442269868    -0.179076870717    -0.644676426575
    C           -1.644384831539     0.826706124949     0.276414099182
    C           -0.273004390648     1.393231305858    -0.047101166666
    H           -2.376813996935     1.628262720234     0.228943899936
    H           -1.654883213952     0.434576714741     1.292024069661
    C            0.938374963685     0.552129509075     0.366600945037
    H           -0.229906799017     1.620770021618    -1.107690660307
    H           -0.195097691125     2.349822178963     0.463011805082
    C            0.979876937745    -0.886719899426    -0.145054564114
    H            0.991762563851     0.533255832408     1.453570060973
    H            1.832691802842     1.072308782424     0.034393908629
    C            2.271679090686    -1.599176361629     0.243435280054
    H            0.132141105040    -1.439040113595     0.239422688990
    H            0.872668381835    -0.891642733060    -1.225281056542
    H            2.393491185579    -1.632073924249     1.321652509278
    H            2.280230454189    -2.620615543558    -0.119851677294
    H            3.139703006766    -1.095002003167    -0.169143364983

  Mulliken Charges: (a.u.)
   Center  Symbol    Alpha    Beta     Spin     Total
       1     H     0.39606  0.39606  0.00000  0.20787
       2     O     4.19795  4.19795  0.00000 -0.39591
       3     C     2.98177  2.98177  0.00000  0.03645
       4     C     3.09644  3.09644  0.00000 -0.19288
       5     H     0.45954  0.45954  0.00000  0.08092
       6     H     0.47019  0.47019  0.00000  0.05963
       7     C     3.09713  3.09713  0.00000 -0.19426
       8     H     0.45017  0.45017  0.00000  0.09967
       9     H     0.44939  0.44939  0.00000  0.10122
      10     C     3.07660  3.07660  0.00000 -0.15319
      11     H     0.45665  0.45665  0.00000  0.08670
      12     H     0.45093  0.45093  0.00000  0.09815
      13     C     3.15099  3.15099  0.00000 -0.30198
      14     H     0.45136  0.45136  0.00000  0.09728
      15     H     0.45157  0.45157  0.00000  0.09685
      16     H     0.45772  0.45772  0.00000  0.08457
      17     H     0.44898  0.44898  0.00000  0.10204
      18     H     0.45656  0.45656  0.00000  0.08687

   Total alpha = 25.00000, Total beta = 25.00000, Total charge = -0.00000

*** Psi4 exiting successfully. Buy a developer a beer!
