  ==> Input File <==

--------------------------------------------------------------------------
set {
	reference rhf
	basis 6-31G*
}

set_num_threads( 4 )
memory 2 gb

molecule MOL {
0 1

H	 5.268524	 0.192471	 1.070992
C	 4.673736	 -0.214914	 0.259335
C	 3.185378	 -0.203514	 0.605509
H	 4.871837	 0.380453	 -0.627026
H	 5.025590	 -1.224632	 0.065769
C	 2.317601	 -0.778379	 -0.516234
H	 2.874655	 0.814325	 0.817774
H	 3.023650	 -0.778480	 1.515976
C	 2.395763	 0.012866	 -1.822025
H	 2.605996	 -1.805656	 -0.709040
H	 1.280411	 -0.796545	 -0.189203
C	 3.719698	 -0.123798	 -2.559427
H	 1.622539	 -0.331433	 -2.507118
H	 2.188493	 1.066858	 -1.650806
C	 4.036824	 0.905858	 -3.629919
O	 4.478143	 -1.015714	 -2.323519
C	 3.046352	 0.902085	 -4.803850
H	 5.038698	 0.695752	 -3.984627
H	 4.045789	 1.892042	 -3.169435
C	 3.450041	 1.881337	 -5.907802
H	 2.985736	 -0.101906	 -5.218511
H	 2.049256	 1.154340	 -4.452227
C	 2.472006	 1.886754	 -7.081822
H	 4.444632	 1.627466	 -6.266134
H	 3.520983	 2.883549	 -5.490749
H	 2.404370	 0.904405	 -7.540236
H	 1.473989	 2.171264	 -6.760688
H	 2.784994	 2.588385	 -7.848393

	symmetry c1
}
set optking {
	frozen_dihedral = ("
		10 6 3 2
	")
}

ee = optimize('scf')
oeprop('DIPOLE', 'QUADRUPOLE', 'MULLIKEN_CHARGES')
f=open( 'psi4out.xyz', 'w' )
f.write( "28  " )
f.write( str(ee) + "\n" )
f.write( MOL.save_string_xyz() )
f.close()
--------------------------------------------------------------------------

    Molecular point group: c1
  Charge       = 0
  Multiplicity = 1
  Basis Set: 6-31G*
  Basis Set:
  @DF-RHF Final Energy:  -426.15571741859048
    Total Energy =                       -426.1557174185902568
    Molecular point group: c1
  Basis Set: 6-31G*
  Basis Set:
  Basis Set: 6-31G*
  Basis Set:
  @DF-RHF Final Energy:  -426.16219907788320
    Total Energy =                       -426.1621990778830877
  Basis Set: 6-31G*
  Basis Set:
  Basis Set: 6-31G*
  Basis Set:
  @DF-RHF Final Energy:  -426.16425297394119
    Total Energy =                       -426.1642529739414158
  Basis Set: 6-31G*
  Basis Set:
  Basis Set: 6-31G*
  Basis Set:
  @DF-RHF Final Energy:  -426.16535428201087
    Total Energy =                       -426.1653542820109806
  Basis Set: 6-31G*
  Basis Set:
  @DF-RHF Final Energy:  -426.16276019215024
    Total Energy =                       -426.1627601921504720
  @DF-RHF Final Energy:  -426.16589282089842
    Total Energy =                       -426.1658928208983070
  @DF-RHF Final Energy:  -426.16601190826918
    Total Energy =                       -426.1660119082696383
  @DF-RHF Final Energy:  -426.16608168429423
    Total Energy =                       -426.1660816842938857
  Basis Set: 6-31G*
  Basis Set:
  @DF-RHF Final Energy:  -426.16610132872222
    Total Energy =                       -426.1661013287226751
  Basis Set: 6-31G*
  Basis Set:
  Basis Set: 6-31G*
  Basis Set:
  @DF-RHF Final Energy:  -426.16610522864880
    Total Energy =                       -426.1661052286490303
  Basis Set: 6-31G*
  Basis Set:
  Basis Set: 6-31G*
  Basis Set:
  @DF-RHF Final Energy:  -426.16610671248986
    Total Energy =                       -426.1661067124899773
  Basis Set: 6-31G*
  Basis Set:
  Charge       = 0
  Multiplicity = 1
  Basis Set: 6-31G*
  Basis Set:

    Orbital Energies (a.u.)
    -----------------------

    Doubly Occupied:

       1A    -20.546807     2A    -11.321757     3A    -11.232377
       4A    -11.229585     5A    -11.228707     6A    -11.226021
       7A    -11.217006     8A    -11.216347     9A    -11.216240
      10A    -11.205618    11A     -1.392390    12A     -1.095145
      13A     -1.077310    14A     -1.021382    15A     -0.988583
      16A     -0.911098    17A     -0.880009    18A     -0.808755
      19A     -0.792116    20A     -0.722914    21A     -0.667671
      22A     -0.648083    23A     -0.638925    24A     -0.625053
      25A     -0.599390    26A     -0.592893    27A     -0.580066
      28A     -0.557395    29A     -0.551348    30A     -0.537852
      31A     -0.517554    32A     -0.507692    33A     -0.506574
      34A     -0.484571    35A     -0.478160    36A     -0.474816
      37A     -0.469358    38A     -0.464612    39A     -0.453098
      40A     -0.391590

  @DF-RHF Final Energy:  -426.16610762261587

   => Energetics <=

    Nuclear Repulsion Energy =            540.9314547104887652
    One-Electron Energy =               -1650.0413888908733497
    Two-Electron Energy =                 682.9438265577682614
    DFT Exchange-Correlation Energy =       0.0000000000000000
    Empirical Dispersion Energy =           0.0000000000000000
    PCM Polarization Energy =               0.0000000000000000
    EFP Energy =                            0.0000000000000000
    Total Energy =                       -426.1661076226164369
    Molecular point group: c1
  Basis Set: 6-31G*
  Basis Set:

  -Total Gradient:
     Atom            X                  Y                   Z
    ------   -----------------  -----------------  -----------------
       1       -0.000023223086     0.000005897583     0.000001118294
       2        0.000024633198    -0.000134474862     0.000078017838
       3        0.000005172357     0.000238147262    -0.000170944968
       4       -0.000012775961    -0.000014726087     0.000030338962
       5       -0.000011042795     0.000007904520     0.000003632119
       6       -0.000115154474    -0.000193798545     0.000189745988
       7        0.000014423331     0.000026979872     0.000027978710
       8        0.000019157398     0.000000682910    -0.000023878650
       9        0.000002530802     0.000025815029     0.000022370179
      10        0.000130059328     0.000067029520    -0.000161929631
      11        0.000000728506     0.000011875905    -0.000008662438
      12       -0.000002537529    -0.000036787352    -0.000085702795
      13        0.000013332641    -0.000002214429     0.000009371161
      14       -0.000017327230     0.000014558995     0.000019901033
      15       -0.000055732443    -0.000044054718    -0.000035748807
      16        0.000023833440    -0.000041434048     0.000051907056
      17        0.000011525289     0.000064548954     0.000060848696
      18       -0.000005733183    -0.000018525795     0.000049784979
      19        0.000005980323     0.000027624038    -0.000002826342
      20       -0.000008910415    -0.000017636176    -0.000019010402
      21        0.000015386132     0.000019188891    -0.000004502279
      22       -0.000018352633    -0.000015924296    -0.000001602559
      23        0.000010284796     0.000013354700    -0.000018523223
      24       -0.000002802371     0.000005291738    -0.000006841524
      25       -0.000000687585    -0.000009853719     0.000005330217
      26       -0.000000459835     0.000000592163    -0.000002400227
      27        0.000006739844    -0.000003689156     0.000002790256
      28       -0.000009047849     0.000003627105    -0.000010561648

  **** Optimization is complete! (in 12 steps) ****
    Final optimized geometry and variables:
    Molecular point group: c1

    Geometry (in Angstrom), charge = 0, multiplicity = 1:

    H            1.707400839215     0.196259118004     4.169682435982
    C            1.269198611374    -0.229217110567     3.271989282493
    C           -0.237564210368    -0.419365753482     3.451700461424
    H            1.498882129701     0.445661977348     2.452705289544
    H            1.764491741976    -1.171807145472     3.067002996415
    C           -0.955695115861    -1.120392800929     2.292018507713
    H           -0.703720714967     0.548897781410     3.626590876305
    H           -0.409611767758    -1.002695861303     4.352818002580
    C           -0.911070528421    -0.367044773460     0.957152346169
    H           -0.543710579360    -2.111792316839     2.144396832030
    H           -1.996785438172    -1.250409717292     2.574025512174
    C            0.322769418061    -0.639191820385     0.107175688822
    H           -1.758452934099    -0.669719956638     0.343762464968
    H           -1.025377152989     0.703595146483     1.107800586150
    C            0.707286247399     0.406779486525    -0.923986997169
    O            0.946417430872    -1.651645476554     0.216102148857
    C           -0.348983898949     0.595806614899    -2.023323578723
    H            1.648669062285     0.094212947792    -1.359445662804
    H            0.871189757385     1.354895955589    -0.415256328838
    C            0.096533776631     1.595194728015    -3.092595659514
    H           -0.552998716964    -0.364670105247    -2.491493229536
    H           -1.285373443093     0.934709423770    -1.587337545567
    C           -0.945080047823     1.788504588544    -4.193801818016
    H            1.030750288861     1.255945685884    -3.533276809110
    H            0.309117378613     2.553035534400    -2.622773263060
    H           -1.154251878063     0.852824818856    -4.704145093837
    H           -1.881615990049     2.160399462021    -3.787982068262
    H           -0.601079130470     2.500697430722    -4.937029518146

  Mulliken Charges: (a.u.)
   Center  Symbol    Alpha    Beta     Spin     Total
       1     H     0.42049  0.42049  0.00000  0.15902
       2     C     3.24149  3.24149  0.00000 -0.48297
       3     C     3.15271  3.15271  0.00000 -0.30542
       4     H     0.42795  0.42795  0.00000  0.14410
       5     H     0.40946  0.40946  0.00000  0.18107
       6     C     3.15639  3.15639  0.00000 -0.31278
       7     H     0.42591  0.42591  0.00000  0.14818
       8     H     0.41939  0.41939  0.00000  0.16122
       9     C     3.21125  3.21125  0.00000 -0.42250
      10     H     0.40077  0.40077  0.00000  0.19845
      11     H     0.41996  0.41996  0.00000  0.16007
      12     C     2.73055  2.73055  0.00000  0.53890
      13     H     0.40209  0.40209  0.00000  0.19582
      14     H     0.41340  0.41340  0.00000  0.17321
      15     C     3.20144  3.20144  0.00000 -0.40288
      16     O     4.26807  4.26807  0.00000 -0.53613
      17     C     3.16417  3.16417  0.00000 -0.32834
      18     H     0.39981  0.39981  0.00000  0.20037
      19     H     0.41335  0.41335  0.00000  0.17329
      20     C     3.15175  3.15175  0.00000 -0.30350
      21     H     0.41331  0.41331  0.00000  0.17338
      22     H     0.41844  0.41844  0.00000  0.16312
      23     C     3.24034  3.24034  0.00000 -0.48068
      24     H     0.41836  0.41836  0.00000  0.16327
      25     H     0.42149  0.42149  0.00000  0.15702
      26     H     0.41955  0.41955  0.00000  0.16090
      27     H     0.42121  0.42121  0.00000  0.15759
      28     H     0.41690  0.41690  0.00000  0.16621

   Total alpha = 40.00000, Total beta = 40.00000, Total charge =  0.00000
