                              Psi4 1.0.54 Driver

  ==> Input File <==

--------------------------------------------------------------------------
set {
	reference rhf
	basis cc-pvtz
}

set_num_threads( 4 )
memory 2 gb

molecule MOL {
0 1

H	 -0.939693	 0.000281	 1.681345
O	 -0.046262	 -0.000157	 1.387678
C	 -0.000837	 0.000006	 -0.025491
C	 0.506894	 -1.352724	 -0.520950
C	 -1.392980	 0.292544	 -0.581823
C	 0.972398	 1.110044	 -0.398074
H	 0.586934	 -1.370599	 -1.601722
H	 -0.169470	 -2.149278	 -0.225817
H	 1.481486	 -1.564892	 -0.099503
H	 -1.382470	 0.334955	 -1.664818
H	 -2.095494	 -0.481392	 -0.287596
H	 -1.756921	 1.239475	 -0.203229
H	 1.075163	 1.188962	 -1.473945
H	 1.947610	 0.912024	 0.028497
H	 0.622266	 2.059799	 -0.013902

	symmetry c1
}
set optking {
	frozen_dihedral = ("
		4 3 2 1
	")
}

ee,wfn = optimize('scf', return_wfn=True)
oeprop( wfn, 'DIPOLE', 'QUADRUPOLE', 'MULLIKEN_CHARGES')
f=open( 'psi4out.xyz', 'w' )
f.write( "15  " )
f.write( str(ee) + "\n" )
f.write( MOL.save_string_xyz() )
f.close()
--------------------------------------------------------------------------

    Molecular point group: c1
  Charge       = 0
  Multiplicity = 1
  Basis Set: CC-PVTZ
  Basis Set:
  @DF-RHF Final Energy:  -232.24452057723880
    Total Energy =                       -232.2445205772385179
    Molecular point group: c1
  Basis Set: CC-PVTZ
  Basis Set:
  Basis Set: CC-PVTZ
  Basis Set:
  @DF-RHF Final Energy:  -232.24426998477639
    Total Energy =                       -232.2442699847764516
  Basis Set: CC-PVTZ
  Basis Set:
  Basis Set: CC-PVTZ
  Basis Set:
  @DF-RHF Final Energy:  -232.24487280969103
    Total Energy =                       -232.2448728096910600
  Basis Set: CC-PVTZ
  Basis Set:
  Basis Set: CC-PVTZ
  Basis Set:
  @DF-RHF Final Energy:  -232.24487918823681
    Total Energy =                       -232.2448791882367800
  Basis Set: CC-PVTZ
  Basis Set:
  Basis Set: CC-PVTZ
  Basis Set:
  @DF-RHF Final Energy:  -232.24488394863812
    Total Energy =                       -232.2448839486381189
  Basis Set: CC-PVTZ
  Basis Set:
  Charge       = 0
  Multiplicity = 1
  Basis Set: CC-PVTZ
  Basis Set:

    Orbital Energies (a.u.)
    -----------------------

    Doubly Occupied:

       1A    -20.540386     2A    -11.281114     3A    -11.216155
       4A    -11.203664     5A    -11.203216     6A     -1.362890
       7A     -1.065730     8A     -0.946381     9A     -0.936548
      10A     -0.778581    11A     -0.671955    12A     -0.624538
      13A     -0.622760    14A     -0.576444    15A     -0.557339
      16A     -0.534731    17A     -0.517046    18A     -0.511352
      19A     -0.503145    20A     -0.458505    21A     -0.426492

  @DF-RHF Final Energy:  -232.24488456360223

   => Energetics <=

    Nuclear Repulsion Energy =            200.5779543850630944
    One-Electron Energy =                -712.5677311448048386
    Two-Electron Energy =                 279.7448921961392898
    DFT Exchange-Correlation Energy =       0.0000000000000000
    Empirical Dispersion Energy =           0.0000000000000000
    PCM Polarization Energy =               0.0000000000000000
    EFP Energy =                            0.0000000000000000
    Total Energy =                       -232.2448845636024544
    Molecular point group: c1
  Basis Set: CC-PVTZ
  Basis Set:

  -Total Gradient:
     Atom            X                  Y                   Z
    ------   -----------------  -----------------  -----------------
       1       -0.000016724551     0.001035417548    -0.000001764041
       2        0.000214455661    -0.001207214981    -0.000035034802
       3       -0.000781734783    -0.000045051109     0.000056890044
       4        0.000579448384     0.000221792210    -0.000036472533
       5       -0.000012215065     0.000003903039     0.000017324273
       6        0.000009203295     0.000012397640     0.000009952473
       7       -0.000000031576    -0.000000717308     0.000001712298
       8       -0.000002188836    -0.000011259031    -0.000001359134
       9        0.000008064614    -0.000005956863     0.000000058320
      10        0.000000820303     0.000000938367    -0.000007673789
      11       -0.000002665886     0.000002150722    -0.000001186649
      12       -0.000002834337    -0.000006683951     0.000001402115
      13       -0.000002205713    -0.000000627601    -0.000004634084
      14        0.000005975775     0.000003834745     0.000001882110
      15        0.000002632713    -0.000002923426    -0.000001096602

  **** Optimization is complete! (in 6 steps) ****
    Final optimized geometry and variables:
    Molecular point group: c1

    Geometry (in Angstrom), charge = 0, multiplicity = 1:

    H           -0.727580044246    -0.002508621074     1.794340255530
    O            0.117996902539    -0.002520333228     1.387564474852
    C           -0.001335730139    -0.001878714733    -0.025153683689
    C            0.453644919475    -1.366288264389    -0.536361505128
    C           -1.446842585551     0.273851934808    -0.427845185329
    C            0.920782634593     1.096732366196    -0.543492441322
    H            0.431925797186    -1.408712356734    -1.619679240412
    H           -0.188083533986    -2.149839357176    -0.150229586254
    H            1.464370313977    -1.567502144577    -0.204478463874
    H           -1.553463331486     0.291610620587    -1.505341025320
    H           -2.107433793671    -0.496694509426    -0.042336388155
    H           -1.774905683345     1.232788604502    -0.041657153385
    H            0.926828009676     1.124361775959    -1.627292584813
    H            1.932725965537     0.924104052223    -0.199044915662
    H            0.601057512750     2.063608815489    -0.174520173189

  Mulliken Charges: (a.u.)
   Center  Symbol    Alpha    Beta     Spin     Total
       1     H     0.39204  0.39204  0.00000  0.21591
       2     O     4.21510  4.21510  0.00000 -0.43020
       3     C     2.88018  2.88018  0.00000  0.23963
       4     C     3.14055  3.14055  0.00000 -0.28110
       5     C     3.16262  3.16262  0.00000 -0.32523
       6     C     3.13962  3.13962  0.00000 -0.27923
       7     H     0.45926  0.45926  0.00000  0.08149
       8     H     0.45434  0.45434  0.00000  0.09132
       9     H     0.44817  0.44817  0.00000  0.10366
      10     H     0.45050  0.45050  0.00000  0.09899
      11     H     0.45067  0.45067  0.00000  0.09866
      12     H     0.44688  0.44688  0.00000  0.10625
      13     H     0.45963  0.45963  0.00000  0.08075
      14     H     0.44763  0.44763  0.00000  0.10474
      15     H     0.45281  0.45281  0.00000  0.09437

   Total alpha = 21.00000, Total beta = 21.00000, Total charge =  0.00000

*** Psi4 exiting successfully. Buy a developer a beer!
