  ==> Input File <==

--------------------------------------------------------------------------
set {
	reference rhf
	basis 6-31G*
}

set_num_threads( 4 )
memory 2 gb

molecule MOL {
0 1

H	 2.652868	 -0.199082	 0.621643
O	 2.064459	 -0.086912	 -0.111827
C	 0.745630	 0.005118	 0.354752
H	 0.739005	 0.037656	 1.444976
C	 -0.064159	 -1.194875	 -0.122754
C	 -0.046302	 1.193543	 -0.190431
H	 0.197384	 -1.376065	 -1.160690
H	 0.162855	 -2.097978	 0.431858
C	 -1.535782	 -0.752177	 0.006642
H	 0.154512	 1.271315	 -1.255561
H	 0.226209	 2.140461	 0.267302
C	 -1.509193	 0.801505	 0.065617
H	 -2.127797	 -1.112194	 -0.826847
H	 -1.986849	 -1.158408	 0.905561
H	 -2.183670	 1.254107	 -0.651985
H	 -1.821727	 1.144320	 1.047089

	symmetry c1
}
set optking {
	frozen_dihedral = ("
		1 2 3 6
	")
}

ee = optimize('scf')
oeprop('DIPOLE', 'QUADRUPOLE', 'MULLIKEN_CHARGES')
f=open( 'psi4out.xyz', 'w' )
f.write( "16  " )
f.write( str(ee) + "\n" )
f.write( MOL.save_string_xyz() )
f.close()
--------------------------------------------------------------------------

    Molecular point group: c1
  Charge       = 0
  Multiplicity = 1
  Basis Set: 6-31G*
  Basis Set:
  @DF-RHF Final Energy:  -270.01203715600070
    Total Energy =                       -270.0120371560008721
    Molecular point group: c1
  Basis Set: 6-31G*
  Basis Set:
  Basis Set: 6-31G*
  Basis Set:
  @DF-RHF Final Energy:  -270.01270172129523
    Total Energy =                       -270.0127017212950591
  Basis Set: 6-31G*
  Basis Set:
  Basis Set: 6-31G*
  Basis Set:
  @DF-RHF Final Energy:  -270.01275670845905
    Total Energy =                       -270.0127567084591647
  Basis Set: 6-31G*
  Basis Set:
  Basis Set: 6-31G*
  Basis Set:
  @DF-RHF Final Energy:  -270.01275966455347
    Total Energy =                       -270.0127596645536983
  Basis Set: 6-31G*
  Basis Set:
  Charge       = 0
  Multiplicity = 1
  Basis Set: 6-31G*
  Basis Set:

    Orbital Energies (a.u.)
    -----------------------

    Doubly Occupied:

       1A    -20.550966     2A    -11.269556     3A    -11.214177
       4A    -11.213648     5A    -11.207003     6A    -11.206934
       7A     -1.359513     8A     -1.111352     9A     -0.962815
      10A     -0.947573    11A     -0.779121    12A     -0.778080
      13A     -0.713709    14A     -0.651143    15A     -0.620104
      16A     -0.577250    17A     -0.547285    18A     -0.529093
      19A     -0.519025    20A     -0.478906    21A     -0.468228
      22A     -0.455156    23A     -0.452274    24A     -0.409119

  @DF-RHF Final Energy:  -270.01276045339262

   => Energetics <=

    Nuclear Repulsion Energy =            254.8318169133710569
    One-Electron Energy =                -871.6450955260256706
    Two-Electron Energy =                 346.8005181592621398
    DFT Exchange-Correlation Energy =       0.0000000000000000
    Empirical Dispersion Energy =           0.0000000000000000
    PCM Polarization Energy =               0.0000000000000000
    EFP Energy =                            0.0000000000000000
    Total Energy =                       -270.0127604533924455
    Molecular point group: c1
  Basis Set: 6-31G*
  Basis Set:

  -Total Gradient:
     Atom            X                  Y                   Z
    ------   -----------------  -----------------  -----------------
       1        0.000064305721     0.000715009485     0.000096745347
       2       -0.000021170868    -0.000820580910     0.000049145326
       3       -0.000189326832    -0.000122953099    -0.000526547063
       4        0.000014259173    -0.000007041291    -0.000005793436
       5        0.000093143005     0.000007218089    -0.000029312470
       6        0.000039837317     0.000278010423     0.000392260838
       7       -0.000015945037    -0.000026254464     0.000008047522
       8       -0.000020726219     0.000010372964     0.000007744418
       9       -0.000037704564     0.000012436606     0.000077639838
      10        0.000009837617    -0.000026948519     0.000012493948
      11        0.000030556480     0.000017118873     0.000007660246
      12        0.000040545587     0.000002957498    -0.000066674173
      13        0.000010725513    -0.000001265800    -0.000032242743
      14       -0.000028309952    -0.000020709833    -0.000027530244
      15       -0.000016465178    -0.000021557989     0.000024072411
      16        0.000026438230     0.000004187969     0.000012290234

  **** Optimization is complete! (in 5 steps) ****
    Final optimized geometry and variables:
    Molecular point group: c1

    Geometry (in Angstrom), charge = 0, multiplicity = 1:

    H            2.673357086120    -0.139712533481     0.590682596043
    O            2.067195500585    -0.027236171650    -0.124828838890
    C            0.744802180753    -0.004853329285     0.352704388540
    H            0.743192491223     0.028373607030     1.441408262393
    C           -0.077369579610    -1.202391488508    -0.123584185071
    C           -0.037945201867     1.189242595982    -0.184226673616
    H            0.184879345701    -1.386428604834    -1.160852898987
    H            0.138556591039    -2.110017678729     0.430416376482
    C           -1.545237974536    -0.748202787727     0.002218229476
    H            0.174855027679     1.276164263278    -1.246042185109
    H            0.246309919649     2.125530783528     0.283914640754
    C           -1.505550930975     0.806310046878     0.054646592842
    H           -2.139906173207    -1.106997847151    -0.830042505719
    H           -2.001056675503    -1.146742382700     0.902443659993
    H           -2.169021608435     1.259192401390    -0.672998876131
    H           -1.829036499043     1.155371991601     1.030575923076

  Mulliken Charges: (a.u.)
   Center  Symbol    Alpha    Beta     Spin     Total
       1     H     0.27970  0.27970  0.00000  0.44060
       2     O     4.37858  4.37858  0.00000 -0.75716
       3     C     2.91067  2.91067  0.00000  0.17867
       4     H     0.43114  0.43114  0.00000  0.13773
       5     C     3.16870  3.16870  0.00000 -0.33740
       6     C     3.16519  3.16519  0.00000 -0.33038
       7     H     0.41153  0.41153  0.00000  0.17694
       8     H     0.41859  0.41859  0.00000  0.16282
       9     C     3.16903  3.16903  0.00000 -0.33806
      10     H     0.41304  0.41304  0.00000  0.17392
      11     H     0.41713  0.41713  0.00000  0.16574
      12     C     3.17033  3.17033  0.00000 -0.34065
      13     H     0.41469  0.41469  0.00000  0.17061
      14     H     0.41821  0.41821  0.00000  0.16357
      15     H     0.41431  0.41431  0.00000  0.17137
      16     H     0.41916  0.41916  0.00000  0.16168

   Total alpha = 24.00000, Total beta = 24.00000, Total charge = -0.00000
