                              Psi4 1.0.54 Driver

  ==> Input File <==

--------------------------------------------------------------------------
set {
	reference rhf
	basis cc-pvtz
}

set_num_threads( 4 )
memory 2 gb

molecule MOL {
0 1

H	 3.646238	 -0.816179	 1.091016
O	 2.778708	 -1.083989	 0.827643
C	 2.029723	 0.005175	 0.678733
C	 0.626018	 -0.337582	 0.258241
O	 2.457143	 1.091651	 0.865079
C	 -0.267326	 0.883135	 0.076490
H	 0.706392	 -0.923279	 -0.649700
H	 0.224349	 -1.009392	 1.010416
C	 -1.726822	 0.642622	 0.463839
H	 -0.210803	 1.217591	 -0.953497
H	 0.129920	 1.693110	 0.675679
C	 -2.480891	 -0.340606	 -0.429852
H	 -2.243098	 1.597649	 0.438609
H	 -1.776542	 0.301208	 1.495542
C	 -3.955933	 -0.460128	 -0.060472
H	 -2.393755	 -0.020485	 -1.464726
H	 -2.024244	 -1.323637	 -0.374360
H	 -4.467673	 -1.160944	 -0.709827
H	 -4.458917	 0.497287	 -0.144505
H	 -4.076458	 -0.806900	 0.960497

	symmetry c1
}
set optking {
	frozen_dihedral = ("
		7 4 6 10
	")
}

ee,wfn = optimize('scf', return_wfn=True)
oeprop( wfn, 'DIPOLE', 'QUADRUPOLE', 'MULLIKEN_CHARGES')
f=open( 'psi4out.xyz', 'w' )
f.write( "20  " )
f.write( str(ee) + "\n" )
f.write( MOL.save_string_xyz() )
f.close()
--------------------------------------------------------------------------

    Molecular point group: c1
  Charge       = 0
  Multiplicity = 1
  Basis Set: CC-PVTZ
  Basis Set:
  @DF-RHF Final Energy:  -384.09257475733409
    Total Energy =                       -384.0925747573342619
    Molecular point group: c1
  Basis Set: CC-PVTZ
  Basis Set:
  Basis Set: CC-PVTZ
  Basis Set:
  @DF-RHF Final Energy:  -384.09280952730160
    Total Energy =                       -384.0928095273018812
  Basis Set: CC-PVTZ
  Basis Set:
  Basis Set: CC-PVTZ
  Basis Set:
  @DF-RHF Final Energy:  -384.09291769008456
    Total Energy =                       -384.0929176900843913
  Basis Set: CC-PVTZ
  Basis Set:
  Basis Set: CC-PVTZ
  Basis Set:
  @DF-RHF Final Energy:  -384.09287364798450
    Total Energy =                       -384.0928736479841064
  Basis Set: CC-PVTZ
  Basis Set:
  Basis Set: CC-PVTZ
  Basis Set:
  @DF-RHF Final Energy:  -384.09290360633628
    Total Energy =                       -384.0929036063363924
  Basis Set: CC-PVTZ
  Basis Set:
  Basis Set: CC-PVTZ
  Basis Set:
  @DF-RHF Final Energy:  -384.09292449097597
    Total Energy =                       -384.0929244909758040
  Basis Set: CC-PVTZ
  Basis Set:
  Charge       = 0
  Multiplicity = 1
  Basis Set: CC-PVTZ
  Basis Set:

    Orbital Energies (a.u.)
    -----------------------

    Doubly Occupied:

       1A    -20.603925     2A    -20.540903     3A    -11.373727
       4A    -11.239298     5A    -11.220097     6A    -11.218467
       7A    -11.217667     8A    -11.210409     9A     -1.477782
      10A     -1.369190    11A     -1.096909    12A     -1.041318
      13A     -0.962685    14A     -0.869985    15A     -0.817756
      16A     -0.777382    17A     -0.704265    18A     -0.692960
      19A     -0.667151    20A     -0.637680    21A     -0.603845
      22A     -0.595662    23A     -0.576169    24A     -0.552370
      25A     -0.547954    26A     -0.511013    27A     -0.497724
      28A     -0.484861    29A     -0.468380    30A     -0.467918
      31A     -0.458281    32A     -0.447468

  @DF-RHF Final Energy:  -384.09292446800231

   => Energetics <=

    Nuclear Repulsion Energy =            376.6601923320479841
    One-Electron Energy =               -1269.6038283626480734
    Two-Electron Energy =                 508.8507115625975530
    DFT Exchange-Correlation Energy =       0.0000000000000000
    Empirical Dispersion Energy =           0.0000000000000000
    PCM Polarization Energy =               0.0000000000000000
    EFP Energy =                            0.0000000000000000
    Total Energy =                       -384.0929244680025931
    Molecular point group: c1
  Basis Set: CC-PVTZ
  Basis Set:

  -Total Gradient:
     Atom            X                  Y                   Z
    ------   -----------------  -----------------  -----------------
       1       -0.000033873885     0.000002528721    -0.000011589244
       2        0.000013099854     0.000037069026     0.000029043496
       3        0.000074929288    -0.000053929234    -0.000058569665
       4       -0.004054691004    -0.002601239942     0.001203887787
       5       -0.000031041228    -0.000049660210     0.000015311303
       6        0.003933657324     0.002777734373     0.000630066882
       7        0.002771580690     0.001716114555    -0.001008292115
       8        0.000020247407    -0.000029551896    -0.000001460585
       9        0.000039895533     0.000013329023    -0.000002056482
      10       -0.002698757429    -0.001878235323    -0.000692995889
      11       -0.000017688636     0.000034427901    -0.000022161781
      12       -0.000021301544     0.000055562601    -0.000051430744
      13        0.000008894250    -0.000009221458    -0.000005808162
      14        0.000029852277     0.000015894342     0.000008598109
      15       -0.000007477364    -0.000024587961    -0.000003601515
      16       -0.000031577112    -0.000001369663    -0.000042769364
      17        0.000000252292     0.000001781827    -0.000004292003
      18        0.000000051402    -0.000011834144     0.000010503549
      19        0.000001266242     0.000003733640    -0.000010688214
      20        0.000002681647     0.000001453820     0.000018304638

  **** Optimization is complete! (in 7 steps) ****
    Final optimized geometry and variables:
    Molecular point group: c1

    Geometry (in Angstrom), charge = 0, multiplicity = 1:

    H            3.644229173179    -0.983750386695     0.650468393261
    O            2.753166061807    -1.209579828650     0.430000637447
    C            2.053523293234    -0.085068933970     0.303720922506
    C            0.615326432736    -0.368986957741    -0.048913293812
    O            2.544983233118     0.979073994402     0.457895893522
    C           -0.235952092303     0.889037088132    -0.234628574599
    H            0.653056078002    -0.970033237257    -0.949836949554
    H            0.225271322243    -1.010467038994     0.733723018039
    C           -1.706748387022     0.687682160479     0.134867220597
    H           -0.185722649995     1.204109468448    -1.271646965246
    H            0.178864915604     1.688959212594     0.361322728501
    C           -2.454978391515    -0.307318396085    -0.750113602769
    H           -2.207880677298     1.649580585968     0.078588805712
    H           -1.776833218312     0.370758430530     1.173131422345
    C           -3.927051520076    -0.444175772606    -0.375283904633
    H           -2.375391494575     0.008839503406    -1.787071946022
    H           -1.982975737056    -1.283646262537    -0.692705790075
    H           -4.432227576757    -1.154557020782    -1.019405710880
    H           -4.442521832243     0.506386409112    -0.462123385733
    H           -4.039740252526    -0.787332736980     0.647799993424

  Mulliken Charges: (a.u.)
   Center  Symbol    Alpha    Beta     Spin     Total
       1     H     0.38247  0.38247  0.00000  0.23507
       2     O     4.16012  4.16012  0.00000 -0.32024
       3     C     2.80585  2.80585  0.00000  0.38830
       4     C     3.11545  3.11545  0.00000 -0.23091
       5     O     4.19003  4.19003  0.00000 -0.38005
       6     C     3.09860  3.09860  0.00000 -0.19719
       7     H     0.43322  0.43322  0.00000  0.13357
       8     H     0.43585  0.43585  0.00000  0.12829
       9     C     3.09961  3.09961  0.00000 -0.19921
      10     H     0.45021  0.45021  0.00000  0.09957
      11     H     0.43115  0.43115  0.00000  0.13770
      12     C     3.08489  3.08489  0.00000 -0.16979
      13     H     0.44615  0.44615  0.00000  0.10770
      14     H     0.45378  0.45378  0.00000  0.09244
      15     C     3.14973  3.14973  0.00000 -0.29945
      16     H     0.45342  0.45342  0.00000  0.09315
      17     H     0.45322  0.45322  0.00000  0.09355
      18     H     0.44789  0.44789  0.00000  0.10423
      19     H     0.45356  0.45356  0.00000  0.09288
      20     H     0.45481  0.45481  0.00000  0.09038

   Total alpha = 32.00000, Total beta = 32.00000, Total charge =  0.00000

*** Psi4 exiting successfully. Buy a developer a beer!
