                              Psi4 1.0.54 Driver

  ==> Input File <==

--------------------------------------------------------------------------
set {
	reference rhf
	basis cc-pvtz
}

set_num_threads( 4 )
memory 2 gb

molecule MOL {
0 1

O	 -2.792574	 1.270362	 0.430279
C	 -2.651166	 0.111683	 0.230551
C	 -3.786614	 -0.875289	 0.200096
O	 -1.481217	 -0.452708	 0.001092
H	 -4.491898	 -0.565104	 -0.559140
H	 -3.444163	 -1.877513	 -0.002178
H	 -4.295230	 -0.843777	 1.154240
C	 -0.332055	 0.384012	 -0.000250
C	 0.892252	 -0.506059	 -0.000295
H	 -0.360822	 1.020205	 -0.874146
H	 -0.359817	 1.021310	 0.872861
C	 2.188199	 0.299473	 -0.001416
H	 0.857046	 -1.152781	 -0.871031
H	 0.857910	 -1.151798	 0.871202
C	 3.437151	 -0.577593	 -0.000991
H	 2.209565	 0.950707	 -0.871712
H	 2.210062	 0.952234	 0.867721
C	 4.732399	 0.226982	 -0.000914
H	 3.417321	 -1.229122	 -0.869998
H	 3.416993	 -1.228707	 0.868337
H	 4.797903	 0.863451	 -0.876963
H	 5.598517	 -0.424436	 -0.000420
H	 4.797415	 0.864118	 0.874691

	symmetry c1
}
set optking {
	frozen_dihedral = ("
		2 4 8 10
	")
}

ee,wfn = optimize('scf', return_wfn=True)
oeprop( wfn, 'DIPOLE', 'QUADRUPOLE', 'MULLIKEN_CHARGES')
f=open( 'psi4out.xyz', 'w' )
f.write( "23  " )
f.write( str(ee) + "\n" )
f.write( MOL.save_string_xyz() )
f.close()
--------------------------------------------------------------------------

    Molecular point group: c1
  Charge       = 0
  Multiplicity = 1
  Basis Set: CC-PVTZ
  Basis Set:
  @DF-RHF Final Energy:  -423.13458686750869
    Total Energy =                       -423.1345868675086876
    Molecular point group: c1
  Basis Set: CC-PVTZ
  Basis Set:
  Basis Set: CC-PVTZ
  Basis Set:
  @DF-RHF Final Energy:  -423.13445237279984
    Total Energy =                       -423.1344523727999558
  Basis Set: CC-PVTZ
  Basis Set:
  Basis Set: CC-PVTZ
  Basis Set:
  @DF-RHF Final Energy:  -423.13452274134391
    Total Energy =                       -423.1345227413439716
  Basis Set: CC-PVTZ
  Basis Set:
  Basis Set: CC-PVTZ
  Basis Set:
  @DF-RHF Final Energy:  -423.13461997007897
    Total Energy =                       -423.1346199700789157
  Basis Set: CC-PVTZ
  Basis Set:
  Charge       = 0
  Multiplicity = 1
  Basis Set: CC-PVTZ
  Basis Set:

    Orbital Energies (a.u.)
    -----------------------

    Doubly Occupied:

       1A    -20.595884     2A    -20.529443     3A    -11.366515
       4A    -11.279388     5A    -11.230619     6A    -11.222256
       7A    -11.221328     8A    -11.219471     9A    -11.210900
      10A     -1.470927    11A     -1.364052    12A     -1.095310
      13A     -1.043289    14A     -1.004218    15A     -0.931789
      16A     -0.842486    17A     -0.802929    18A     -0.775991
      19A     -0.695617    20A     -0.687657    21A     -0.670894
      22A     -0.648234    23A     -0.607123    24A     -0.589147
      25A     -0.584183    26A     -0.567590    27A     -0.559241
      28A     -0.538465    29A     -0.524276    30A     -0.505598
      31A     -0.491793    32A     -0.478260    33A     -0.471417
      34A     -0.467493    35A     -0.454589    36A     -0.438606

  @DF-RHF Final Energy:  -423.13462109955367

   => Energetics <=

    Nuclear Repulsion Energy =            450.4783237234998978
    One-Electron Energy =               -1468.8519306840134959
    Two-Electron Energy =                 595.2389858609601561
    DFT Exchange-Correlation Energy =       0.0000000000000000
    Empirical Dispersion Energy =           0.0000000000000000
    PCM Polarization Energy =               0.0000000000000000
    EFP Energy =                            0.0000000000000000
    Total Energy =                       -423.1346210995534420
    Molecular point group: c1
  Basis Set: CC-PVTZ
  Basis Set:

  -Total Gradient:
     Atom            X                  Y                   Z
    ------   -----------------  -----------------  -----------------
       1       -0.000004509522     0.000034450102     0.000007990019
       2        0.000121267483    -0.000234535680     0.000838379038
       3        0.000002541653     0.000020458506     0.000009969632
       4       -0.000051045715     0.000034045201    -0.001359234804
       5        0.000002307661    -0.000004674963     0.000001020796
       6        0.000003773729     0.000020689007     0.000000301498
       7       -0.000001772149     0.000000719953    -0.000005346290
       8       -0.000534853055     0.000815451000     0.001029780795
       9       -0.000020454964     0.000000881097    -0.000005274704
      10        0.000491193418    -0.000693393472    -0.000514510793
      11       -0.000007049435     0.000001468067     0.000000893808
      12        0.000000577634     0.000003769127    -0.000002660125
      13        0.000003557566    -0.000000269809    -0.000000407518
      14       -0.000005756543     0.000001792140    -0.000000595415
      15        0.000000672569    -0.000003143940     0.000000531524
      16        0.000001918905    -0.000001407317    -0.000000616125
      17        0.000001652041    -0.000000422397    -0.000001813769
      18       -0.000000708931     0.000002648833     0.000001225585
      19       -0.000001755281     0.000002427851     0.000000426245
      20       -0.000001868410    -0.000000482129    -0.000000419127
      21        0.000000249719    -0.000000625127     0.000000391103
      22       -0.000000692579     0.000000381592     0.000000728016
      23        0.000000754213    -0.000000227644    -0.000000759387

  **** Optimization is complete! (in 5 steps) ****
    Final optimized geometry and variables:
    Molecular point group: c1

    Geometry (in Angstrom), charge = 0, multiplicity = 1:

    O           -2.809199703913     1.279564643064     0.313031226974
    C           -2.659595803718     0.120138611237     0.123679002241
    C           -3.788620540269    -0.874657801306     0.103664068478
    O           -1.485557766056    -0.440300213323    -0.094397818683
    H           -4.494756974018    -0.578244601210    -0.660311602015
    H           -3.439332437177    -1.877005002703    -0.085922694027
    H           -4.298823241239    -0.834756658637     1.056730589095
    C           -0.335553486788     0.395042834152    -0.080108793551
    C            0.887874459085    -0.496958342931    -0.087744097275
    H           -0.357776568977     1.033112539779    -0.954055007304
    H           -0.363874694428     1.025736427615     0.796200224423
    C            2.184809728038     0.307013995504    -0.092182601843
    H            0.848702596322    -1.142060907116    -0.959545050190
    H            0.855848840034    -1.144328802914     0.782752190371
    C            3.432619563017    -0.571546426822    -0.097244467673
    H            2.204062921980     0.959370050888    -0.961808462810
    H            2.210374494517     0.958716454820     0.777717258519
    C            4.728767498659     0.231554627588    -0.101709387213
    H            3.408641834459    -1.222524760160    -0.966650530580
    H            3.415138904501    -1.223237919093     0.771768432344
    H            4.791686738383     0.868570408027    -0.977625551652
    H            5.594034574667    -0.421047127682    -0.105041124495
    H            4.798014112885     0.868046656539     0.774093013872

  Mulliken Charges: (a.u.)
   Center  Symbol    Alpha    Beta     Spin     Total
       1     O     4.20261  4.20261  0.00000 -0.40522
       2     C     2.81453  2.81453  0.00000  0.37094
       3     C     3.14046  3.14046  0.00000 -0.28092
       4     O     4.14504  4.14504  0.00000 -0.29008
       5     H     0.44208  0.44208  0.00000  0.11584
       6     H     0.44188  0.44188  0.00000  0.11624
       7     H     0.44216  0.44216  0.00000  0.11568
       8     C     2.97925  2.97925  0.00000  0.04150
       9     C     3.08112  3.08112  0.00000 -0.16224
      10     H     0.45566  0.45566  0.00000  0.08869
      11     H     0.45152  0.45152  0.00000  0.09697
      12     C     3.09779  3.09779  0.00000 -0.19558
      13     H     0.45067  0.45067  0.00000  0.09866
      14     H     0.45106  0.45106  0.00000  0.09787
      15     C     3.08500  3.08500  0.00000 -0.16999
      16     H     0.45316  0.45316  0.00000  0.09368
      17     H     0.45267  0.45267  0.00000  0.09466
      18     C     3.14957  3.14957  0.00000 -0.29914
      19     H     0.45351  0.45351  0.00000  0.09298
      20     H     0.45346  0.45346  0.00000  0.09308
      21     H     0.45462  0.45462  0.00000  0.09076
      22     H     0.44769  0.44769  0.00000  0.10461
      23     H     0.45449  0.45449  0.00000  0.09103

   Total alpha = 36.00000, Total beta = 36.00000, Total charge =  0.00000

*** Psi4 exiting successfully. Buy a developer a beer!
