  ==> Input File <==

--------------------------------------------------------------------------
set {
	reference rhf
	basis 6-31G*
}

set_num_threads( 1 )
memory 2 gb

molecule MOL {
0 1

H	 1.312100	 -0.289349	 -1.276683
O	 1.654024	 -0.625927	 -0.460906
C	 1.135793	 0.118896	 0.612333
C	 0.031547	 1.023609	 0.088541
H	 1.915668	 0.729681	 1.063582
H	 0.754543	 -0.542641	 1.387006
C	 -1.134819	 0.293262	 -0.585751
H	 0.474374	 1.714721	 -0.623187
H	 -0.338529	 1.620940	 0.920081
C	 -1.917817	 -0.639439	 0.339494
H	 -0.758119	 -0.268455	 -1.433105
H	 -1.813832	 1.041889	 -0.986690
H	 -2.777680	 -1.057197	 -0.174994
H	 -1.310268	 -1.471279	 0.680599
H	 -2.283753	 -0.111424	 1.216626

	symmetry c1
}
set optking {
	frozen_dihedral = ("
		8 4 7 11,
		2 3 4 8
	")
}

ee = energy('scf')
oeprop('DIPOLE', 'QUADRUPOLE', 'MULLIKEN_CHARGES')
f=open( 'psi4out.xyz', 'w' )
f.write( "15  " )
f.write( str(ee) + "\n" )
f.write( MOL.save_string_xyz() )
f.close()
--------------------------------------------------------------------------

    Molecular point group: c1

    Geometry (in Angstrom), charge = 0, multiplicity = 1:

       Center              X                  Y                   Z               Mass
    ------------   -----------------  -----------------  -----------------  -----------------
           H          1.326016443331    -0.301794384296    -1.261327067391     1.007825032070
           O          1.667940443331    -0.638372384296    -0.445550067391    15.994914619560
           C          1.149709443331     0.106450615704     0.627688932609    12.000000000000
           C          0.045463443331     1.011163615704     0.103896932609    12.000000000000
           H          1.929584443331     0.717235615704     1.078937932609     1.007825032070
           H          0.768459443331    -0.555086384296     1.402361932609     1.007825032070
           C         -1.120902556669     0.280816615704    -0.570395067391    12.000000000000
           H          0.488290443331     1.702275615704    -0.607831067391     1.007825032070
           H         -0.324612556669     1.608494615704     0.935436932609     1.007825032070
           C         -1.903900556669    -0.651884384296     0.354849932609    12.000000000000
           H         -0.744202556669    -0.280900384296    -1.417749067391     1.007825032070
           H         -1.799915556669     1.029443615704    -0.971334067391     1.007825032070
           H         -2.763763556669    -1.069642384296    -0.159638067391     1.007825032070
           H         -1.296351556669    -1.483724384296     0.695954932609     1.007825032070
           H         -2.269836556669    -0.123869384296     1.231981932609     1.007825032070

  Charge       = 0
  Multiplicity = 1
  Basis Set: 6-31G*
  Basis Set:

    Orbital Energies (a.u.)
    -----------------------

    Doubly Occupied:

       1A    -20.549392     2A    -11.267523     3A    -11.225752
       4A    -11.223495     5A    -11.213782     6A     -1.359289
       7A     -1.074183     8A     -0.975762     9A     -0.883680
      10A     -0.792291    11A     -0.669212    12A     -0.652870
      13A     -0.638395    14A     -0.586634    15A     -0.573108
      16A     -0.550605    17A     -0.503685    18A     -0.482823
      19A     -0.481600    20A     -0.455537    21A     -0.431296

  @DF-RHF Final Energy:  -232.13881512347112

   => Energetics <=

    Nuclear Repulsion Energy =            193.0690871786142395
    One-Electron Energy =                -697.2339734973505756
    Two-Electron Energy =                 272.0260711952654447
    DFT Exchange-Correlation Energy =       0.0000000000000000
    Empirical Dispersion Energy =           0.0000000000000000
    PCM Polarization Energy =               0.0000000000000000
    EFP Energy =                            0.0000000000000000
    Total Energy =                       -232.1388151234708630

  Mulliken Charges: (a.u.)
   Center  Symbol    Alpha    Beta     Spin     Total
       1     H     0.27703  0.27703  0.00000  0.44595
       2     O     4.37712  4.37712  0.00000 -0.75425
       3     C     2.97749  2.97749  0.00000  0.04503
       4     C     3.19280  3.19280  0.00000 -0.38560
       5     H     0.42431  0.42431  0.00000  0.15138
       6     H     0.42193  0.42193  0.00000  0.15614
       7     C     3.15307  3.15307  0.00000 -0.30613
       8     H     0.41918  0.41918  0.00000  0.16164
       9     H     0.41854  0.41854  0.00000  0.16292
      10     C     3.24346  3.24346  0.00000 -0.48692
      11     H     0.42529  0.42529  0.00000  0.14943
      12     H     0.41755  0.41755  0.00000  0.16491
      13     H     0.41714  0.41714  0.00000  0.16573
      14     H     0.41350  0.41350  0.00000  0.17301
      15     H     0.42161  0.42161  0.00000  0.15679

   Total alpha = 21.00000, Total beta = 21.00000, Total charge =  0.00000
