  ==> Input File <==

--------------------------------------------------------------------------
set {
	reference rhf
	basis 6-31G*
}

set_num_threads( 4 )
memory 2 gb

molecule MOL {
0 1

O	 0.074228	 1.262779	 -0.000085
C	 0.028650	 0.075053	 -0.000277
C	 -1.233602	 -0.752807	 0.000328
O	 1.109162	 -0.694619	 -0.000298
C	 -2.501530	 0.091881	 0.000126
H	 -1.193807	 -1.406641	 -0.865785
H	 -1.193516	 -1.405779	 0.867015
H	 -2.545121	 0.729328	 -0.874513
H	 -3.377167	 -0.548497	 0.000561
H	 -2.544818	 0.730135	 0.874258
C	 0.998302	 -1.957833	 -0.630845
H	 0.238197	 -2.556733	 -0.150251
H	 1.964780	 -2.425622	 -0.526176
H	 0.750131	 -1.840340	 -1.675871

	symmetry c1
}
set optking {
	frozen_dihedral = ("
		11 4 2 3
	")
}

ee = optimize('scf')
oeprop('DIPOLE', 'QUADRUPOLE', 'MULLIKEN_CHARGES')
f=open( 'psi4out.xyz', 'w' )
f.write( "14  " )
f.write( str(ee) + "\n" )
f.write( MOL.save_string_xyz() )
f.close()
--------------------------------------------------------------------------

    Molecular point group: c1
  Charge       = 0
  Multiplicity = 1
  Basis Set: 6-31G*
  Basis Set:
  @DF-RHF Final Energy:  -305.84635656398888
    Total Energy =                       -305.8463565639891613
    Molecular point group: c1
  Basis Set: 6-31G*
  Basis Set:
  Basis Set: 6-31G*
  Basis Set:
  @DF-RHF Final Energy:  -305.84685475179589
    Total Energy =                       -305.8468547517957745
  Basis Set: 6-31G*
  Basis Set:
  Basis Set: 6-31G*
  Basis Set:
  @DF-RHF Final Energy:  -305.85334200633702
    Total Energy =                       -305.8533420063369590
  Basis Set: 6-31G*
  Basis Set:
  Basis Set: 6-31G*
  Basis Set:
  @DF-RHF Final Energy:  -305.85524632295323
    Total Energy =                       -305.8552463229530076
  Basis Set: 6-31G*
  Basis Set:
  @DF-RHF Final Energy:  -305.85478867614563
    Total Energy =                       -305.8547886761456880
  @DF-RHF Final Energy:  -305.85508143924977
    Total Energy =                       -305.8550814392497159
  Basis Set: 6-31G*
  Basis Set:
  @DF-RHF Final Energy:  -305.85558288680033
    Total Energy =                       -305.8555828868002209
  Basis Set: 6-31G*
  Basis Set:
  Basis Set: 6-31G*
  Basis Set:
  @DF-RHF Final Energy:  -305.85560466848176
    Total Energy =                       -305.8556046684818739
  Basis Set: 6-31G*
  Basis Set:
  Basis Set: 6-31G*
  Basis Set:
  @DF-RHF Final Energy:  -305.85560839572292
    Total Energy =                       -305.8556083957229816
  Basis Set: 6-31G*
  Basis Set:
  Charge       = 0
  Multiplicity = 1
  Basis Set: 6-31G*
  Basis Set:

    Orbital Energies (a.u.)
    -----------------------

    Doubly Occupied:

       1A    -20.600082     2A    -20.543880     3A    -11.374670
       4A    -11.296942     5A    -11.248411     6A    -11.221020
       7A     -1.463097     8A     -1.366970     9A     -1.063345
      10A     -0.985767    11A     -0.899256    12A     -0.768449
      13A     -0.704943    14A     -0.686234    15A     -0.673295
      16A     -0.627166    17A     -0.606647    18A     -0.559985
      19A     -0.550829    20A     -0.526207    21A     -0.511732
      22A     -0.498999    23A     -0.450558    24A     -0.433822

  @DF-RHF Final Energy:  -305.85560875962494

   => Energetics <=

    Nuclear Repulsion Energy =            247.4393126891567647
    One-Electron Energy =                -907.2652315834338879
    Two-Electron Energy =                 353.9703101346522089
    DFT Exchange-Correlation Energy =       0.0000000000000000
    Empirical Dispersion Energy =           0.0000000000000000
    PCM Polarization Energy =               0.0000000000000000
    EFP Energy =                            0.0000000000000000
    Total Energy =                       -305.8556087596249426
    Molecular point group: c1
  Basis Set: 6-31G*
  Basis Set:

  -Total Gradient:
     Atom            X                  Y                   Z
    ------   -----------------  -----------------  -----------------
       1        0.000001647184     0.000008183106    -0.000006707479
       2        0.000421736149     0.000433308944    -0.004391004547
       3       -0.000019828724     0.000045135649     0.002157617965
       4       -0.001086127112    -0.001449830929     0.004362456968
       5        0.000006741326     0.000006035774    -0.000015262585
       6       -0.000000996612     0.000002415770    -0.000009205319
       7       -0.000004066882    -0.000004117226    -0.000003494671
       8       -0.000003133582     0.000004031190     0.000000288613
       9        0.000004683160    -0.000003797575     0.000000393812
      10        0.000004207533    -0.000003627883     0.000001628174
      11        0.000676983380     0.000965252248    -0.002095698449
      12       -0.000001068599    -0.000000998901     0.000000732885
      13       -0.000000623207    -0.000002024180    -0.000001776265
      14       -0.000000154018     0.000000034011     0.000000030900

  **** Optimization is complete! (in 10 steps) ****
    Final optimized geometry and variables:
    Molecular point group: c1

    Geometry (in Angstrom), charge = 0, multiplicity = 1:

    O            0.301678479155     1.550412009132     0.110266441548
    C            0.228556666900     0.370576381992     0.062605775130
    C           -1.087265707996    -0.383654103247     0.069861268468
    O            1.351138308738    -0.358092974629     0.088861962094
    C           -2.290289642212     0.546047915263     0.178687088440
    H           -1.159393164226    -0.988684305934    -0.829588183307
    H           -1.062077992539    -1.082698981098     0.901597834716
    H           -2.325101578765     1.234353564568    -0.656230294168
    H           -3.207626794438    -0.032892737495     0.186515277805
    H           -2.246070992644     1.133185805553     1.087102414762
    C            1.417733163761    -1.645814995585    -0.477756949384
    H            0.800075270335    -2.356596083217     0.056954093212
    H            2.450081775626    -1.949010968998    -0.400103434667
    H            1.132593580427    -1.630172211625    -1.522848773692

  Mulliken Charges: (a.u.)
   Center  Symbol    Alpha    Beta     Spin     Total
       1     O     4.26315  4.26315  0.00000 -0.52630
       2     C     2.60437  2.60437  0.00000  0.79125
       3     C     3.22815  3.22815  0.00000 -0.45631
       4     O     4.30292  4.30292  0.00000 -0.60585
       5     C     3.23508  3.23508  0.00000 -0.47016
       6     H     0.40529  0.40529  0.00000  0.18942
       7     H     0.40144  0.40144  0.00000  0.19712
       8     H     0.40757  0.40757  0.00000  0.18485
       9     H     0.41885  0.41885  0.00000  0.16229
      10     H     0.40692  0.40692  0.00000  0.18616
      11     C     3.09467  3.09467  0.00000 -0.18933
      12     H     0.41759  0.41759  0.00000  0.16482
      13     H     0.39827  0.39827  0.00000  0.20347
      14     H     0.41572  0.41572  0.00000  0.16855

   Total alpha = 24.00000, Total beta = 24.00000, Total charge =  0.00000
