  ==> Input File <==

--------------------------------------------------------------------------
set {
	reference rhf
	basis cc-pvtz
}

set_num_threads( 4 )
memory 2 gb

molecule MOL {
0 1

H	 2.612799	 0.507749	 0.376498
O	 2.063695	 -0.083403	 -0.105237
C	 0.742924	 0.005675	 0.350750
H	 0.731380	 0.039219	 1.440080
C	 -0.064076	 -1.193495	 -0.124425
C	 -0.047832	 1.190568	 -0.194462
H	 0.194729	 -1.376165	 -1.161308
H	 0.163013	 -2.094508	 0.429933
C	 -1.533112	 -0.752002	 0.006102
H	 0.148003	 1.266545	 -1.259275
H	 0.226235	 2.136493	 0.259722
C	 -1.506634	 0.799189	 0.067162
H	 -2.124360	 -1.110499	 -0.826089
H	 -1.983103	 -1.158030	 0.903403
H	 -2.183808	 1.252169	 -0.644677
H	 -1.813926	 1.138698	 1.049457

	symmetry c1
}
set optking {
	frozen_dihedral = ("
		1 2 3 6
	")
}

ee = optimize('scf')
oeprop('DIPOLE', 'QUADRUPOLE', 'MULLIKEN_CHARGES')
f=open( 'psi4out.xyz', 'w' )
f.write( "16  " )
f.write( str(ee) + "\n" )
f.write( MOL.save_string_xyz() )
f.close()
--------------------------------------------------------------------------

    Molecular point group: c1
  Charge       = 0
  Multiplicity = 1
  Basis Set: CC-PVTZ
  Basis Set:
  @DF-RHF Final Energy:  -270.11672097074415
    Total Energy =                       -270.1167209707440406
    Molecular point group: c1
  Basis Set: CC-PVTZ
  Basis Set:
  Basis Set: CC-PVTZ
  Basis Set:
  @DF-RHF Final Energy:  -270.11672940073282
    Total Energy =                       -270.1167294007328792
  Basis Set: CC-PVTZ
  Basis Set:
  Charge       = 0
  Multiplicity = 1
  Basis Set: CC-PVTZ
  Basis Set:

    Orbital Energies (a.u.)
    -----------------------

    Doubly Occupied:

       1A    -20.545890     2A    -11.267610     3A    -11.214001
       4A    -11.212677     5A    -11.208405     6A    -11.206629
       7A     -1.365765     8A     -1.114289     9A     -0.965621
      10A     -0.949177    11A     -0.787203    12A     -0.776876
      13A     -0.711602    14A     -0.656124    15A     -0.620077
      16A     -0.585580    17A     -0.564178    18A     -0.525931
      19A     -0.512695    20A     -0.480615    21A     -0.470192
      22A     -0.456511    23A     -0.451239    24A     -0.418700

  @DF-RHF Final Energy:  -270.11673033228664

   => Energetics <=

    Nuclear Repulsion Energy =            255.5265426436685061
    One-Electron Energy =                -873.1513669429291440
    Two-Electron Energy =                 347.5080939669738314
    DFT Exchange-Correlation Energy =       0.0000000000000000
    Empirical Dispersion Energy =           0.0000000000000000
    PCM Polarization Energy =               0.0000000000000000
    EFP Energy =                            0.0000000000000000
    Total Energy =                       -270.1167303322867497
    Molecular point group: c1
  Basis Set: CC-PVTZ
  Basis Set:

  -Total Gradient:
     Atom            X                  Y                   Z
    ------   -----------------  -----------------  -----------------
       1        0.000161247324    -0.000729336967     0.000610610522
       2       -0.000372586674     0.000764061354    -0.000961911891
       3        0.000361575482     0.000296671625     0.000822840737
       4       -0.000011435152    -0.000008225172     0.000002190051
       5       -0.000019784849    -0.000026141371     0.000044306435
       6       -0.000134492233    -0.000305742034    -0.000495500316
       7        0.000002000118    -0.000001438083    -0.000019469079
       8        0.000007495567    -0.000014466253    -0.000009628022
       9        0.000030087010     0.000011310334    -0.000042705329
      10       -0.000005344327     0.000013235489     0.000021846033
      11       -0.000006109969    -0.000005506064    -0.000012598174
      12       -0.000040048414    -0.000000546224     0.000024167883
      13        0.000004329931    -0.000007875189     0.000018976947
      14        0.000016677566    -0.000004108912     0.000017441226
      15        0.000014023994     0.000010606721    -0.000010632173
      16       -0.000007635375     0.000007500747    -0.000009934850

  **** Optimization is complete! (in 3 steps) ****
    Final optimized geometry and variables:
    Molecular point group: c1

    Geometry (in Angstrom), charge = 0, multiplicity = 1:

    H            2.614582167407     0.512799238430     0.363586817688
    O            2.062339711011    -0.079287993495    -0.112368152524
    C            0.743565003145     0.006525759483     0.352098546813
    H            0.736753269949     0.038832572619     1.440950910623
    C           -0.065236191863    -1.192804278022    -0.122237066611
    C           -0.048018509874     1.191069845015    -0.193485514773
    H            0.197335610554    -1.377940010680    -1.157817485091
    H            0.160023875914    -2.092995454533     0.434377342058
    C           -1.534317873188    -0.750728538223     0.001681420567
    H            0.150648555264     1.265631897653    -1.257598720303
    H            0.226195505736     2.137299765642     0.259407342959
    C           -1.506957748551     0.800301805514     0.065754423659
    H           -2.121565726567    -1.107008844065    -0.834277890001
    H           -1.989226450267    -1.158394603221     0.895825570310
    H           -2.183481022131     1.254909405127    -0.645708482245
    H           -1.815142571139     1.137914123218     1.048549285224

  Mulliken Charges: (a.u.)
   Center  Symbol    Alpha    Beta     Spin     Total
       1     H     0.39516  0.39516  0.00000  0.20968
       2     O     4.20048  4.20048  0.00000 -0.40097
       3     C     2.92237  2.92237  0.00000  0.15526
       4     H     0.46759  0.46759  0.00000  0.06482
       5     C     3.10220  3.10220  0.00000 -0.20439
       6     C     3.09878  3.09878  0.00000 -0.19755
       7     H     0.45112  0.45112  0.00000  0.09776
       8     H     0.44467  0.44467  0.00000  0.11066
       9     C     3.10941  3.10941  0.00000 -0.21881
      10     H     0.45364  0.45364  0.00000  0.09273
      11     H     0.45096  0.45096  0.00000  0.09808
      12     C     3.11495  3.11495  0.00000 -0.22991
      13     H     0.44557  0.44557  0.00000  0.10887
      14     H     0.44887  0.44887  0.00000  0.10226
      15     H     0.44348  0.44348  0.00000  0.11303
      16     H     0.45076  0.45076  0.00000  0.09848

   Total alpha = 24.00000, Total beta = 24.00000, Total charge = -0.00000
