  ==> Input File <==

--------------------------------------------------------------------------
set {
	reference rhf
	basis 6-31G*
}

set_num_threads( 4 )
memory 2 gb

molecule MOL {
0 1

O	 0.577080	 -0.216176	 0.176149
C	 1.705091	 0.115954	 0.001797
C	 2.177609	 1.529165	 -0.237847
O	 2.721346	 -0.737485	 -0.000216
C	 1.047121	 2.553671	 -0.243352
H	 2.913964	 1.759433	 0.527314
H	 2.718980	 1.535113	 -1.179972
C	 1.553925	 3.975912	 -0.487158
H	 0.518250	 2.507652	 0.703414
H	 0.323651	 2.283827	 -1.006296
C	 0.433029	 5.016772	 -0.494993
H	 2.281649	 4.239232	 0.279051
H	 2.085369	 4.014972	 -1.436854
C	 0.939884	 6.437473	 -0.739854
H	 -0.097230	 4.980799	 0.454044
H	 -0.294276	 4.755592	 -1.260467
H	 1.643990	 6.740983	 0.029776
H	 0.122425	 7.151765	 -0.739956
H	 1.445820	 6.513866	 -1.698240
C	 4.024888	 -0.184556	 -0.001949
H	 4.179030	 0.422472	 -0.882452
H	 4.701782	 -1.024608	 -0.003642
H	 4.181981	 0.421185	 0.878906

	symmetry c1
}
set optking {
	frozen_dihedral = ("
		1 2 4 20
	")
}

ee = optimize('scf')
oeprop('DIPOLE', 'QUADRUPOLE', 'MULLIKEN_CHARGES')
f=open( 'psi4out.xyz', 'w' )
f.write( "23  " )
f.write( str(ee) + "\n" )
f.write( MOL.save_string_xyz() )
f.close()
--------------------------------------------------------------------------

    Molecular point group: c1
  Charge       = 0
  Multiplicity = 1
  Basis Set: 6-31G*
  Basis Set:
  @DF-RHF Final Energy:  -422.94877927846181
    Total Energy =                       -422.9487792784620979
    Molecular point group: c1
  Basis Set: 6-31G*
  Basis Set:
  Basis Set: 6-31G*
  Basis Set:
  @DF-RHF Final Energy:  -422.94642098086666
    Total Energy =                       -422.9464209808667192
  Basis Set: 6-31G*
  Basis Set:
  Basis Set: 6-31G*
  Basis Set:
  @DF-RHF Final Energy:  -422.95711077973567
    Total Energy =                       -422.9571107797360128
  Basis Set: 6-31G*
  Basis Set:
  Basis Set: 6-31G*
  Basis Set:
  @DF-RHF Final Energy:  -422.95995925336445
    Total Energy =                       -422.9599592533652412
  Basis Set: 6-31G*
  Basis Set:
  @DF-RHF Final Energy:  -422.95933402506739
    Total Energy =                       -422.9593340250670508
  @DF-RHF Final Energy:  -422.96047700992915
    Total Energy =                       -422.9604770099293773
  Basis Set: 6-31G*
  Basis Set:
  @DF-RHF Final Energy:  -422.96098000271138
    Total Energy =                       -422.9609800027116080
  Basis Set: 6-31G*
  Basis Set:
  Basis Set: 6-31G*
  Basis Set:
  @DF-RHF Final Energy:  -422.96098119253713
    Total Energy =                       -422.9609811925369058
  Basis Set: 6-31G*
  Basis Set:
  Basis Set: 6-31G*
  Basis Set:
  @DF-RHF Final Energy:  -422.96098474572108
    Total Energy =                       -422.9609847457213618
  Basis Set: 6-31G*
  Basis Set:
  Charge       = 0
  Multiplicity = 1
  Basis Set: 6-31G*
  Basis Set:

    Orbital Energies (a.u.)
    -----------------------

    Doubly Occupied:

       1A    -20.601844     2A    -20.539104     3A    -11.373729
       4A    -11.296466     5A    -11.245792     6A    -11.223477
       7A    -11.221901     8A    -11.219298     9A    -11.212189
      10A     -1.462847    11A     -1.364559    12A     -1.096562
      13A     -1.041915    14A     -0.987443    15A     -0.952728
      16A     -0.854442    17A     -0.799384    18A     -0.766791
      19A     -0.700689    20A     -0.689730    21A     -0.672170
      22A     -0.655341    23A     -0.613164    24A     -0.602374
      25A     -0.579718    26A     -0.566946    27A     -0.562848
      28A     -0.536879    29A     -0.520943    30A     -0.510603
      31A     -0.490371    32A     -0.472708    33A     -0.469236
      34A     -0.463593    35A     -0.446228    36A     -0.429391

  @DF-RHF Final Energy:  -422.96098489986139

   => Energetics <=

    Nuclear Repulsion Energy =            454.8152407137081354
    One-Electron Energy =               -1477.0656475656069233
    Two-Electron Energy =                 599.2894219520374008
    DFT Exchange-Correlation Energy =       0.0000000000000000
    Empirical Dispersion Energy =           0.0000000000000000
    PCM Polarization Energy =               0.0000000000000000
    EFP Energy =                            0.0000000000000000
    Total Energy =                       -422.9609848998613870
    Molecular point group: c1
  Basis Set: 6-31G*
  Basis Set:

  -Total Gradient:
     Atom            X                  Y                   Z
    ------   -----------------  -----------------  -----------------
       1        0.000099628675     0.000154454832     0.001020160055
       2       -0.000173471077    -0.000198775398    -0.000928053677
       3       -0.000002342988    -0.000003170811     0.000009981659
       4        0.000070162172     0.000082980135    -0.001018923774
       5        0.000001852359    -0.000003241003    -0.000004144163
       6       -0.000009028573    -0.000003719110    -0.000007350079
       7       -0.000000290261    -0.000007910880    -0.000002372796
       8       -0.000000942812     0.000003170223     0.000001192938
       9        0.000000733533     0.000000522588     0.000003405598
      10       -0.000002506967     0.000000167944    -0.000000725670
      11       -0.000002245576     0.000000099782     0.000000320013
      12       -0.000001078945    -0.000001056208     0.000002010637
      13        0.000000752876    -0.000001407199     0.000001001034
      14        0.000001942422    -0.000002231722    -0.000002312771
      15        0.000000944646     0.000000373114     0.000000845865
      16       -0.000001171499    -0.000000622868     0.000000318458
      17       -0.000000277684    -0.000000044178     0.000000458152
      18       -0.000000265284    -0.000002006137    -0.000000536590
      19        0.000000637520     0.000000787034    -0.000000384119
      20       -0.000005997503    -0.000023530561     0.000931284831
      21       -0.000003393045     0.000003122931     0.000002156439
      22        0.000016906539     0.000005417408    -0.000001964714
      23        0.000009451476    -0.000003379914    -0.000006367327

  **** Optimization is complete! (in 10 steps) ****
    Final optimized geometry and variables:
    Molecular point group: c1

    Geometry (in Angstrom), charge = 0, multiplicity = 1:

    O           -1.062261170397    -2.165088018724     0.390485681721
    C            0.068247516690    -1.855232085829     0.223862400719
    C            0.511709428626    -0.424904105468    -0.015283625842
    O            1.006175927067    -2.806843709000     0.228154462784
    C           -0.655236886765     0.559498209083    -0.022022885906
    H            1.234084237956    -0.147266146513     0.747821545443
    H            1.045729839288    -0.386130525467    -0.961595388710
    C           -0.197037533604     1.997728791217    -0.267901376480
    H           -1.180911502548     0.493961201605     0.924623872403
    H           -1.367461622540     0.261243627942    -0.783833789115
    C           -1.354187371884     2.998189779297    -0.278943733821
    H            0.519716179323     2.288908758556     0.498835875733
    H            0.333585391624     2.054644419090    -1.217376604658
    C           -0.897441057437     4.435555462112    -0.524965386967
    H           -1.884207818821     2.944456290027     0.669234179486
    H           -2.070300364953     2.710179573611    -1.045131689144
    H           -0.205788786734     4.765036244495     0.245359883999
    H           -1.739729740140     5.120202813348    -0.527185055712
    H           -0.393269930534     4.528783631217    -1.482795802534
    C            2.385652564277    -2.527344884812     0.243910465972
    H            2.698404395119    -1.982503461580    -0.637722098523
    H            2.878269941133    -3.487080358916     0.256312759547
    H            2.668628402187    -1.975212798705     1.131559112367

  Mulliken Charges: (a.u.)
   Center  Symbol    Alpha    Beta     Spin     Total
       1     O     4.26741  4.26741  0.00000 -0.53483
       2     C     2.59691  2.59691  0.00000  0.80617
       3     C     3.23502  3.23502  0.00000 -0.47003
       4     O     4.30375  4.30375  0.00000 -0.60750
       5     C     3.14856  3.14856  0.00000 -0.29713
       6     H     0.40500  0.40500  0.00000  0.19000
       7     H     0.40337  0.40337  0.00000  0.19327
       8     C     3.15389  3.15389  0.00000 -0.30778
       9     H     0.40895  0.40895  0.00000  0.18211
      10     H     0.40851  0.40851  0.00000  0.18298
      11     C     3.15189  3.15189  0.00000 -0.30377
      12     H     0.42503  0.42503  0.00000  0.14994
      13     H     0.42473  0.42473  0.00000  0.15054
      14     C     3.23970  3.23970  0.00000 -0.47940
      15     H     0.42052  0.42052  0.00000  0.15895
      16     H     0.42039  0.42039  0.00000  0.15922
      17     H     0.42199  0.42199  0.00000  0.15602
      18     H     0.41773  0.41773  0.00000  0.16455
      19     H     0.42189  0.42189  0.00000  0.15621
      20     C     3.09351  3.09351  0.00000 -0.18701
      21     H     0.41722  0.41722  0.00000  0.16556
      22     H     0.39783  0.39783  0.00000  0.20434
      23     H     0.41620  0.41620  0.00000  0.16760

   Total alpha = 36.00000, Total beta = 36.00000, Total charge = -0.00000
