  ==> Input File <==

--------------------------------------------------------------------------
set {
	reference rhf
	basis 6-31G*
}

set_num_threads( 4 )
memory 2 gb

molecule MOL {
0 1

H	 -2.719512	 -1.311673	 1.086904
O	 -1.891066	 -0.995245	 0.756261
C	 -2.026376	 0.340750	 0.341611
C	 -0.673256	 0.843270	 -0.132153
H	 -2.749624	 0.414938	 -0.468540
H	 -2.387024	 0.960717	 1.161505
C	 0.486613	 -0.083066	 0.235839
H	 -0.715586	 0.970948	 -1.210718
H	 -0.508072	 1.829858	 0.297090
C	 1.840406	 0.433480	 -0.254303
H	 0.300215	 -1.068318	 -0.178947
H	 0.519509	 -0.203625	 1.318070
C	 3.000220	 -0.489290	 0.118523
H	 1.809207	 0.553576	 -1.335192
H	 2.021860	 1.424500	 0.157276
H	 2.864959	 -1.479103	 -0.307933
H	 3.946603	 -0.099227	 -0.243630
H	 3.080049	 -0.602997	 1.196117

	symmetry c1
}
set optking {
	frozen_dihedral = ("
		2 3 4 8
	")
}

ee = optimize('scf')
oeprop('DIPOLE', 'QUADRUPOLE', 'MULLIKEN_CHARGES')
f=open( 'psi4out.xyz', 'w' )
f.write( "18  " )
f.write( str(ee) + "\n" )
f.write( MOL.save_string_xyz() )
f.close()
--------------------------------------------------------------------------

    Molecular point group: c1
  Charge       = 0
  Multiplicity = 1
  Basis Set: 6-31G*
  Basis Set:
  @DF-RHF Final Energy:  -271.17072126353639
    Total Energy =                       -271.1707212635362794
    Molecular point group: c1
  Basis Set: 6-31G*
  Basis Set:
  Basis Set: 6-31G*
  Basis Set:
  @DF-RHF Final Energy:  -271.17120480321961
    Total Energy =                       -271.1712048032193820
  Basis Set: 6-31G*
  Basis Set:
  Basis Set: 6-31G*
  Basis Set:
  @DF-RHF Final Energy:  -271.17213461547840
    Total Energy =                       -271.1721346154782282
  Basis Set: 6-31G*
  Basis Set:
  Basis Set: 6-31G*
  Basis Set:
  @DF-RHF Final Energy:  -271.17215742188205
    Total Energy =                       -271.1721574218819342
  Basis Set: 6-31G*
  Basis Set:
  Basis Set: 6-31G*
  Basis Set:
  @DF-RHF Final Energy:  -271.17215774809500
    Total Energy =                       -271.1721577480948895
  Basis Set: 6-31G*
  Basis Set:
  Basis Set: 6-31G*
  Basis Set:
  @DF-RHF Final Energy:  -271.17216635572208
    Total Energy =                       -271.1721663557223110
  Basis Set: 6-31G*
  Basis Set:
  Charge       = 0
  Multiplicity = 1
  Basis Set: 6-31G*
  Basis Set:

    Orbital Energies (a.u.)
    -----------------------

    Doubly Occupied:

       1A    -20.552399     2A    -11.268937     3A    -11.212881
       4A    -11.208716     5A    -11.203444     6A    -11.202722
       7A     -1.359134     8A     -1.071082     9A     -1.004339
      10A     -0.912922    11A     -0.817395    12A     -0.781576
      13A     -0.695566    14A     -0.655131    15A     -0.616314
      16A     -0.579827    17A     -0.572339    18A     -0.551132
      19A     -0.515625    20A     -0.500472    21A     -0.492730
      22A     -0.462685    23A     -0.458857    24A     -0.443054
      25A     -0.423530

  @DF-RHF Final Energy:  -271.17216628703488

   => Energetics <=

    Nuclear Repulsion Energy =            249.7046081778902646
    One-Electron Energy =                -862.6279309779032474
    Two-Electron Energy =                 341.7511565129780138
    DFT Exchange-Correlation Energy =       0.0000000000000000
    Empirical Dispersion Energy =           0.0000000000000000
    PCM Polarization Energy =               0.0000000000000000
    EFP Energy =                            0.0000000000000000
    Total Energy =                       -271.1721662870349974
    Molecular point group: c1
  Basis Set: 6-31G*
  Basis Set:

  -Total Gradient:
     Atom            X                  Y                   Z
    ------   -----------------  -----------------  -----------------
       1        0.000010563849     0.000029534172    -0.000010176578
       2        0.000817551369     0.000949702613     0.003086331603
       3       -0.001366896610    -0.000366826961    -0.003918698804
       4        0.001667923583    -0.004714841452     0.000301544661
       5        0.000006712000     0.000031977446    -0.000008827764
       6        0.000009505502     0.000014129110    -0.000008794346
       7        0.000022757628     0.000002392461     0.000033164563
       8       -0.001147634256     0.004076878770     0.000562866166
       9       -0.000010859721    -0.000003065036     0.000004855997
      10       -0.000005343382    -0.000021807642    -0.000043282558
      11        0.000000066021     0.000006671238    -0.000006487733
      12        0.000004885073    -0.000014345794    -0.000002988516
      13       -0.000005434376     0.000011142778     0.000025829770
      14        0.000007152606    -0.000005302072    -0.000011672776
      15       -0.000007895549    -0.000000973576    -0.000008433210
      16        0.000000808055     0.000007590793    -0.000007975937
      17       -0.000002992173     0.000008738229     0.000009325381
      18       -0.000000869622    -0.000011595075     0.000003420081

  **** Optimization is complete! (in 7 steps) ****
    Final optimized geometry and variables:
    Molecular point group: c1

    Geometry (in Angstrom), charge = 0, multiplicity = 1:

    H           -2.923067988447    -1.235941386314     0.872104988064
    O           -2.063078862834    -0.972091978247     0.577831296195
    C           -2.109970291829     0.369020098882     0.157438524221
    C           -0.727260745976     0.825735121726    -0.345775861975
    H           -2.851082793334     0.494143160091    -0.628253797924
    H           -2.418446160254     0.995827929652     0.991455217028
    C            0.441812582335    -0.085318789781     0.032604878523
    H           -0.758776912536     0.964842967119    -1.423322204286
    H           -0.538466111216     1.818707736820     0.056467381273
    C            1.783603612412     0.467206418297    -0.452184812281
    H            0.282493547103    -1.074328871262    -0.382355827428
    H            0.469318214673    -0.211559470854     1.111364034906
    C            2.962598139862    -0.433020946956    -0.083931584368
    H            1.753897193144     0.596297676138    -1.532442683142
    H            1.943268175884     1.458352265106    -0.031896962236
    H            2.851653688351    -1.421346239555    -0.520839038179
    H            3.901509075408    -0.017922608166    -0.437816847012
    H            3.039884776296    -0.556178102277     0.992659548455

  Mulliken Charges: (a.u.)
   Center  Symbol    Alpha    Beta     Spin     Total
       1     H     0.28058  0.28058  0.00000  0.43884
       2     O     4.37115  4.37115  0.00000 -0.74229
       3     C     2.99068  2.99068  0.00000  0.01864
       4     C     3.17578  3.17578  0.00000 -0.35157
       5     H     0.42951  0.42951  0.00000  0.14097
       6     H     0.43105  0.43105  0.00000  0.13790
       7     C     3.14274  3.14274  0.00000 -0.28549
       8     H     0.41962  0.41962  0.00000  0.16075
       9     H     0.42157  0.42157  0.00000  0.15687
      10     C     3.15328  3.15328  0.00000 -0.30656
      11     H     0.41167  0.41167  0.00000  0.17667
      12     H     0.41912  0.41912  0.00000  0.16176
      13     C     3.23852  3.23852  0.00000 -0.47705
      14     H     0.42483  0.42483  0.00000  0.15034
      15     H     0.42555  0.42555  0.00000  0.14889
      16     H     0.42134  0.42134  0.00000  0.15732
      17     H     0.42107  0.42107  0.00000  0.15785
      18     H     0.42192  0.42192  0.00000  0.15616

   Total alpha = 25.00000, Total beta = 25.00000, Total charge = -0.00000
