                              Psi4 1.0.54 Driver

  ==> Input File <==

--------------------------------------------------------------------------
set {
	reference rhf
	basis cc-pvtz
}

set_num_threads( 4 )
memory 2 gb

molecule MOL {
0 1

O	 3.219313	 0.959291	 -0.614106
C	 2.698710	 0.058177	 -0.050237
C	 1.246364	 -0.005813	 0.348416
O	 3.344101	 -1.038700	 0.312317
C	 0.453207	 1.232821	 -0.049003
H	 0.839270	 -0.907818	 -0.092281
H	 1.216683	 -0.160521	 1.422434
C	 -0.998367	 1.217982	 0.432195
H	 0.481498	 1.345443	 -1.127236
H	 0.951413	 2.105557	 0.354893
C	 -1.882951	 0.151251	 -0.211235
H	 -1.429490	 2.193659	 0.228843
H	 -1.019755	 1.099323	 1.513279
C	 -3.342450	 0.243269	 0.226009
H	 -1.826223	 0.246578	 -1.293162
H	 -1.508033	 -0.839650	 0.027695
C	 -3.706014	 -0.734466	 1.339844
H	 -3.986056	 0.063507	 -0.631777
H	 -3.554922	 1.257224	 0.557092
C	 -5.165977	 -0.637784	 1.769888
H	 -3.494444	 -1.748091	 1.010413
H	 -3.065496	 -0.554272	 2.198985
H	 -5.390387	 -1.344035	 2.560984
H	 -5.832953	 -0.847799	 0.940343
H	 -5.400794	 0.355723	 2.137331
C	 4.720529	 -1.114346	 0.001449
H	 4.874321	 -1.055557	 -1.065852
H	 5.057824	 -2.067950	 0.373977
H	 5.264321	 -0.313596	 0.480350

	symmetry c1
}
set optking {
	frozen_dihedral = ("
		17 14 11 15
	")
}

ee,wfn = optimize('scf', return_wfn=True)
oeprop( wfn, 'DIPOLE', 'QUADRUPOLE', 'MULLIKEN_CHARGES')
f=open( 'psi4out.xyz', 'w' )
f.write( "29  " )
f.write( str(ee) + "\n" )
f.write( MOL.save_string_xyz() )
f.close()
--------------------------------------------------------------------------

    Molecular point group: c1
  Charge       = 0
  Multiplicity = 1
  Basis Set: CC-PVTZ
  Basis Set:
  @DF-RHF Final Energy:  -501.22059896952544
    Total Energy =                       -501.2205989695250992
    Molecular point group: c1
  Basis Set: CC-PVTZ
  Basis Set:
  Basis Set: CC-PVTZ
  Basis Set:
  @DF-RHF Final Energy:  -501.22078102188084
    Total Energy =                       -501.2207810218812938
  Basis Set: CC-PVTZ
  Basis Set:
  Basis Set: CC-PVTZ
  Basis Set:
  @DF-RHF Final Energy:  -501.22093541276035
    Total Energy =                       -501.2209354127604684
  Basis Set: CC-PVTZ
  Basis Set:
  Basis Set: CC-PVTZ
  Basis Set:
  @DF-RHF Final Energy:  -501.22071155186393
    Total Energy =                       -501.2207115518641558
  Basis Set: CC-PVTZ
  Basis Set:
  Basis Set: CC-PVTZ
  Basis Set:
  @DF-RHF Final Energy:  -501.22094987354103
    Total Energy =                       -501.2209498735411444
  Basis Set: CC-PVTZ
  Basis Set:
  Charge       = 0
  Multiplicity = 1
  Basis Set: CC-PVTZ
  Basis Set:

    Orbital Energies (a.u.)
    -----------------------

    Doubly Occupied:

       1A    -20.596028     2A    -20.533882     3A    -11.364312
       4A    -11.278285     5A    -11.233014     6A    -11.217079
       7A    -11.215948     8A    -11.214687     9A    -11.213537
      10A    -11.212263    11A    -11.207372    12A     -1.471867
      13A     -1.365492    14A     -1.098725    15A     -1.067262
      16A     -1.019825    17A     -0.977640    18A     -0.929239
      19A     -0.862486    20A     -0.807853    21A     -0.786202
      22A     -0.765602    23A     -0.702785    24A     -0.685428
      25A     -0.675868    26A     -0.635463    27A     -0.633373
      28A     -0.614712    29A     -0.596752    30A     -0.581582
      31A     -0.562720    32A     -0.556467    33A     -0.542054
      34A     -0.526488    35A     -0.516021    36A     -0.511396
      37A     -0.495583    38A     -0.481018    39A     -0.474516
      40A     -0.461475    41A     -0.458732    42A     -0.448791
      43A     -0.445788    44A     -0.438565

  @DF-RHF Final Energy:  -501.22094933389928

   => Energetics <=

    Nuclear Repulsion Energy =            615.4999867291174951
    One-Electron Energy =               -1902.4735196057563371
    Two-Electron Energy =                 785.7525835427402399
    DFT Exchange-Correlation Energy =       0.0000000000000000
    Empirical Dispersion Energy =           0.0000000000000000
    PCM Polarization Energy =               0.0000000000000000
    EFP Energy =                            0.0000000000000000
    Total Energy =                       -501.2209493338984885
    Molecular point group: c1
  Basis Set: CC-PVTZ
  Basis Set:

  -Total Gradient:
     Atom            X                  Y                   Z
    ------   -----------------  -----------------  -----------------
       1       -0.000025539371     0.000045486931    -0.000172601037
       2        0.000057405325     0.000144942610     0.000340525311
       3       -0.000001984400    -0.000046472422    -0.000086650407
       4       -0.000029367673    -0.000118825659    -0.000047821650
       5       -0.000009135873     0.000017380669    -0.000033456672
       6        0.000000572747     0.000002296217     0.000007445111
       7        0.000025745357    -0.000007815126     0.000010300930
       8        0.000035706760    -0.000056052364    -0.000002200552
       9        0.000001732637    -0.000004613531    -0.000025861560
      10        0.000014161263     0.000018678960    -0.000009974411
      11        0.000037694777     0.003298056636    -0.000260812324
      12       -0.000026168121     0.000013810628     0.000015960736
      13        0.000009773932    -0.000029226005     0.000027228512
      14        0.000746115026     0.001468038641     0.002087926979
      15       -0.000155800036    -0.003140261722    -0.000357334430
      16        0.000013453677    -0.000023670408     0.000018534683
      17       -0.000592503142    -0.001628800802    -0.001641209752
      18       -0.000048849074     0.000014282570    -0.000012947431
      19       -0.000033468742     0.000041130534     0.000011399110
      20       -0.000028520135     0.000042948027     0.000077142371
      21        0.000066718445    -0.000060253287    -0.000047935381
      22        0.000048878329     0.000000361522     0.000069187924
      23       -0.000017990320    -0.000036374781     0.000069465564
      24       -0.000044679166    -0.000014169002    -0.000069041929
      25       -0.000070468714     0.000073240149     0.000043056318
      26        0.000005033828     0.000008905823    -0.000010612971
      27        0.000013818086    -0.000002570362    -0.000011570588
      28        0.000005196995    -0.000021592368     0.000009296697
      29        0.000002467583     0.000001137920     0.000002560849

  **** Optimization is complete! (in 6 steps) ****
    Final optimized geometry and variables:
    Molecular point group: c1

    Geometry (in Angstrom), charge = 0, multiplicity = 1:

    O            3.117793052629     0.918780789702    -0.960508923929
    C            2.591447210375     0.042332203817    -0.363943401438
    C            1.136896831898    -0.001305934345     0.029597589428
    O            3.230808342878    -1.042634628989     0.042705003049
    C            0.350535311715     1.224475178921    -0.418491131771
    H            0.728965496359    -0.918322262429    -0.377981126399
    H            1.101582586913    -0.114670386423     1.108583844107
    C           -1.104688464062     1.233099259872     0.051667138845
    H            0.387086336864     1.298427639333    -1.499898586993
    H            0.849287577842     2.109344678168    -0.042491826492
    C           -1.999026913594     0.172987104261    -0.590080186480
    H           -1.522908411564     2.211043783096    -0.166017081617
    H           -1.135694594341     1.127246856347     1.133997692936
    C           -3.456187956135     0.217977773608    -0.100004542706
    H           -1.968799502617     0.278404655832    -1.670322055178
    H           -1.599434685315    -0.816779912031    -0.390102076978
    C           -3.760900557650    -0.778592597181     1.017269299932
    H           -4.123575776318     0.008154660139    -0.930597830806
    H           -3.700983016811     1.223121140419     0.232197876642
    C           -5.194039599344    -0.684668545175     1.530038868871
    H           -3.573188350767    -1.784447580133     0.652337291697
    H           -3.073104122706    -0.622322589279     1.844581622391
    H           -5.380976594143    -1.412925138571     2.311061232240
    H           -5.906991458645    -0.865176179201     0.732059531942
    H           -5.400466941440     0.298985452804     1.938851650542
    C            4.608151522659    -1.135765665917    -0.259418411376
    H            4.766469826828    -1.118164180891    -1.327551854632
    H            4.939894851570    -2.075966920949     0.150410074375
    H            5.153520646001    -0.319698862202     0.191013884829

  Mulliken Charges: (a.u.)
   Center  Symbol    Alpha    Beta     Spin     Total
       1     O     4.19698  4.19698  0.00000 -0.39396
       2     C     2.80455  2.80455  0.00000  0.39091
       3     C     3.10189  3.10189  0.00000 -0.20377
       4     O     4.14727  4.14727  0.00000 -0.29454
       5     C     3.09283  3.09283  0.00000 -0.18566
       6     H     0.43925  0.43925  0.00000  0.12151
       7     H     0.43983  0.43983  0.00000  0.12035
       8     C     3.10187  3.10187  0.00000 -0.20374
       9     H     0.44616  0.44616  0.00000  0.10768
      10     H     0.43957  0.43957  0.00000  0.12085
      11     C     3.10331  3.10331  0.00000 -0.20662
      12     H     0.44449  0.44449  0.00000  0.11102
      13     H     0.45341  0.45341  0.00000  0.09319
      14     C     3.09408  3.09408  0.00000 -0.18817
      15     H     0.44505  0.44505  0.00000  0.10989
      16     H     0.45458  0.45458  0.00000  0.09084
      17     C     3.08215  3.08215  0.00000 -0.16429
      18     H     0.44753  0.44753  0.00000  0.10494
      19     H     0.45484  0.45484  0.00000  0.09031
      20     C     3.15051  3.15051  0.00000 -0.30102
      21     H     0.45453  0.45453  0.00000  0.09095
      22     H     0.45539  0.45539  0.00000  0.08922
      23     H     0.44848  0.44848  0.00000  0.10303
      24     H     0.45483  0.45483  0.00000  0.09035
      25     H     0.45463  0.45463  0.00000  0.09073
      26     C     3.03816  3.03816  0.00000 -0.07632
      27     H     0.45434  0.45434  0.00000  0.09132
      28     H     0.44528  0.44528  0.00000  0.10945
      29     H     0.45422  0.45422  0.00000  0.09156

   Total alpha = 44.00000, Total beta = 44.00000, Total charge = -0.00000

*** Psi4 exiting successfully. Buy a developer a beer!
