  ==> Input File <==

--------------------------------------------------------------------------
set {
	reference rhf
	basis 6-31G*
}

set_num_threads( 4 )
memory 2 gb

molecule MOL {
0 1

H	 -1.999832	 0.069849	 0.727879
C	 -1.138537	 -0.484033	 0.414394
C	 -1.131025	 -1.867295	 0.411660
C	 0.000000	 0.183220	 0.000000
H	 -2.005206	 -2.404452	 0.729835
C	 0.000000	 -2.555744	 0.000000
N	 0.000000	 1.642018	 0.000000
C	 1.138537	 -0.484034	 -0.414394
H	 0.000000	 -3.630640	 0.000000
C	 1.131025	 -1.867295	 -0.411660
O	 1.057097	 2.196749	 0.000000
O	 -1.057097	 2.196749	 0.000000
H	 1.999832	 0.069849	 -0.727879
H	 2.005206	 -2.404452	 -0.729835

	symmetry c1
}
set optking {
	frozen_dihedral = ("
		2 4 7 11
	")
}

ee = optimize('scf')
oeprop('DIPOLE', 'QUADRUPOLE', 'MULLIKEN_CHARGES')
f=open( 'psi4out.xyz', 'w' )
f.write( "14  " )
f.write( str(ee) + "\n" )
f.write( MOL.save_string_xyz() )
f.close()
--------------------------------------------------------------------------

    Molecular point group: c1
  Charge       = 0
  Multiplicity = 1
  Basis Set: 6-31G*
  Basis Set:
  @DF-RHF Final Energy:  -434.17353307688910
    Total Energy =                       -434.1735330768888161
    Molecular point group: c1
  Basis Set: 6-31G*
  Basis Set:
  Basis Set: 6-31G*
  Basis Set:
  @DF-RHF Final Energy:  -434.16914870289702
    Total Energy =                       -434.1691487028971324
  Basis Set: 6-31G*
  Basis Set:
  Basis Set: 6-31G*
  Basis Set:
  @DF-RHF Final Energy:  -434.17353452104970
    Total Energy =                       -434.1735345210497599
  Basis Set: 6-31G*
  Basis Set:
  Basis Set: 6-31G*
  Basis Set:
  @DF-RHF Final Energy:  -434.17361148344696
    Total Energy =                       -434.1736114834469618
  Basis Set: 6-31G*
  Basis Set:
  Basis Set: 6-31G*
  Basis Set:
  @DF-RHF Final Energy:  -434.17361166124016
    Total Energy =                       -434.1736116612401020
  Basis Set: 6-31G*
  Basis Set:
  Charge       = 0
  Multiplicity = 1
  Basis Set: 6-31G*
  Basis Set:

    Orbital Energies (a.u.)
    -----------------------

    Doubly Occupied:

       1A    -20.601550     2A    -20.601431     3A    -15.855562
       4A    -11.304092     5A    -11.270962     6A    -11.270887
       7A    -11.267890     8A    -11.261373     9A    -11.261252
      10A     -1.634406    11A     -1.417806    12A     -1.201641
      13A     -1.094662    14A     -1.052797    15A     -0.957978
      16A     -0.865369    17A     -0.825248    18A     -0.783827
      19A     -0.733399    20A     -0.728767    21A     -0.709769
      22A     -0.654015    23A     -0.650040    24A     -0.624496
      25A     -0.553821    26A     -0.536850    27A     -0.529755
      28A     -0.488726    29A     -0.487911    30A     -0.451138
      31A     -0.373295    32A     -0.365749

  @DF-RHF Final Energy:  -434.17361189699579

   => Energetics <=

    Nuclear Repulsion Energy =            417.1661725421730580
    One-Electron Energy =               -1417.8466435254804310
    Two-Electron Energy =                 566.5068590863120335
    DFT Exchange-Correlation Energy =       0.0000000000000000
    Empirical Dispersion Energy =           0.0000000000000000
    PCM Polarization Energy =               0.0000000000000000
    EFP Energy =                            0.0000000000000000
    Total Energy =                       -434.1736118969953395
    Molecular point group: c1
  Basis Set: 6-31G*
  Basis Set:

  -Total Gradient:
     Atom            X                  Y                   Z
    ------   -----------------  -----------------  -----------------
       1        0.000001858027    -0.000001688544    -0.000000213066
       2        0.000652249095    -0.000029530345     0.001762912045
       3       -0.000006282376     0.000008299608    -0.000002232949
       4       -0.000938694329     0.000024651718    -0.001753125929
       5        0.000000282804    -0.000000581317     0.000000299678
       6        0.000009640936     0.000000095808    -0.000005817492
       7        0.000265475195     0.000024381727    -0.002146003938
       8       -0.000007734537     0.000009344592    -0.000002258027
       9       -0.000000723422     0.000000288460     0.000000139216
      10       -0.000002791860    -0.000009514930     0.000010508757
      11        0.000026761309    -0.000026031043     0.002141443442
      12       -0.000001029928    -0.000000299245    -0.000004915377
      13        0.000000533482    -0.000000643309     0.000000082847
      14        0.000000455606     0.000001226821    -0.000000819208

  **** Optimization is complete! (in 6 steps) ****
    Final optimized geometry and variables:
    Molecular point group: c1

    Geometry (in Angstrom), charge = 0, multiplicity = 1:

    H           -2.005426702832     0.072986796653     0.709400207113
    C           -1.141784059691    -0.482016095874     0.403151703937
    C           -1.130166635845    -1.865423397965     0.412806619801
    C           -0.004727079150     0.183295081530    -0.016066970264
    H           -2.001091197082    -2.402297080461     0.740138333741
    C            0.000930134245    -2.553963335963     0.001368573915
    N            0.000028781561     1.640748674789    -0.001802205095
    C            1.139045849483    -0.482624461043    -0.415989651430
    H            0.002631980487    -3.628856072826     0.006735587411
    C            1.130997071916    -1.865926156729    -0.414261059297
    O            1.059764856038     2.190475642315    -0.006791428937
    O           -1.055846956125     2.197092645469     0.029790518155
    H            2.003996660872     0.071969603791    -0.719331286333
    H            2.005234554999    -2.403342213286    -0.731726318390

  Mulliken Charges: (a.u.)
   Center  Symbol    Alpha    Beta     Spin     Total
       1     H     0.36570  0.36570  0.00000  0.26859
       2     C     3.08542  3.08542  0.00000 -0.17084
       3     C     3.10824  3.10824  0.00000 -0.21649
       4     C     2.91873  2.91873  0.00000  0.16253
       5     H     0.38848  0.38848  0.00000  0.22304
       6     C     3.08659  3.08659  0.00000 -0.17317
       7     N     3.24547  3.24547  0.00000  0.50906
       8     C     3.08491  3.08491  0.00000 -0.16981
       9     H     0.38899  0.38899  0.00000  0.22203
      10     C     3.10837  3.10837  0.00000 -0.21674
      11     O     4.23242  4.23242  0.00000 -0.46484
      12     O     4.23228  4.23228  0.00000 -0.46457
      13     H     0.36593  0.36593  0.00000  0.26815
      14     H     0.38847  0.38847  0.00000  0.22306

   Total alpha = 32.00000, Total beta = 32.00000, Total charge =  0.00000
