  ==> Input File <==

--------------------------------------------------------------------------
set {
	reference rhf
	basis 6-31G*
}

set_num_threads( 4 )
memory 2 gb

molecule MOL {
0 1

H	 -0.216825	 0.021369	 -3.357402
C	 0.374198	 0.036393	 -2.447010
C	 -0.521757	 -0.028637	 -1.217342
H	 0.969602	 0.942322	 -2.434777
H	 1.053364	 -0.811668	 -2.481329
N	 0.263400	 0.031178	 0.000000
H	 -1.199035	 0.820290	 -1.219355
H	 -1.147901	 -0.924895	 -1.265384
C	 -0.521757	 -0.028637	 1.217342
H	 0.935769	 -0.712709	 0.000000
C	 -0.514776	 1.313729	 1.936406
H	 -1.540864	 -0.286267	 0.944512
H	 -0.175489	 -0.812422	 1.898094
H	 -0.897069	 2.093460	 1.287380
H	 -1.127046	 1.275941	 2.831975
H	 0.492293	 1.590863	 2.237502

	symmetry c1
}
set optking {
	frozen_dihedral = ("
		12 9 6 3
	")
}

ee = optimize('scf')
oeprop('DIPOLE', 'QUADRUPOLE', 'MULLIKEN_CHARGES')
f=open( 'psi4out.xyz', 'w' )
f.write( "16  " )
f.write( str(ee) + "\n" )
f.write( MOL.save_string_xyz() )
f.close()
--------------------------------------------------------------------------

    Molecular point group: c1
  Charge       = 0
  Multiplicity = 1
  Basis Set: 6-31G*
  Basis Set:
  @DF-RHF Final Energy:  -212.30873659162881
    Total Energy =                       -212.3087365916289286
    Molecular point group: c1
  Basis Set: 6-31G*
  Basis Set:
  Basis Set: 6-31G*
  Basis Set:
  @DF-RHF Final Energy:  -212.30939014962448
    Total Energy =                       -212.3093901496243916
  Basis Set: 6-31G*
  Basis Set:
  Basis Set: 6-31G*
  Basis Set:
  @DF-RHF Final Energy:  -212.30958117706928
    Total Energy =                       -212.3095811770691625
  Basis Set: 6-31G*
  Basis Set:
  Basis Set: 6-31G*
  Basis Set:
  @DF-RHF Final Energy:  -212.30958331541561
    Total Energy =                       -212.3095833154154661
  Basis Set: 6-31G*
  Basis Set:
  Charge       = 0
  Multiplicity = 1
  Basis Set: 6-31G*
  Basis Set:

    Orbital Energies (a.u.)
    -----------------------

    Doubly Occupied:

       1A    -15.532371     2A    -11.241481     3A    -11.240950
       4A    -11.208095     5A    -11.200422     6A     -1.201326
       7A     -1.024602     8A     -0.963185     9A     -0.838206
      10A     -0.809818    11A     -0.664316    12A     -0.625006
      13A     -0.610212    14A     -0.570007    15A     -0.549062
      16A     -0.525987    17A     -0.504336    18A     -0.493068
      19A     -0.481402    20A     -0.468237    21A     -0.356114

  @DF-RHF Final Energy:  -212.30958369184771

   => Energetics <=

    Nuclear Repulsion Energy =            189.7481001557260356
    One-Electron Energy =                -661.8989634551749077
    Two-Electron Energy =                 259.8412796076012228
    DFT Exchange-Correlation Energy =       0.0000000000000000
    Empirical Dispersion Energy =           0.0000000000000000
    PCM Polarization Energy =               0.0000000000000000
    EFP Energy =                            0.0000000000000000
    Total Energy =                       -212.3095836918476493
    Molecular point group: c1
  Basis Set: 6-31G*
  Basis Set:

  -Total Gradient:
     Atom            X                  Y                   Z
    ------   -----------------  -----------------  -----------------
       1       -0.000001019190    -0.000001093101    -0.000006430973
       2        0.000000750254    -0.000004962692     0.000005583600
       3        0.000106807058    -0.001493886452     0.000029497225
       4       -0.000003680742    -0.000002091630     0.000003130876
       5       -0.000001555667     0.000002450362     0.000001108943
       6       -0.000275952994     0.002625819553    -0.000097151208
       7        0.000001389701    -0.000001088684     0.000001830982
       8        0.000003943726     0.000001113128    -0.000000369747
       9        0.000594004729    -0.002986391018     0.000258930034
      10        0.000011038441     0.000002235251    -0.000006595523
      11       -0.000012319947    -0.000021909291     0.000000452780
      12       -0.000413438123     0.001891573201    -0.000205306716
      13       -0.000007501056    -0.000001735655     0.000022565333
      14       -0.000000026739    -0.000001980877    -0.000002550141
      15       -0.000001521288     0.000002648306    -0.000002400961
      16       -0.000000918162    -0.000010700402    -0.000002294507

  **** Optimization is complete! (in 5 steps) ****
    Final optimized geometry and variables:
    Molecular point group: c1

    Geometry (in Angstrom), charge = 0, multiplicity = 1:

    H           -0.001908213388    -0.245677487211    -3.264215901588
    C            0.574176233389    -0.218454801776    -2.344483248017
    C           -0.338695893334    -0.309731945399    -1.129409739679
    H            1.146932862491     0.701637584636    -2.320165870042
    H            1.274786308231    -1.049349843289    -2.370013889100
    N            0.429337010892    -0.242128963851     0.099532071375
    H           -1.032712099223     0.525371032150    -1.138767648080
    H           -0.945254124934    -1.217834249417    -1.192406061062
    C           -0.358265092146    -0.278346852557     1.328490536173
    H            1.109647746097    -0.974979990745     0.103761151902
    C           -0.316259198994     1.059734313237     2.060038322579
    H           -1.395120889649    -0.527928695930     1.109777403721
    H            0.017203338125    -1.059179916789     1.983577090222
    H           -0.697149677623     1.853829809627     1.425614630444
    H           -0.917100354119     1.030324178911     2.965507422140
    H            0.702937401672     1.313194693621     2.330814267878

  Mulliken Charges: (a.u.)
   Center  Symbol    Alpha    Beta     Spin     Total
       1     H     0.42041  0.42041  0.00000  0.15917
       2     C     3.24215  3.24215  0.00000 -0.48430
       3     C     3.05476  3.05476  0.00000 -0.10953
       4     H     0.41191  0.41191  0.00000  0.17618
       5     H     0.42502  0.42502  0.00000  0.14996
       6     N     3.85189  3.85189  0.00000 -0.70378
       7     H     0.42041  0.42041  0.00000  0.15918
       8     H     0.43464  0.43464  0.00000  0.13072
       9     C     3.06239  3.06239  0.00000 -0.12479
      10     H     0.33244  0.33244  0.00000  0.33512
      11     C     3.22625  3.22625  0.00000 -0.45250
      12     H     0.42598  0.42598  0.00000  0.14804
      13     H     0.42419  0.42419  0.00000  0.15163
      14     H     0.42093  0.42093  0.00000  0.15815
      15     H     0.42791  0.42791  0.00000  0.14418
      16     H     0.41871  0.41871  0.00000  0.16257

   Total alpha = 21.00000, Total beta = 21.00000, Total charge =  0.00000
