  ==> Input File <==

--------------------------------------------------------------------------
set {
	reference rhf
	basis 6-31G*
}

set_num_threads( 4 )
memory 2 gb

molecule MOL {
0 1

O	 -2.821601	 1.309235	 -0.001213
C	 -2.668563	 0.129746	 -0.000350
C	 -3.801572	 -0.864014	 -0.000442
O	 -1.481751	 -0.454642	 0.000584
H	 -4.417280	 -0.689587	 -0.874708
H	 -3.443784	 -1.883046	 -0.000565
H	 -4.417179	 -0.689832	 0.873954
C	 -0.334255	 0.388708	 0.000906
C	 0.891947	 -0.504646	 0.000751
H	 -0.365390	 1.025305	 -0.873475
H	 -0.365484	 1.024911	 0.875569
C	 2.191998	 0.301789	 0.000897
H	 0.855148	 -1.151283	 -0.871571
H	 0.855132	 -1.151660	 0.872805
C	 3.441114	 -0.581407	 0.000108
H	 2.215074	 0.954890	 -0.869742
H	 2.215465	 0.953923	 0.872248
C	 4.715115	 0.189207	 0.343535
H	 3.551992	 -1.045946	 -0.977125
H	 3.307224	 -1.393634	 0.711045
H	 4.894739	 0.988132	 -0.370235
H	 5.582662	 -0.463112	 0.334784
H	 4.648277	 0.637534	 1.330726

	symmetry c1
}
set optking {
	frozen_dihedral = ("
		19 15 12 16
	")
}

ee = optimize('scf')
oeprop('DIPOLE', 'QUADRUPOLE', 'MULLIKEN_CHARGES')
f=open( 'psi4out.xyz', 'w' )
f.write( "23  " )
f.write( str(ee) + "\n" )
f.write( MOL.save_string_xyz() )
f.close()
--------------------------------------------------------------------------

    Molecular point group: c1
  Charge       = 0
  Multiplicity = 1
  Basis Set: 6-31G*
  Basis Set:
  @DF-RHF Final Energy:  -422.97876798761371
    Total Energy =                       -422.9787679876137645
    Molecular point group: c1
  Basis Set: 6-31G*
  Basis Set:
  Basis Set: 6-31G*
  Basis Set:
  @DF-RHF Final Energy:  -422.97883642452581
    Total Energy =                       -422.9788364245250705
  Basis Set: 6-31G*
  Basis Set:
  Basis Set: 6-31G*
  Basis Set:
  @DF-RHF Final Energy:  -422.97888124697118
    Total Energy =                       -422.9788812469709001
  Basis Set: 6-31G*
  Basis Set:
  Basis Set: 6-31G*
  Basis Set:
  @DF-RHF Final Energy:  -422.97887367048304
    Total Energy =                       -422.9788736704830399
  Basis Set: 6-31G*
  Basis Set:
  Basis Set: 6-31G*
  Basis Set:
  @DF-RHF Final Energy:  -422.97888635809960
    Total Energy =                       -422.9788863580996576
  Basis Set: 6-31G*
  Basis Set:
  Charge       = 0
  Multiplicity = 1
  Basis Set: 6-31G*
  Basis Set:

    Orbital Energies (a.u.)
    -----------------------

    Doubly Occupied:

       1A    -20.602980     2A    -20.540519     3A    -11.374067
       4A    -11.281420     5A    -11.232370     6A    -11.224384
       7A    -11.223795     8A    -11.221754     9A    -11.212826
      10A     -1.467937    11A     -1.360717    12A     -1.094057
      13A     -1.042111    14A     -1.003372    15A     -0.930765
      16A     -0.841428    17A     -0.802493    18A     -0.774347
      19A     -0.692215    20A     -0.685017    21A     -0.668012
      22A     -0.646711    23A     -0.606527    24A     -0.588546
      25A     -0.582114    26A     -0.567804    27A     -0.557440
      28A     -0.536591    29A     -0.523721    30A     -0.504549
      31A     -0.491882    32A     -0.476882    33A     -0.471477
      34A     -0.465347    35A     -0.451221    36A     -0.435217

  @DF-RHF Final Energy:  -422.97888644110651

   => Energetics <=

    Nuclear Repulsion Energy =            449.6345514904195397
    One-Electron Energy =               -1466.8616392247829481
    Two-Electron Energy =                 594.2482012932573525
    DFT Exchange-Correlation Energy =       0.0000000000000000
    Empirical Dispersion Energy =           0.0000000000000000
    PCM Polarization Energy =               0.0000000000000000
    EFP Energy =                            0.0000000000000000
    Total Energy =                       -422.9788864411060558
    Molecular point group: c1
  Basis Set: 6-31G*
  Basis Set:

  -Total Gradient:
     Atom            X                  Y                   Z
    ------   -----------------  -----------------  -----------------
       1        0.000001511386    -0.000000886564     0.000006855672
       2       -0.000001929407     0.000001641696    -0.000030324670
       3        0.000000051567    -0.000000381006     0.000018652290
       4        0.000004462661     0.000000597874    -0.000016145205
       5        0.000003492225     0.000001451708    -0.000002113459
       6       -0.000000012915    -0.000000017188     0.000000218537
       7       -0.000003114610    -0.000001323099    -0.000002080365
       8       -0.000001627421    -0.000002281850     0.000053015284
       9       -0.000001547782    -0.000014657289     0.000017972697
      10       -0.000007566946    -0.000000843960    -0.000008374359
      11        0.000007163052     0.000001606594    -0.000007536473
      12        0.001947934841     0.002651861534     0.001476656758
      13        0.000009634958    -0.000000357891     0.000002864116
      14       -0.000018975731    -0.000001451925     0.000003341626
      15       -0.002062902945    -0.002897090911     0.000653452375
      16       -0.001291308812    -0.001775446009    -0.001375953708
      17        0.000012104209    -0.000009973027    -0.000005358037
      18       -0.000001678880     0.000012326391     0.000025535552
      19        0.001409852799     0.002023225124    -0.000811214355
      20       -0.000010780764     0.000010929479    -0.000006719448
      21       -0.000003740121    -0.000004114833     0.000001186040
      22       -0.000002607814    -0.000001443340    -0.000000219544
      23        0.000011586453     0.000006628486     0.000006288677

  **** Optimization is complete! (in 6 steps) ****
    Final optimized geometry and variables:
    Molecular point group: c1

    Geometry (in Angstrom), charge = 0, multiplicity = 1:

    O           -2.819801634256     1.313536295453    -0.072145974053
    C           -2.666713904740     0.134154995040    -0.055851711214
    C           -3.799686882101    -0.859656929984    -0.056949264104
    O           -1.480037219561    -0.450083531990    -0.034432351899
    H           -4.405924485189    -0.695160525715    -0.939710672412
    H           -3.441941286370    -1.878593169533    -0.041673005094
    H           -4.424690259725    -0.675671121695     0.808732035089
    C           -0.332499588193     0.393268639905    -0.030702693169
    C            0.893696327517    -0.499665483038    -0.007179046081
    H           -0.354046054236     1.020219011933    -0.912311506717
    H           -0.373368223805     1.039224535865     0.836466080635
    C            2.194632918732     0.307273219658     0.006163808784
    H            0.869689962184    -1.152488524890    -0.875578003323
    H            0.844513969312    -1.140685878999     0.868540344054
    C            3.441442823585    -0.581311114197    -0.026284688218
    H            2.207103687280     0.966761172766    -0.859502308108
    H            2.219256358928     0.942363480714     0.889210720716
    C            4.726315485400     0.192448719877     0.271322374358
    H            3.528941769729    -1.035058984695    -1.010564508202
    H            3.334080967264    -1.392831268500     0.689082030889
    H            4.866922986782     1.005130594118    -0.435868003688
    H            5.596748380423    -0.453215144888     0.209552112304
    H            4.703310987881     0.623128433016     1.268240161503

  Mulliken Charges: (a.u.)
   Center  Symbol    Alpha    Beta     Spin     Total
       1     O     4.28392  4.28392  0.00000 -0.56784
       2     C     2.61532  2.61532  0.00000  0.76937
       3     C     3.28774  3.28774  0.00000 -0.57548
       4     O     4.31269  4.31269  0.00000 -0.62537
       5     H     0.39751  0.39751  0.00000  0.20498
       6     H     0.39986  0.39986  0.00000  0.20028
       7     H     0.39751  0.39751  0.00000  0.20499
       8     C     2.99566  2.99566  0.00000  0.00868
       9     C     3.16525  3.16525  0.00000 -0.33051
      10     H     0.41071  0.41071  0.00000  0.17857
      11     H     0.41075  0.41075  0.00000  0.17850
      12     C     3.16014  3.16014  0.00000 -0.32028
      13     H     0.41439  0.41439  0.00000  0.17122
      14     H     0.41423  0.41423  0.00000  0.17153
      15     C     3.15166  3.15166  0.00000 -0.30332
      16     H     0.42032  0.42032  0.00000  0.15936
      17     H     0.42035  0.42035  0.00000  0.15930
      18     C     3.24003  3.24003  0.00000 -0.48006
      19     H     0.42076  0.42076  0.00000  0.15848
      20     H     0.42104  0.42104  0.00000  0.15793
      21     H     0.42092  0.42092  0.00000  0.15816
      22     H     0.41829  0.41829  0.00000  0.16342
      23     H     0.42096  0.42096  0.00000  0.15808

   Total alpha = 36.00000, Total beta = 36.00000, Total charge = -0.00000
