                              Psi4 1.0.54 Driver

  ==> Input File <==

--------------------------------------------------------------------------
set {
	reference rhf
	basis cc-pvtz
}

set_num_threads( 4 )
memory 2 gb

molecule MOL {
0 1

H	 2.182630	 -1.170055	 -1.852812
O	 1.612690	 -1.313022	 -1.112228
C	 0.637205	 -0.409953	 -1.151154
C	 -0.318151	 -0.570512	 0.000144
O	 0.566647	 0.403797	 -2.006024
C	 -1.454884	 0.441630	 -0.000560
H	 -0.695908	 -1.587285	 -0.036793
H	 0.266307	 -0.505936	 0.912360
C	 -2.822577	 -0.232186	 0.000063
H	 -1.359760	 1.084704	 -0.867077
H	 -1.359641	 1.085996	 0.864983
H	 -2.954352	 -0.858985	 -0.875745
H	 -3.615886	 0.505352	 0.000019
H	 -2.953878	 -0.858359	 0.876394

	symmetry c1
}
set optking {
	frozen_dihedral = ("
		7 4 6 10
	")
}

ee,wfn = optimize('scf', return_wfn=True)
oeprop( wfn, 'DIPOLE', 'QUADRUPOLE', 'MULLIKEN_CHARGES')
f=open( 'psi4out.xyz', 'w' )
f.write( "14  " )
f.write( str(ee) + "\n" )
f.write( MOL.save_string_xyz() )
f.close()
--------------------------------------------------------------------------

    Molecular point group: c1
  Charge       = 0
  Multiplicity = 1
  Basis Set: CC-PVTZ
  Basis Set:
  @DF-RHF Final Energy:  -305.99593372983566
    Total Energy =                       -305.9959337298355422
    Molecular point group: c1
  Basis Set: CC-PVTZ
  Basis Set:
  Basis Set: CC-PVTZ
  Basis Set:
  @DF-RHF Final Energy:  -305.99622719691763
    Total Energy =                       -305.9962271969176300
  Basis Set: CC-PVTZ
  Basis Set:
  Basis Set: CC-PVTZ
  Basis Set:
  @DF-RHF Final Energy:  -305.99617665837286
    Total Energy =                       -305.9961766583729172
  Basis Set: CC-PVTZ
  Basis Set:
  Basis Set: CC-PVTZ
  Basis Set:
  @DF-RHF Final Energy:  -305.99632066059280
    Total Energy =                       -305.9963206605928008
  Basis Set: CC-PVTZ
  Basis Set:
  Basis Set: CC-PVTZ
  Basis Set:
  @DF-RHF Final Energy:  -305.99632290236718
    Total Energy =                       -305.9963229023674103
  Basis Set: CC-PVTZ
  Basis Set:
  Basis Set: CC-PVTZ
  Basis Set:
  @DF-RHF Final Energy:  -305.99632406788999
    Total Energy =                       -305.9963240678897591
  Basis Set: CC-PVTZ
  Basis Set:
  Charge       = 0
  Multiplicity = 1
  Basis Set: CC-PVTZ
  Basis Set:

    Orbital Energies (a.u.)
    -----------------------

    Doubly Occupied:

       1A    -20.604692     2A    -20.541883     3A    -11.374978
       4A    -11.239804     5A    -11.222153     6A    -11.214164
       7A     -1.478782     8A     -1.370196     9A     -1.080928
      10A     -0.980776    11A     -0.859986    12A     -0.791917
      13A     -0.705534    14A     -0.695706    15A     -0.662759
      16A     -0.615609    17A     -0.598727    18A     -0.569482
      19A     -0.556728    20A     -0.497140    21A     -0.491146
      22A     -0.486611    23A     -0.478348    24A     -0.449880

  @DF-RHF Final Energy:  -305.99632468056376

   => Energetics <=

    Nuclear Repulsion Energy =            241.0562428063634002
    One-Electron Energy =                -894.9692832636719686
    Two-Electron Energy =                 347.9167157767449226
    DFT Exchange-Correlation Energy =       0.0000000000000000
    Empirical Dispersion Energy =           0.0000000000000000
    PCM Polarization Energy =               0.0000000000000000
    EFP Energy =                            0.0000000000000000
    Total Energy =                       -305.9963246805637027
    Molecular point group: c1
  Basis Set: CC-PVTZ
  Basis Set:

  -Total Gradient:
     Atom            X                  Y                   Z
    ------   -----------------  -----------------  -----------------
       1       -0.000018984457    -0.000003097431     0.000029334857
       2        0.000021469442     0.000004147384    -0.000039660335
       3        0.000015512541     0.000084785567    -0.000138411102
       4        0.000025317603     0.000058034954    -0.000471797907
       5        0.000023423060    -0.000094868256     0.000118699540
       6       -0.000265168898    -0.000322735310    -0.000148413560
       7        0.000005564858    -0.000009127281     0.000421057155
       8        0.000013250460     0.000007359092     0.000002936069
       9       -0.000005467567     0.000020527095     0.000003144490
      10        0.000217987069     0.000256341548     0.000228913854
      11       -0.000024727971    -0.000003116765    -0.000007925783
      12        0.000004751821    -0.000000394077     0.000006802835
      13       -0.000013473700     0.000000531645    -0.000005013778
      14        0.000000545740     0.000001611834     0.000000333664

  **** Optimization is complete! (in 7 steps) ****
    Final optimized geometry and variables:
    Molecular point group: c1

    Geometry (in Angstrom), charge = 0, multiplicity = 1:

    H            2.471683323323    -0.873261604669    -1.087776139644
    O            1.897135295594    -1.001910877752    -0.348231527722
    C            0.909408553722    -0.114381973527    -0.423812046275
    C           -0.052963805312    -0.267609733300     0.725954068526
    O            0.839201134363     0.671259811713    -1.304367362416
    C           -1.210709531792     0.740255180301     0.738368947545
    H           -0.414272061249    -1.289527349104     0.684247896854
    H            0.540116218383    -0.213304525244     1.631261102006
    C           -2.583208535894     0.073980715218     0.746117654672
    H           -1.124801915316     1.386664551573    -0.122995267923
    H           -1.118943028056     1.377041225302     1.610385148213
    H           -2.723774382315    -0.537652127674    -0.138747536291
    H           -3.372789603739     0.815715406035     0.764167152370
    H           -2.708871829307    -0.564660714881     1.614320339437

  Mulliken Charges: (a.u.)
   Center  Symbol    Alpha    Beta     Spin     Total
       1     H     0.38247  0.38247  0.00000  0.23506
       2     O     4.16013  4.16013  0.00000 -0.32027
       3     C     2.80083  2.80083  0.00000  0.39834
       4     C     3.11439  3.11439  0.00000 -0.22879
       5     O     4.19080  4.19080  0.00000 -0.38161
       6     C     3.08941  3.08941  0.00000 -0.17883
       7     H     0.43757  0.43757  0.00000  0.12486
       8     H     0.43251  0.43251  0.00000  0.13497
       9     C     3.14879  3.14879  0.00000 -0.29758
      10     H     0.43540  0.43540  0.00000  0.12920
      11     H     0.45107  0.45107  0.00000  0.09786
      12     H     0.45344  0.45344  0.00000  0.09313
      13     H     0.44754  0.44754  0.00000  0.10492
      14     H     0.45563  0.45563  0.00000  0.08873

   Total alpha = 24.00000, Total beta = 24.00000, Total charge = -0.00000

*** Psi4 exiting successfully. Buy a developer a beer!
