  ==> Input File <==

--------------------------------------------------------------------------
set {
	reference rhf
	basis 6-31G*
}

set_num_threads( 4 )
memory 2 gb

molecule MOL {
0 1

H	 -3.269016	 -0.876744	 0.468090
C	 -2.809304	 0.000122	 0.025886
N	 -1.391456	 0.000019	 0.300661
H	 -3.037557	 -0.000063	 -1.044252
H	 -3.269223	 0.876956	 0.468000
C	 -0.596090	 -0.000307	 -0.911437
C	 -0.999934	 -1.089818	 1.172884
H	 -0.771105	 -0.901588	 -1.506894
H	 -0.881303	 0.854351	 -1.516231
C	 0.884107	 0.093451	 -0.575591
H	 -1.579703	 -1.029754	 2.088207
H	 -1.201680	 -2.063224	 0.715403
C	 0.480264	 -0.996060	 1.508731
H	 1.463877	 0.033387	 -1.490913
H	 1.085853	 1.066856	 -0.118109
N	 1.275630	 -0.996387	 0.296633
H	 0.765477	 -1.850719	 2.113524
H	 0.655279	 -0.094779	 2.104188
C	 2.693478	 -0.996491	 0.571407
H	 3.247627	 -1.060221	 -0.358448
H	 2.951055	 -1.860841	 1.173387
H	 3.025965	 -0.100353	 1.104030

	symmetry c1
}
set optking {
	frozen_dihedral = ("
		6 3 2 4
	")
}

ee = optimize('scf')
oeprop('DIPOLE', 'QUADRUPOLE', 'MULLIKEN_CHARGES')
f=open( 'psi4out.xyz', 'w' )
f.write( "22  " )
f.write( str(ee) + "\n" )
f.write( MOL.save_string_xyz() )
f.close()
--------------------------------------------------------------------------

    Molecular point group: c1
  Charge       = 0
  Multiplicity = 1
  Basis Set: 6-31G*
  Basis Set:
  @DF-RHF Final Energy:  -344.22347125727748
    Total Energy =                       -344.2234712572775379
    Molecular point group: c1
  Basis Set: 6-31G*
  Basis Set:
  Basis Set: 6-31G*
  Basis Set:
  @DF-RHF Final Energy:  -344.22417778510345
    Total Energy =                       -344.2241777851033930
  Basis Set: 6-31G*
  Basis Set:
  Basis Set: 6-31G*
  Basis Set:
  @DF-RHF Final Energy:  -344.22433074885879
    Total Energy =                       -344.2243307488585060
  Basis Set: 6-31G*
  Basis Set:
  Basis Set: 6-31G*
  Basis Set:
  @DF-RHF Final Energy:  -344.22434063846481
    Total Energy =                       -344.2243406384645823
  Basis Set: 6-31G*
  Basis Set:
  Charge       = 0
  Multiplicity = 1
  Basis Set: 6-31G*
  Basis Set:

    Orbital Energies (a.u.)
    -----------------------

    Doubly Occupied:

       1A    -15.541190     2A    -15.537715     3A    -11.238364
       4A    -11.238309     5A    -11.237295     6A    -11.237273
       7A    -11.235729     8A    -11.235366     9A     -1.252407
      10A     -1.200432    11A     -1.024113    12A     -0.990372
      13A     -0.911872    14A     -0.866211    15A     -0.835457
      16A     -0.753503    17A     -0.664194    18A     -0.634254
      19A     -0.629369    20A     -0.623644    21A     -0.618663
      22A     -0.578759    23A     -0.551270    24A     -0.549542
      25A     -0.542110    26A     -0.519583    27A     -0.497176
      28A     -0.486984    29A     -0.464527    30A     -0.454865
      31A     -0.348180    32A     -0.337985

  @DF-RHF Final Energy:  -344.22434168510728

   => Energetics <=

    Nuclear Repulsion Energy =            420.7740390114376510
    One-Electron Energy =               -1300.3233332830104700
    Two-Electron Energy =                 535.3249525864657699
    DFT Exchange-Correlation Energy =       0.0000000000000000
    Empirical Dispersion Energy =           0.0000000000000000
    PCM Polarization Energy =               0.0000000000000000
    EFP Energy =                            0.0000000000000000
    Total Energy =                       -344.2243416851069924
    Molecular point group: c1
  Basis Set: 6-31G*
  Basis Set:

  -Total Gradient:
     Atom            X                  Y                   Z
    ------   -----------------  -----------------  -----------------
       1       -0.000002446511    -0.000001100370    -0.000002583345
       2       -0.000012978656     0.002180462050     0.000061507322
       3       -0.000003306573    -0.001784671880    -0.000067333060
       4       -0.000038730410    -0.001368938416    -0.000059959608
       5        0.000038103827    -0.000038948202     0.000003080846
       6        0.000016464660     0.001023595802     0.000018935416
       7       -0.000008361093     0.000014922965     0.000023622182
       8       -0.000011624500     0.000000230323     0.000006284241
       9        0.000003669508    -0.000002691912     0.000003641601
      10        0.000014143952     0.000010480107     0.000008509265
      11        0.000004257064    -0.000003526664    -0.000002088015
      12        0.000006592602     0.000003761083     0.000004943809
      13       -0.000000291970    -0.000042811978     0.000012004090
      14        0.000003258675     0.000000514018    -0.000000134179
      15       -0.000003306246     0.000007450935    -0.000003169986
      16       -0.000020390768     0.000014463073    -0.000000312065
      17        0.000016804788    -0.000002121386     0.000007246655
      18       -0.000016683661    -0.000005570660    -0.000004236213
      19        0.000003469701    -0.000009002493    -0.000012285782
      20        0.000007775486     0.000000975903     0.000003085403
      21        0.000005305959     0.000001761544     0.000000011862
      22       -0.000001725835     0.000000766156    -0.000000770440

  **** Optimization is complete! (in 5 steps) ****
    Final optimized geometry and variables:
    Molecular point group: c1

    Geometry (in Angstrom), charge = 0, multiplicity = 1:

    H           -3.276651810669    -0.355888113225     0.126860540084
    C           -2.769558324425     0.526839460430    -0.254903829082
    N           -1.335867095562     0.464611812497    -0.017603930262
    H           -2.990015344997     0.576167225026    -1.316316182986
    H           -3.209476730287     1.396688091453     0.223638454511
    C           -0.533881904868     0.481755065996    -1.223888935432
    C           -0.937471505810    -0.604084446033     0.874762359418
    H           -0.691181542984    -0.414849144166    -1.831514175095
    H           -0.820426742126     1.339950021244    -1.822210267805
    C            0.942364510027     0.590801600684    -0.875825055988
    H           -1.516415144196    -0.530084519038     1.789434342680
    H           -1.130555162340    -1.589207434422     0.438881470529
    C            0.540906440207    -0.491675886000     1.212075074812
    H            1.530263435013     0.535581938533    -1.786380868263
    H            1.129979837863     1.566871875700    -0.417796068120
    N            1.338921547415    -0.493189009381     0.001584998302
    H            0.834387214463    -1.338084603664     1.824662478306
    H            0.705179383733     0.416689748954     1.799889308519
    C            2.755978944586    -0.481713347834     0.279974953776
    H            3.313360661705    -0.545867693994    -0.647953610881
    H            3.018243909572    -1.341217968877     0.886861985176
    H            3.080655658868     0.419285336018     0.809316618782

  Mulliken Charges: (a.u.)
   Center  Symbol    Alpha    Beta     Spin     Total
       1     H     0.42405  0.42405  0.00000  0.15190
       2     C     3.13891  3.13891  0.00000 -0.27781
       3     N     3.79346  3.79346  0.00000 -0.58692
       4     H     0.42172  0.42172  0.00000  0.15656
       5     H     0.41632  0.41632  0.00000  0.16735
       6     C     3.05463  3.05463  0.00000 -0.10926
       7     C     3.05487  3.05487  0.00000 -0.10974
       8     H     0.42932  0.42932  0.00000  0.14136
       9     H     0.41771  0.41771  0.00000  0.16458
      10     C     3.05660  3.05660  0.00000 -0.11320
      11     H     0.41764  0.41764  0.00000  0.16472
      12     H     0.42914  0.42914  0.00000  0.14173
      13     C     3.05647  3.05647  0.00000 -0.11293
      14     H     0.41840  0.41840  0.00000  0.16319
      15     H     0.42889  0.42889  0.00000  0.14222
      16     N     3.78713  3.78713  0.00000 -0.57425
      17     H     0.41838  0.41838  0.00000  0.16325
      18     H     0.42891  0.42891  0.00000  0.14219
      19     C     3.14010  3.14010  0.00000 -0.28020
      20     H     0.41689  0.41689  0.00000  0.16622
      21     H     0.41689  0.41689  0.00000  0.16622
      22     H     0.43358  0.43358  0.00000  0.13284

   Total alpha = 32.00000, Total beta = 32.00000, Total charge =  0.00000
