  ==> Input File <==

--------------------------------------------------------------------------
set {
	reference rhf
	basis 6-31G*
}

set_num_threads( 4 )
memory 2 gb

molecule MOL {
0 1

H	 3.277965	 0.168151	 -0.057427
N	 2.434719	 -0.371887	 -0.029006
C	 1.267428	 0.496480	 0.024474
H	 2.484848	 -0.943800	 0.792771
C	 -0.016086	 -0.325158	 -0.029487
H	 1.307324	 1.155999	 -0.837197
H	 1.249933	 1.137966	 0.909103
C	 -1.282277	 0.529072	 0.046735
H	 -0.012495	 -0.908639	 -0.945788
H	 -0.015903	 -1.041248	 0.791956
C	 -2.563920	 -0.301775	 -0.006060
H	 -1.284084	 1.244622	 -0.773004
H	 -1.271387	 1.115393	 0.963286
H	 -2.621848	 -0.873522	 -0.927727
H	 -3.445135	 0.329952	 0.047812
H	 -2.609542	 -1.004582	 0.821105

	symmetry c1
}
set optking {
	frozen_dihedral = ("
		6 3 5 9
	")
}

ee = optimize('scf')
oeprop('DIPOLE', 'QUADRUPOLE', 'MULLIKEN_CHARGES')
f=open( 'psi4out.xyz', 'w' )
f.write( "16  " )
f.write( str(ee) + "\n" )
f.write( MOL.save_string_xyz() )
f.close()
--------------------------------------------------------------------------

    Molecular point group: c1
  Charge       = 0
  Multiplicity = 1
  Basis Set: 6-31G*
  Basis Set:
  @DF-RHF Final Energy:  -212.31700155439626
    Total Energy =                       -212.3170015543961995
    Molecular point group: c1
  Basis Set: 6-31G*
  Basis Set:
  Charge       = 0
  Multiplicity = 1
  Basis Set: 6-31G*
  Basis Set:

    Orbital Energies (a.u.)
    -----------------------

    Doubly Occupied:

       1A    -15.532575     2A    -11.239925     3A    -11.214995
       4A    -11.209678     5A    -11.207891     6A     -1.176782
       7A     -1.059504     8A     -0.958572     9A     -0.843686
      10A     -0.791869    11A     -0.664775    12A     -0.636254
      13A     -0.606491    14A     -0.574996    15A     -0.564017
      16A     -0.525893    17A     -0.499983    18A     -0.470347
      19A     -0.464934    20A     -0.461361    21A     -0.381207

  @DF-RHF Final Energy:  -212.31700183065954

   => Energetics <=

    Nuclear Repulsion Energy =            186.2729835560805896
    One-Electron Energy =                -655.0085020727794927
    Two-Electron Energy =                 256.4185166860393110
    DFT Exchange-Correlation Energy =       0.0000000000000000
    Empirical Dispersion Energy =           0.0000000000000000
    PCM Polarization Energy =               0.0000000000000000
    EFP Energy =                            0.0000000000000000
    Total Energy =                       -212.3170018306595921
    Molecular point group: c1
  Basis Set: 6-31G*
  Basis Set:

  -Total Gradient:
     Atom            X                  Y                   Z
    ------   -----------------  -----------------  -----------------
       1       -0.000004138528     0.000007527115    -0.000021626620
       2       -0.000112527473     0.000113610594    -0.000176177790
       3       -0.000277429138     0.000455725722     0.000443429409
       4       -0.000082521044     0.000041298466     0.000001521030
       5        0.000320430258    -0.000510081900     0.000361463915
       6        0.000350110269    -0.000392488090    -0.000306932424
       7        0.000014807676     0.000061362330     0.000037425991
       8        0.000073558845    -0.000051706792    -0.000110976607
       9       -0.000361106907     0.000333993552    -0.000237797005
      10        0.000043129574    -0.000027510456     0.000067960765
      11        0.000000333710    -0.000011288033    -0.000083854361
      12       -0.000002246444     0.000050547814     0.000032345253
      13        0.000035681283    -0.000078664418     0.000014856715
      14       -0.000015396148    -0.000019511233    -0.000002283366
      15        0.000003996054     0.000004298633    -0.000019132599
      16        0.000013318014     0.000022886695    -0.000000222309

  **** Optimization is complete! (in 2 steps) ****
    Final optimized geometry and variables:
    Molecular point group: c1

    Geometry (in Angstrom), charge = 0, multiplicity = 1:

    H            3.276763490127     0.168057672374    -0.092329862879
    N            2.433856759369    -0.371436209445    -0.047879295691
    C            1.267296438573     0.497310592823     0.012343377860
    H            2.494224023964    -0.935739381240     0.778377540791
    C           -0.015814264683    -0.326083737903    -0.025957139767
    H            1.300530877591     1.148784512546    -0.855659184444
    H            1.258555135390     1.144907655214     0.892668595506
    C           -1.281742545949     0.529008431975     0.043977127425
    H           -0.017737347050    -0.917958129892    -0.936822572980
    H           -0.012413992426    -1.033026851279     0.803276358561
    C           -2.563752685547    -0.299835252198    -0.028550275548
    H           -1.274663209191     1.251329335468    -0.769810570865
    H           -1.279248220553     1.107780482257     0.965315129936
    H           -2.613171634373    -0.864096529054    -0.955339233188
    H           -3.444745350907     0.332575327149     0.021579836834
    H           -2.618483010026    -1.009243915240     0.792407515998

  Mulliken Charges: (a.u.)
   Center  Symbol    Alpha    Beta     Spin     Total
       1     H     0.33249  0.33249  0.00000  0.33501
       2     N     3.92180  3.92180  0.00000 -0.84361
       3     C     3.06052  3.06052  0.00000 -0.12105
       4     H     0.33537  0.33537  0.00000  0.32926
       5     C     3.14991  3.14991  0.00000 -0.29983
       6     H     0.42078  0.42078  0.00000  0.15843
       7     H     0.43472  0.43472  0.00000  0.13055
       8     C     3.15569  3.15569  0.00000 -0.31138
       9     H     0.41364  0.41364  0.00000  0.17273
      10     H     0.42776  0.42776  0.00000  0.14447
      11     C     3.23866  3.23866  0.00000 -0.47732
      12     H     0.42272  0.42272  0.00000  0.15456
      13     H     0.42377  0.42377  0.00000  0.15246
      14     H     0.42056  0.42056  0.00000  0.15888
      15     H     0.41965  0.41965  0.00000  0.16070
      16     H     0.42194  0.42194  0.00000  0.15611

   Total alpha = 21.00000, Total beta = 21.00000, Total charge = -0.00000
