  ==> Input File <==

--------------------------------------------------------------------------
set {
	reference rhf
	basis 6-31G*
}

set_num_threads( 4 )
memory 2 gb

molecule MOL {
0 1

H	 3.089270	 -1.380733	 0.000000
O	 2.178328	 -1.639175	 0.000000
C	 1.368216	 -0.558384	 0.000000
C	 0.109153	 -0.572097	 -0.586409
C	 1.833362	 0.591862	 0.613193
H	 -0.250938	 -1.468280	 -1.063093
C	 -0.683214	 0.563283	 -0.559309
H	 2.805691	 0.603803	 1.066523
C	 1.033782	 1.724211	 0.635912
H	 -1.655775	 0.540606	 -1.016464
C	 -0.226369	 1.717212	 0.051325
C	 1.527362	 2.963346	 1.293021
H	 -0.840169	 2.600253	 0.073541
O	 2.588124	 3.070420	 1.820149
H	 0.832587	 3.808171	 1.264595

	symmetry c1
}
set optking {
	frozen_dihedral = ("
		4 3 2 1
	")
}

ee = optimize('scf')
oeprop('DIPOLE', 'QUADRUPOLE', 'MULLIKEN_CHARGES')
f=open( 'psi4out.xyz', 'w' )
f.write( "15  " )
f.write( str(ee) + "\n" )
f.write( MOL.save_string_xyz() )
f.close()
--------------------------------------------------------------------------

    Molecular point group: c1
  Charge       = 0
  Multiplicity = 1
  Basis Set: 6-31G*
  Basis Set:
  @DF-RHF Final Energy:  -418.28436471971378
    Total Energy =                       -418.2843647197137216
    Molecular point group: c1
  Basis Set: 6-31G*
  Basis Set:
  Basis Set: 6-31G*
  Basis Set:
  @DF-RHF Final Energy:  -418.28617441385177
    Total Energy =                       -418.2861744138519953
  Basis Set: 6-31G*
  Basis Set:
  Basis Set: 6-31G*
  Basis Set:
  @DF-RHF Final Energy:  -418.28572686998962
    Total Energy =                       -418.2857268699896167
  Basis Set: 6-31G*
  Basis Set:
  Basis Set: 6-31G*
  Basis Set:
  @DF-RHF Final Energy:  -418.28629246127616
    Total Energy =                       -418.2862924612760480
  Basis Set: 6-31G*
  Basis Set:
  Basis Set: 6-31G*
  Basis Set:
  @DF-RHF Final Energy:  -418.28635522651615
    Total Energy =                       -418.2863552265159797
  Basis Set: 6-31G*
  Basis Set:
  Basis Set: 6-31G*
  Basis Set:
  @DF-RHF Final Energy:  -418.28635752900340
    Total Energy =                       -418.2863575290035669
  Basis Set: 6-31G*
  Basis Set:
  Charge       = 0
  Multiplicity = 1
  Basis Set: 6-31G*
  Basis Set:

    Orbital Energies (a.u.)
    -----------------------

    Doubly Occupied:

       1A    -20.597581     2A    -20.566768     3A    -11.335170
       4A    -11.310246     5A    -11.253243     6A    -11.251176
       7A    -11.248903     8A    -11.245399     9A    -11.244451
      10A     -1.416406    11A     -1.407304    12A     -1.170023
      13A     -1.049512    14A     -1.026129    15A     -0.900387
      16A     -0.851937    17A     -0.796941    18A     -0.752392
      19A     -0.700201    20A     -0.668195    21A     -0.660871
      22A     -0.628875    23A     -0.615458    24A     -0.606577
      25A     -0.564349    26A     -0.551570    27A     -0.534558
      28A     -0.515579    29A     -0.486115    30A     -0.425994
      31A     -0.353065    32A     -0.330166

  @DF-RHF Final Energy:  -418.28635798944708

   => Energetics <=

    Nuclear Repulsion Energy =            403.1545727759577176
    One-Electron Energy =               -1368.7507797115781614
    Two-Electron Energy =                 547.3098489461735880
    DFT Exchange-Correlation Energy =       0.0000000000000000
    Empirical Dispersion Energy =           0.0000000000000000
    PCM Polarization Energy =               0.0000000000000000
    EFP Energy =                            0.0000000000000000
    Total Energy =                       -418.2863579894468558
    Molecular point group: c1
  Basis Set: 6-31G*
  Basis Set:

  -Total Gradient:
     Atom            X                  Y                   Z
    ------   -----------------  -----------------  -----------------
       1       -0.000052532766     0.000073554614    -0.002660963103
       2        0.000432376513     0.000142379171     0.002540772192
       3       -0.001151001687    -0.000783812567     0.001744680743
       4        0.000753280778     0.000590208918    -0.001638351211
       5        0.000006026178     0.000003360122    -0.000010002570
       6        0.000008445061     0.000003911075     0.000002756678
       7        0.000004883420    -0.000029047659     0.000017985336
       8        0.000001462086    -0.000000287399     0.000007835055
       9       -0.000020611929     0.000002337367     0.000037855918
      10       -0.000000716121    -0.000000301847    -0.000005199302
      11        0.000015960109     0.000001424465    -0.000024773772
      12       -0.000005056759     0.000014513077    -0.000033342787
      13        0.000001350939    -0.000000373433     0.000000231192
      14        0.000008541717    -0.000005807059     0.000012682224
      15       -0.000002407544    -0.000012058841     0.000007833410

  **** Optimization is complete! (in 7 steps) ****
    Final optimized geometry and variables:
    Molecular point group: c1

    Geometry (in Angstrom), charge = 0, multiplicity = 1:

    H            1.906980275334    -2.341024596694    -0.424462480438
    O            0.981349482155    -2.542010148563    -0.415167427495
    C            0.244171924998    -1.405432455273    -0.369719306756
    C           -1.012704185746    -1.430037534919    -0.967488940257
    C            0.696782667445    -0.254786356372     0.241651209119
    H           -1.338916739082    -2.335282963370    -1.444755922261
    C           -1.815057729727    -0.307549538519    -0.935387137256
    H            1.663024899732    -0.218398075612     0.711408075039
    C           -0.111893042053     0.878101152739     0.259182834789
    H           -2.785856917548    -0.335042005015    -1.395818164705
    C           -1.367338267105     0.855620519123    -0.323149475066
    C            0.375704343295     2.119391526240     0.912095861866
    H           -1.989926081032     1.732735178731    -0.303661102963
    O            1.443000742639     2.234368527042     1.426253704546
    H           -0.326104727679     2.958242070962     0.894191667883

  Mulliken Charges: (a.u.)
   Center  Symbol    Alpha    Beta     Spin     Total
       1     H     0.26945  0.26945  0.00000  0.46110
       2     O     4.38044  4.38044  0.00000 -0.76087
       3     C     2.79896  2.79896  0.00000  0.40208
       4     C     3.11153  3.11153  0.00000 -0.22306
       5     C     3.13011  3.13011  0.00000 -0.26022
       6     H     0.38578  0.38578  0.00000  0.22843
       7     C     3.09765  3.09765  0.00000 -0.19531
       8     H     0.37952  0.37952  0.00000  0.24096
       9     C     3.04726  3.04726  0.00000 -0.09453
      10     H     0.39258  0.39258  0.00000  0.21485
      11     C     3.11313  3.11313  0.00000 -0.22627
      12     C     2.83222  2.83222  0.00000  0.33556
      13     H     0.39273  0.39273  0.00000  0.21455
      14     O     4.24798  4.24798  0.00000 -0.49595
      15     H     0.42067  0.42067  0.00000  0.15867

   Total alpha = 32.00000, Total beta = 32.00000, Total charge =  0.00000
