  ==> Input File <==

--------------------------------------------------------------------------
set {
	reference rhf
	basis 6-31G*
}

set_num_threads( 1 )
memory 2 gb

molecule MOL {
0 1

H	 2.591676	 2.013956	 0.335017
O	 3.341076	 1.666752	 -0.126416
C	 3.569581	 0.339145	 0.272707
C	 2.539767	 -0.640285	 -0.279495
H	 4.553106	 0.084646	 -0.100901
H	 3.608576	 0.269204	 1.359154
C	 2.996737	 -1.379075	 -1.539748
H	 2.297108	 -1.360201	 0.497811
H	 1.627342	 -0.086939	 -0.495490
C	 1.921032	 -2.313837	 -2.100013
H	 3.892321	 -1.950980	 -1.313431
H	 3.272950	 -0.653322	 -2.304816
C	 2.296068	 -3.014471	 -3.411043
H	 1.671700	 -3.062652	 -1.350375
H	 1.013382	 -1.737170	 -2.265320
C	 3.444111	 -4.021315	 -3.298171
H	 1.415807	 -3.533000	 -3.785322
H	 2.545975	 -2.264908	 -4.160403
C	 3.711044	 -4.770065	 -4.605670
H	 3.214620	 -4.740994	 -2.513628
H	 4.356357	 -3.515845	 -2.990583
C	 4.860758	 -5.771127	 -4.497522
H	 2.806931	 -5.291245	 -4.912982
H	 3.930998	 -4.052026	 -5.393023
H	 4.656339	 -6.522599	 -3.740075
H	 5.023849	 -6.286655	 -5.438940
H	 5.788875	 -5.275192	 -4.227318

	symmetry c1
}
set optking {
	frozen_dihedral = ("
		14 10 7 4,
		14 10 13 16,
		10 7 4 8,
		10 13 16 20,
		20 16 19 22,
		4 3 2 1
	")
}

ee = energy('scf')
oeprop('DIPOLE', 'QUADRUPOLE', 'MULLIKEN_CHARGES')
f=open( 'psi4out.xyz', 'w' )
f.write( "27  " )
f.write( str(ee) + "\n" )
f.write( MOL.save_string_xyz() )
f.close()
--------------------------------------------------------------------------

    Molecular point group: c1

    Geometry (in Angstrom), charge = 0, multiplicity = 1:

       Center              X                  Y                   Z               Mass
    ------------   -----------------  -----------------  -----------------  -----------------
           H         -0.606778022290     4.169659011556     2.476357729571     1.007825032070
           O          0.142621977710     3.822455011556     2.014924729571    15.994914619560
           C          0.371126977710     2.494848011556     2.414047729571    12.000000000000
           C         -0.658687022290     1.515418011556     1.861845729571    12.000000000000
           H          1.354651977710     2.240349011556     2.040439729571     1.007825032070
           H          0.410121977710     2.424907011556     3.500494729571     1.007825032070
           C         -0.201717022290     0.776628011556     0.601592729571    12.000000000000
           H         -0.901346022290     0.795502011556     2.639151729571     1.007825032070
           H         -1.571112022290     2.068764011556     1.645850729571     1.007825032070
           C         -1.277422022290    -0.158133988444     0.041327729571    12.000000000000
           H          0.693866977710     0.204723011556     0.827909729571     1.007825032070
           H          0.074495977710     1.502381011556    -0.163475270429     1.007825032070
           C         -0.902386022290    -0.858767988444    -1.269702270429    12.000000000000
           H         -1.526754022290    -0.906948988444     0.790965729571     1.007825032070
           H         -2.185072022290     0.418533011556    -0.123979270429     1.007825032070
           C          0.245656977710    -1.865611988444    -1.156830270429    12.000000000000
           H         -1.782647022290    -1.377296988444    -1.643981270429     1.007825032070
           H         -0.652479022290    -0.109204988444    -2.019062270429     1.007825032070
           C          0.512589977710    -2.614361988444    -2.464329270429    12.000000000000
           H          0.016165977710    -2.585290988444    -0.372287270429     1.007825032070
           H          1.157902977710    -1.360141988444    -0.849242270429     1.007825032070
           C          1.662303977710    -3.615423988444    -2.356181270429    12.000000000000
           H         -0.391523022290    -3.135541988444    -2.771641270429     1.007825032070
           H          0.732543977710    -1.896322988444    -3.251682270429     1.007825032070
           H          1.457884977710    -4.366895988444    -1.598734270429     1.007825032070
           H          1.825394977710    -4.130951988444    -3.297599270429     1.007825032070
           H          2.590420977710    -3.119488988444    -2.085977270429     1.007825032070

  Charge       = 0
  Multiplicity = 1
  Basis Set: 6-31G*
  Basis Set:

    Orbital Energies (a.u.)
    -----------------------

    Doubly Occupied:

       1A    -20.551178     2A    -11.266101     3A    -11.214553
       4A    -11.213956     5A    -11.213683     6A    -11.213200
       7A    -11.212366     8A    -11.211426     9A    -11.207456
      10A     -1.358193    11A     -1.092175    12A     -1.059605
      13A     -1.009767    14A     -0.944541    15A     -0.882404
      16A     -0.821374    17A     -0.802614    18A     -0.775666
      19A     -0.687228    20A     -0.648926    21A     -0.633955
      22A     -0.610186    23A     -0.606749    24A     -0.581535
      25A     -0.575347    26A     -0.554829    27A     -0.535633
      28A     -0.523274    29A     -0.509622    30A     -0.489335
      31A     -0.481588    32A     -0.472905    33A     -0.464176
      34A     -0.458250    35A     -0.451919    36A     -0.440823
      37A     -0.417891

  @DF-RHF Final Energy:  -388.27725358580608

   => Energetics <=

    Nuclear Repulsion Energy =            455.4261083684170899
    One-Electron Energy =               -1429.0178010887891560
    Two-Electron Energy =                 585.3144391345678059
    DFT Exchange-Correlation Energy =       0.0000000000000000
    Empirical Dispersion Energy =           0.0000000000000000
    PCM Polarization Energy =               0.0000000000000000
    EFP Energy =                            0.0000000000000000
    Total Energy =                       -388.2772535858042602

  Mulliken Charges: (a.u.)
   Center  Symbol    Alpha    Beta     Spin     Total
       1     H     0.28303  0.28303  0.00000  0.43393
       2     O     4.37009  4.37009  0.00000 -0.74019
       3     C     2.99890  2.99890  0.00000  0.00220
       4     C     3.16406  3.16406  0.00000 -0.32813
       5     H     0.41461  0.41461  0.00000  0.17078
       6     H     0.42959  0.42959  0.00000  0.14083
       7     C     3.15927  3.15927  0.00000 -0.31854
       8     H     0.42334  0.42334  0.00000  0.15333
       9     H     0.42091  0.42091  0.00000  0.15818
      10     C     3.15348  3.15348  0.00000 -0.30697
      11     H     0.42138  0.42138  0.00000  0.15723
      12     H     0.41615  0.41615  0.00000  0.16770
      13     C     3.15325  3.15325  0.00000 -0.30651
      14     H     0.42485  0.42485  0.00000  0.15030
      15     H     0.42185  0.42185  0.00000  0.15631
      16     C     3.15273  3.15273  0.00000 -0.30546
      17     H     0.42221  0.42221  0.00000  0.15558
      18     H     0.42299  0.42299  0.00000  0.15401
      19     C     3.15114  3.15114  0.00000 -0.30228
      20     H     0.42514  0.42514  0.00000  0.14972
      21     H     0.42212  0.42212  0.00000  0.15577
      22     C     3.23916  3.23916  0.00000 -0.47831
      23     H     0.42336  0.42336  0.00000  0.15327
      24     H     0.42276  0.42276  0.00000  0.15447
      25     H     0.42218  0.42218  0.00000  0.15563
      26     H     0.41951  0.41951  0.00000  0.16098
      27     H     0.42192  0.42192  0.00000  0.15615

   Total alpha = 37.00000, Total beta = 37.00000, Total charge = -0.00000
