  ==> Input File <==

--------------------------------------------------------------------------
set {
	reference rhf
	basis cc-pvtz
}

set_num_threads( 4 )
memory 2 gb

molecule MOL {
0 1

H	 2.768375	 0.594535	 -0.596242
N	 2.326826	 -0.066186	 0.000000
C	 0.934676	 -0.005420	 0.000000
H	 2.699765	 -0.977319	 -0.133324
C	 0.226436	 -0.001077	 -1.195129
C	 0.226436	 -0.001077	 1.195129
H	 0.759091	 -0.011439	 -2.128123
C	 -1.153391	 0.009141	 -1.189028
H	 0.759091	 -0.011439	 2.128123
C	 -1.153391	 0.009141	 1.189028
H	 -1.680905	 0.012964	 -2.124348
C	 -1.857876	 0.014675	 0.000000
H	 -1.680905	 0.012964	 2.124348
H	 -2.930222	 0.022904	 0.000000

	symmetry c1
}
set optking {
	frozen_dihedral = ("
		1 2 3 5
	")
}

ee = optimize('scf')
oeprop('DIPOLE', 'QUADRUPOLE', 'MULLIKEN_CHARGES')
f=open( 'psi4out.xyz', 'w' )
f.write( "14  " )
f.write( str(ee) + "\n" )
f.write( MOL.save_string_xyz() )
f.close()
--------------------------------------------------------------------------

    Molecular point group: c1
  Charge       = 0
  Multiplicity = 1
  Basis Set: CC-PVTZ
  Basis Set:
  @DF-RHF Final Energy:  -285.82571252844633
    Total Energy =                       -285.8257125284462745
    Molecular point group: c1
  Basis Set: CC-PVTZ
  Basis Set:
  Basis Set: CC-PVTZ
  Basis Set:
  @DF-RHF Final Energy:  -285.82694775004029
    Total Energy =                       -285.8269477500404037
  Basis Set: CC-PVTZ
  Basis Set:
  Basis Set: CC-PVTZ
  Basis Set:
  @DF-RHF Final Energy:  -285.82724289120148
    Total Energy =                       -285.8272428912011378
  Basis Set: CC-PVTZ
  Basis Set:
  Basis Set: CC-PVTZ
  Basis Set:
  @DF-RHF Final Energy:  -285.82729771975033
    Total Energy =                       -285.8272977197505043
  Basis Set: CC-PVTZ
  Basis Set:
  Basis Set: CC-PVTZ
  Basis Set:
  @DF-RHF Final Energy:  -285.82730164140787
    Total Energy =                       -285.8273016414079848
  Basis Set: CC-PVTZ
  Basis Set:
  Charge       = 0
  Multiplicity = 1
  Basis Set: CC-PVTZ
  Basis Set:

    Orbital Energies (a.u.)
    -----------------------

    Doubly Occupied:

       1A    -15.541817     2A    -11.259525     3A    -11.228437
       4A    -11.226857     5A    -11.223962     6A    -11.223772
       7A    -11.219498     8A     -1.209383     9A     -1.131612
      10A     -1.015875    11A     -0.990197    12A     -0.830574
      13A     -0.810860    14A     -0.705936    15A     -0.665370
      16A     -0.648712    17A     -0.630610    18A     -0.594098
      19A     -0.585706    20A     -0.508986    21A     -0.500266
      22A     -0.496417    23A     -0.411964    24A     -0.336277
      25A     -0.328344

  @DF-RHF Final Energy:  -285.82730216268322

   => Energetics <=

    Nuclear Repulsion Energy =            272.9525720561900357
    One-Electron Energy =                -926.9096437175059009
    Two-Electron Energy =                 368.1297694986325268
    DFT Exchange-Correlation Energy =       0.0000000000000000
    Empirical Dispersion Energy =           0.0000000000000000
    PCM Polarization Energy =               0.0000000000000000
    EFP Energy =                            0.0000000000000000
    Total Energy =                       -285.8273021626833952
    Molecular point group: c1
  Basis Set: CC-PVTZ
  Basis Set:

  -Total Gradient:
     Atom            X                  Y                   Z
    ------   -----------------  -----------------  -----------------
       1       -0.000017727660     0.000819596665     0.000948361772
       2       -0.000013843574    -0.001556997758    -0.001183149259
       3        0.000008921074     0.001757306596     0.000240935424
       4        0.000005314199    -0.000002011086    -0.000007790058
       5        0.000005524941    -0.001048591603    -0.000012134423
       6       -0.000004517893     0.000022214460     0.000011052007
       7       -0.000006594965     0.000001646940     0.000008059845
       8        0.000006985505     0.000060203914     0.000012535965
       9       -0.000002434088    -0.000009044746    -0.000000930280
      10        0.000037746890    -0.000020837242    -0.000007633375
      11       -0.000006984566    -0.000006716739    -0.000004790684
      12       -0.000016484976    -0.000023272355    -0.000008485290
      13       -0.000002180311     0.000008786461     0.000005237914
      14        0.000006275423    -0.000002283506    -0.000001269555

  **** Optimization is complete! (in 6 steps) ****
    Final optimized geometry and variables:
    Molecular point group: c1

    Geometry (in Angstrom), charge = 0, multiplicity = 1:

    H            2.758768975345     0.644056750917    -0.539774866016
    N            2.353817097868    -0.049566609344     0.051304806133
    C            0.925698284685    -0.014303597373     0.002790919300
    H            2.709899263337    -0.940206634377    -0.223632401956
    C            0.221687301808    -0.010141694432    -1.191968414846
    C            0.222980027261     0.005992937155     1.194087800400
    H            0.759177160246    -0.030972634278    -2.122014294042
    C           -1.159407221775     0.022552022764    -1.193806340446
    H            0.771909078604     0.006703462727     2.115259116431
    C           -1.159787475427     0.029309330081     1.193437089779
    H           -1.690660602177     0.029493775138    -2.126644713121
    C           -1.855753063222     0.039898726819     0.000359268505
    H           -1.691543350599     0.044440667316     2.125838665646
    H           -2.928630600377     0.062317921465    -0.000225756611

  Mulliken Charges: (a.u.)
   Center  Symbol    Alpha    Beta     Spin     Total
       1     H     0.42176  0.42176  0.00000  0.15648
       2     N     3.70289  3.70289  0.00000 -0.40579
       3     C     2.90573  2.90573  0.00000  0.18854
       4     H     0.42230  0.42230  0.00000  0.15540
       5     C     3.11395  3.11395  0.00000 -0.22789
       6     C     3.09608  3.09608  0.00000 -0.19216
       7     H     0.42599  0.42599  0.00000  0.14802
       8     C     3.07316  3.07316  0.00000 -0.14632
       9     H     0.41702  0.41702  0.00000  0.16597
      10     C     3.06624  3.06624  0.00000 -0.13249
      11     H     0.42360  0.42360  0.00000  0.15279
      12     C     3.08449  3.08449  0.00000 -0.16898
      13     H     0.42311  0.42311  0.00000  0.15379
      14     H     0.42368  0.42368  0.00000  0.15264

   Total alpha = 25.00000, Total beta = 25.00000, Total charge =  0.00000
