                              Psi4 1.0.54 Driver

  ==> Input File <==

--------------------------------------------------------------------------
set {
	reference rhf
	basis cc-pvtz
}

set_num_threads( 4 )
memory 2 gb

molecule MOL {
0 1

H	 1.195816	 -0.704462	 0.892913
C	 0.606957	 -0.594412	 0.000000
Cl	 -0.072054	 1.043764	 0.000000
F	 -0.376106	 -1.496965	 -0.000000
H	 1.195816	 -0.704462	 -0.892913

	symmetry c1
}
ee,wfn = energy('scf', return_wfn=True)
oeprop( wfn, 'DIPOLE', 'QUADRUPOLE', 'MULLIKEN_CHARGES')
oeprop( wfn, 'GRID_ESP')
f=open( 'psi4out.xyz', 'w' )
f.write( "5  " )
f.write( str(ee) + "\n" )
f.write( MOL.save_string_xyz() )
f.close()
--------------------------------------------------------------------------

    Molecular point group: c1

    Geometry (in Angstrom), charge = 0, multiplicity = 1:

       Center              X                  Y                   Z               Mass
    ------------   -----------------  -----------------  -----------------  -----------------
           H          1.195392784155    -0.697201233490     0.892913000000     1.007825032070
           C          0.606533784155    -0.587151233490     0.000000000000    12.000000000000
          CL         -0.072477215845     1.051024766510     0.000000000000    34.968852682000
           F         -0.376529215845    -1.489704233490     0.000000000000    18.998403224000
           H          1.195392784155    -0.697201233490    -0.892913000000     1.007825032070

  Charge       = 0
  Multiplicity = 1
  Basis Set: CC-PVTZ
  Basis Set:

    Orbital Energies (a.u.)
    -----------------------

    Doubly Occupied:

       1A   -104.839725     2A    -26.315689     3A    -11.382499
       4A    -10.565464     5A     -8.032240     6A     -8.030447
       7A     -8.030314     8A     -1.644592     9A     -1.143176
      10A     -0.935241    11A     -0.756603    12A     -0.741185
      13A     -0.703637    14A     -0.585794    15A     -0.538325
      16A     -0.467356    17A     -0.451628

  @DF-RHF Final Energy:  -598.03366940906176

   => Energetics <=

    Nuclear Repulsion Energy =            102.2174472171284236
    One-Electron Energy =               -1030.1743912835459014
    Two-Electron Energy =                 329.9232746573555914
    DFT Exchange-Correlation Energy =       0.0000000000000000
    Empirical Dispersion Energy =           0.0000000000000000
    PCM Polarization Energy =               0.0000000000000000
    EFP Energy =                            0.0000000000000000
    Total Energy =                       -598.0336694090618721

  Mulliken Charges: (a.u.)
   Center  Symbol    Alpha    Beta     Spin     Total
       1     H     0.45567  0.45567  0.00000  0.08866
       2     C     2.87486  2.87486  0.00000  0.25028
       3    CL     8.59377  8.59377  0.00000 -0.18753
       4     F     4.62003  4.62003  0.00000 -0.24006
       5     H     0.45567  0.45567  0.00000  0.08866

   Total alpha = 17.00000, Total beta = 17.00000, Total charge =  0.00000

*** Psi4 exiting successfully. Buy a developer a beer!
