  ==> Input File <==

--------------------------------------------------------------------------
set {
	reference rhf
	basis 6-31G*
}

set_num_threads( 4 )
memory 2 gb

molecule MOL {
0 1

O	 0.074228	 1.262779	 -0.000085
C	 0.028650	 0.075053	 -0.000277
C	 -1.233602	 -0.752807	 0.000328
O	 1.109162	 -0.694619	 -0.000298
C	 -2.501530	 0.091881	 0.000126
H	 -1.193807	 -1.406641	 -0.865785
H	 -1.193516	 -1.405779	 0.867015
H	 -2.545121	 0.729328	 -0.874513
H	 -3.377167	 -0.548497	 0.000561
H	 -2.544818	 0.730135	 0.874258
C	 1.632230	 -1.067869	 -1.262309
H	 0.900073	 -1.627506	 -1.826370
H	 2.493976	 -1.682691	 -1.054341
H	 1.923147	 -0.193585	 -1.826637

	symmetry c1
}
set optking {
	frozen_dihedral = ("
		11 4 2 3
	")
}

ee = optimize('scf')
oeprop('DIPOLE', 'QUADRUPOLE', 'MULLIKEN_CHARGES')
f=open( 'psi4out.xyz', 'w' )
f.write( "14  " )
f.write( str(ee) + "\n" )
f.write( MOL.save_string_xyz() )
f.close()
--------------------------------------------------------------------------

    Molecular point group: c1
  Charge       = 0
  Multiplicity = 1
  Basis Set: 6-31G*
  Basis Set:
  @DF-RHF Final Energy:  -305.85047691070685
    Total Energy =                       -305.8504769107068455
    Molecular point group: c1
  Basis Set: 6-31G*
  Basis Set:
  Basis Set: 6-31G*
  Basis Set:
  @DF-RHF Final Energy:  -305.85158680152716
    Total Energy =                       -305.8515868015267642
  Basis Set: 6-31G*
  Basis Set:
  Basis Set: 6-31G*
  Basis Set:
  @DF-RHF Final Energy:  -305.85154427193964
    Total Energy =                       -305.8515442719397015
  Basis Set: 6-31G*
  Basis Set:
  Basis Set: 6-31G*
  Basis Set:
  @DF-RHF Final Energy:  -305.85175321182885
    Total Energy =                       -305.8517532118287363
  Basis Set: 6-31G*
  Basis Set:
  Charge       = 0
  Multiplicity = 1
  Basis Set: 6-31G*
  Basis Set:

    Orbital Energies (a.u.)
    -----------------------

    Doubly Occupied:

       1A    -20.586083     2A    -20.558587     3A    -11.376114
       4A    -11.292878     5A    -11.243605     6A    -11.219926
       7A     -1.459901     8A     -1.368476     9A     -1.063010
      10A     -0.976828    11A     -0.892566    12A     -0.766614
      13A     -0.700718    14A     -0.678112    15A     -0.672093
      16A     -0.624204    17A     -0.615293    18A     -0.556927
      19A     -0.545383    20A     -0.525244    21A     -0.510721
      22A     -0.490541    23A     -0.456809    24A     -0.437552

  @DF-RHF Final Energy:  -305.85178089936892

   => Energetics <=

    Nuclear Repulsion Energy =            246.6582815679621774
    One-Electron Energy =                -905.7837522408890436
    Two-Electron Energy =                 353.2736897735582033
    DFT Exchange-Correlation Energy =       0.0000000000000000
    Empirical Dispersion Energy =           0.0000000000000000
    PCM Polarization Energy =               0.0000000000000000
    EFP Energy =                            0.0000000000000000
    Total Energy =                       -305.8517808993686913
    Molecular point group: c1
  Basis Set: 6-31G*
  Basis Set:

  -Total Gradient:
     Atom            X                  Y                   Z
    ------   -----------------  -----------------  -----------------
       1        0.000092619587     0.000232819388     0.000031766169
       2       -0.000572832044    -0.001213968097     0.003203877623
       3        0.000122164558     0.000052503397    -0.002216399958
       4        0.001872351035     0.003140940062    -0.001047269798
       5        0.000020944432     0.000078648103     0.000013290143
       6       -0.000017720354    -0.000093661373    -0.000035727025
       7       -0.000076511185    -0.000109987850    -0.000008689891
       8        0.000011732868    -0.000024996402     0.000054229224
       9       -0.000028734910    -0.000024763123    -0.000001646477
      10       -0.000008397225    -0.000014885617    -0.000053425440
      11       -0.001419031920    -0.001943581555     0.000011622758
      12       -0.000034103790     0.000003615207     0.000064419164
      13        0.000031211169    -0.000027130689    -0.000001456682
      14        0.000006307779    -0.000055551454    -0.000014589810

  **** Optimization is complete! (in 5 steps) ****
    Final optimized geometry and variables:
    Molecular point group: c1

    Geometry (in Angstrom), charge = 0, multiplicity = 1:

    O            0.202522583107     1.425200458747     0.241525839116
    C            0.147674448587     0.245290921648     0.221505779405
    C           -1.130307709058    -0.559441040745     0.225273117750
    O            1.266836198152    -0.516400306803     0.217519371725
    C           -2.388919345318     0.298961068127     0.229021720920
    H           -1.110621596414    -1.220659742877    -0.637183417667
    H           -1.093753740983    -1.212657701081     1.092858054361
    H           -2.430715825820     0.934032984224    -0.647677874956
    H           -3.272546738143    -0.330216080058     0.237785843255
    H           -2.417642517228     0.940829462073     1.100796379811
    C            1.791415779301    -0.875611675709    -1.042248467392
    H            1.092243159247    -1.489946614577    -1.599634192557
    H            2.687328122149    -1.445182815830    -0.850615691820
    H            2.040337481010     0.007094240630    -1.618477954056

  Mulliken Charges: (a.u.)
   Center  Symbol    Alpha    Beta     Spin     Total
       1     O     4.25062  4.25062  0.00000 -0.50125
       2     C     2.61681  2.61681  0.00000  0.76639
       3     C     3.21064  3.21064  0.00000 -0.42128
       4     O     4.31482  4.31482  0.00000 -0.62964
       5     C     3.23907  3.23907  0.00000 -0.47815
       6     H     0.40710  0.40710  0.00000  0.18581
       7     H     0.39771  0.39771  0.00000  0.20458
       8     H     0.41085  0.41085  0.00000  0.17830
       9     H     0.41763  0.41763  0.00000  0.16475
      10     H     0.40773  0.40773  0.00000  0.18454
      11     C     3.09268  3.09268  0.00000 -0.18535
      12     H     0.42282  0.42282  0.00000  0.15437
      13     H     0.40204  0.40204  0.00000  0.19592
      14     H     0.40949  0.40949  0.00000  0.18101

   Total alpha = 24.00000, Total beta = 24.00000, Total charge = -0.00000
