  ==> Input File <==

--------------------------------------------------------------------------
set {
	reference rhf
	basis 6-31G*
}

set_num_threads( 4 )
memory 2 gb

molecule MOL {
0 1

H	 -2.823155	 1.452092	 1.865490
O	 -2.128799	 0.871363	 1.588854
C	 -2.306886	 0.532354	 0.237577
C	 -1.177863	 -0.397191	 -0.171080
H	 -3.267212	 0.040291	 0.089406
H	 -2.298566	 1.425473	 -0.385808
C	 0.198102	 0.111031	 0.262842
H	 -1.208843	 -0.518759	 -1.250427
H	 -1.368741	 -1.376554	 0.258909
C	 1.331804	 -0.827780	 -0.158768
H	 0.361943	 1.100838	 -0.156218
H	 0.217265	 0.229072	 1.345532
C	 2.723619	 -0.410569	 0.329459
H	 1.342964	 -0.912588	 -1.244120
H	 1.116806	 -1.824343	 0.220779
C	 3.243875	 0.895854	 -0.272975
H	 3.424222	 -1.207124	 0.091250
H	 2.714788	 -0.329854	 1.414619
H	 3.251977	 0.848779	 -1.358681
H	 2.637085	 1.747371	 0.016682
H	 4.259473	 1.094070	 0.055697

	symmetry c1
}
set optking {
	frozen_dihedral = ("
		2 3 4 8
	")
}

ee = optimize('scf')
oeprop('DIPOLE', 'QUADRUPOLE', 'MULLIKEN_CHARGES')
f=open( 'psi4out.xyz', 'w' )
f.write( "21  " )
f.write( str(ee) + "\n" )
f.write( MOL.save_string_xyz() )
f.close()
--------------------------------------------------------------------------

    Molecular point group: c1
  Charge       = 0
  Multiplicity = 1
  Basis Set: 6-31G*
  Basis Set:
  @DF-RHF Final Energy:  -310.21155526696379
    Total Energy =                       -310.2115552669640124
    Molecular point group: c1
  Basis Set: 6-31G*
  Basis Set:
  Basis Set: 6-31G*
  Basis Set:
  @DF-RHF Final Energy:  -310.21185815328658
    Total Energy =                       -310.2118581532863573
  Basis Set: 6-31G*
  Basis Set:
  Basis Set: 6-31G*
  Basis Set:
  @DF-RHF Final Energy:  -310.21200064727810
    Total Energy =                       -310.2120006472782165
  Basis Set: 6-31G*
  Basis Set:
  Basis Set: 6-31G*
  Basis Set:
  @DF-RHF Final Energy:  -310.21199876503380
    Total Energy =                       -310.2119987650338544
  Basis Set: 6-31G*
  Basis Set:
  Basis Set: 6-31G*
  Basis Set:
  @DF-RHF Final Energy:  -310.21200297240551
    Total Energy =                       -310.2120029724057986
  Basis Set: 6-31G*
  Basis Set:
  Basis Set: 6-31G*
  Basis Set:
  @DF-RHF Final Energy:  -310.21200647679473
    Total Energy =                       -310.2120064767945564
  Basis Set: 6-31G*
  Basis Set:
  Charge       = 0
  Multiplicity = 1
  Basis Set: 6-31G*
  Basis Set:

    Orbital Energies (a.u.)
    -----------------------

    Doubly Occupied:

       1A    -20.553173     2A    -11.268300     3A    -11.212382
       4A    -11.210126     5A    -11.207914     6A    -11.204182
       7A    -11.203744     8A     -1.360090     9A     -1.079806
      10A     -1.029027    11A     -0.952417    12A     -0.874713
      13A     -0.800516    14A     -0.771840    15A     -0.702342
      16A     -0.649138    17A     -0.618390    18A     -0.603483
      19A     -0.583610    20A     -0.566696    21A     -0.531198
      22A     -0.525466    23A     -0.500369    24A     -0.489843
      25A     -0.477884    26A     -0.454141    27A     -0.452492
      28A     -0.438010    29A     -0.428495

  @DF-RHF Final Energy:  -310.21200712560977

   => Energetics <=

    Nuclear Repulsion Energy =            317.6784728468173284
    One-Electron Energy =               -1050.2813866549065551
    Two-Electron Energy =                 422.3909066824796810
    DFT Exchange-Correlation Energy =       0.0000000000000000
    Empirical Dispersion Energy =           0.0000000000000000
    PCM Polarization Energy =               0.0000000000000000
    EFP Energy =                            0.0000000000000000
    Total Energy =                       -310.2120071256094889
    Molecular point group: c1
  Basis Set: 6-31G*
  Basis Set:

  -Total Gradient:
     Atom            X                  Y                   Z
    ------   -----------------  -----------------  -----------------
       1        0.000010001030    -0.000018858014    -0.000039739300
       2        0.001781061820     0.002395886514    -0.000713060186
       3       -0.001854042006    -0.002427974081     0.000962143592
       4       -0.002360099350    -0.002946631070     0.000285721888
       5        0.000010412923    -0.000019088299    -0.000074456552
       6        0.000025058926    -0.000009294614    -0.000002135418
       7        0.000014938582     0.000023075544    -0.000004979782
       8        0.002398247552     0.003061066516    -0.000363894492
       9        0.000004963318    -0.000031164343     0.000005474554
      10       -0.000001879871    -0.000022170173     0.000005919693
      11       -0.000005724046     0.000005139274     0.000008851167
      12       -0.000013425056     0.000003874487    -0.000061399886
      13       -0.000016366414     0.000011581288    -0.000001781001
      14        0.000009194152    -0.000000347694    -0.000005659690
      15        0.000003261789    -0.000020335666    -0.000001067812
      16       -0.000001963340    -0.000004441481     0.000001697792
      17        0.000000860310     0.000001677348    -0.000002461263
      18       -0.000004497447     0.000001268562    -0.000001544924
      19       -0.000004654420    -0.000001324530     0.000000688555
      20        0.000001265796    -0.000000219774     0.000002805319
      21        0.000003385752    -0.000001719794    -0.000001122253

  **** Optimization is complete! (in 7 steps) ****
    Final optimized geometry and variables:
    Molecular point group: c1

    Geometry (in Angstrom), charge = 0, multiplicity = 1:

    H           -3.117072974718     1.337470159860     1.531912434878
    O           -2.405966467429     0.757760202843     1.299536141666
    C           -2.520934403064     0.391812413382    -0.052094851785
    C           -1.387014823016    -0.555163686415    -0.417100877006
    H           -3.478934219388    -0.088236991481    -0.242711070313
    H           -2.468201093099     1.278650863011    -0.682717850738
    C           -0.005617511831    -0.041680207827    -0.000994389888
    H           -1.396420207186    -0.677294068254    -1.498638250623
    H           -1.567893099621    -1.529458147143     0.028300524920
    C            1.120413869079    -0.973607458598    -0.456985295842
    H            0.139844620557     0.951963893021    -0.418323234683
    H            0.026118507601     0.069728136434     1.077122754006
    C            2.518882458014    -0.564821030217     0.019640513742
    H            1.119522429061    -1.042204785622    -1.544245485315
    H            0.912523865977    -1.977195285521    -0.090683626328
    C            3.027547585275     0.755166526151    -0.562696332507
    H            3.218084468011    -1.354678301597    -0.244548409407
    H            2.524068940587    -0.505720081963     1.105986472520
    H            3.019546285395     0.731113997668    -1.649342504214
    H            2.422763002887     1.598116051553    -0.245649775052
    H            4.047683643875     0.948980969150    -0.245252177886

  Mulliken Charges: (a.u.)
   Center  Symbol    Alpha    Beta     Spin     Total
       1     H     0.28048  0.28048  0.00000  0.43905
       2     O     4.36947  4.36947  0.00000 -0.73894
       3     C     2.99603  2.99603  0.00000  0.00795
       4     C     3.16214  3.16214  0.00000 -0.32429
       5     H     0.42919  0.42919  0.00000  0.14162
       6     H     0.43267  0.43267  0.00000  0.13467
       7     C     3.15358  3.15358  0.00000 -0.30716
       8     H     0.42400  0.42400  0.00000  0.15200
       9     H     0.41733  0.41733  0.00000  0.16535
      10     C     3.15313  3.15313  0.00000 -0.30627
      11     H     0.42454  0.42454  0.00000  0.15091
      12     H     0.40714  0.40714  0.00000  0.18572
      13     C     3.15166  3.15166  0.00000 -0.30333
      14     H     0.42691  0.42691  0.00000  0.14619
      15     H     0.42292  0.42292  0.00000  0.15416
      16     C     3.24109  3.24109  0.00000 -0.48217
      17     H     0.42239  0.42239  0.00000  0.15521
      18     H     0.42246  0.42246  0.00000  0.15509
      19     H     0.42354  0.42354  0.00000  0.15293
      20     H     0.41916  0.41916  0.00000  0.16167
      21     H     0.42018  0.42018  0.00000  0.15964

   Total alpha = 29.00000, Total beta = 29.00000, Total charge =  0.00000
