                              Psi4 1.0.54 Driver

  ==> Input File <==

--------------------------------------------------------------------------
set {
	reference rhf
	basis cc-pvtz
}

set_num_threads( 4 )
memory 2 gb

molecule MOL {
0 1

H	 5.269878	 0.195679	 1.068175
C	 4.673900	 -0.208485	 0.258034
C	 3.190199	 -0.204714	 0.610086
H	 4.865136	 0.391893	 -0.624684
H	 5.027838	 -1.214511	 0.056939
C	 2.319208	 -0.778154	 -0.505491
H	 2.876954	 0.809861	 0.827925
H	 3.035335	 -0.782733	 1.518235
C	 0.987801	 -0.054860	 -0.681804
H	 2.863203	 -0.748503	 -1.441451
H	 2.113544	 -1.823163	 -0.292320
C	 1.095330	 1.332404	 -1.292067
H	 0.342475	 -0.626717	 -1.343847
H	 0.454357	 0.013323	 0.261757
C	 -0.096096	 2.257856	 -1.139060
O	 2.064700	 1.679385	 -1.886374
C	 -1.363331	 1.753137	 -1.837442
H	 0.194723	 3.218211	 -1.542771
H	 -0.296209	 2.386994	 -0.078648
C	 -2.514923	 2.750704	 -1.745974
H	 -1.140516	 1.557144	 -2.882686
H	 -1.677165	 0.808693	 -1.404387
C	 -3.780390	 2.263848	 -2.443605
H	 -2.203889	 3.696206	 -2.179975
H	 -2.732744	 2.951328	 -0.700567
H	 -3.601317	 2.084519	 -3.498335
H	 -4.137159	 1.336905	 -2.007082
H	 -4.576585	 2.994558	 -2.363295

	symmetry c1
}
set optking {
	frozen_dihedral = ("
		10 6 3 2
	")
}

ee,wfn = optimize('scf', return_wfn=True)
oeprop( wfn, 'DIPOLE', 'QUADRUPOLE', 'MULLIKEN_CHARGES')
f=open( 'psi4out.xyz', 'w' )
f.write( "28  " )
f.write( str(ee) + "\n" )
f.write( MOL.save_string_xyz() )
f.close()
--------------------------------------------------------------------------

    Molecular point group: c1
  Charge       = 0
  Multiplicity = 1
  Basis Set: CC-PVTZ
  Basis Set:
  @DF-RHF Final Energy:  -426.31607488871077
    Total Energy =                       -426.3160748887104319
    Molecular point group: c1
  Basis Set: CC-PVTZ
  Basis Set:
  Basis Set: CC-PVTZ
  Basis Set:
  @DF-RHF Final Energy:  -426.31637592854599
    Total Energy =                       -426.3163759285463357
  Basis Set: CC-PVTZ
  Basis Set:
  Basis Set: CC-PVTZ
  Basis Set:
  @DF-RHF Final Energy:  -426.31637382359952
    Total Energy =                       -426.3163738235995197
  Basis Set: CC-PVTZ
  Basis Set:
  Basis Set: CC-PVTZ
  Basis Set:
  @DF-RHF Final Energy:  -426.31629551067113
    Total Energy =                       -426.3162955106715799
  Basis Set: CC-PVTZ
  Basis Set:
  @DF-RHF Final Energy:  -426.31644348419752
    Total Energy =                       -426.3164434841969523
  @DF-RHF Final Energy:  -426.31643841757113
    Total Energy =                       -426.3164384175709074
  @DF-RHF Final Energy:  -426.31644929553727
    Total Energy =                       -426.3164492955372680
  @DF-RHF Final Energy:  -426.31645249347616
    Total Energy =                       -426.3164524934754809
  @DF-RHF Final Energy:  -426.31645529687648
    Total Energy =                       -426.3164552968767111
  @DF-RHF Final Energy:  -426.31617627417700
    Total Energy =                       -426.3161762741774510
  @DF-RHF Final Energy:  -426.31650496718578
    Total Energy =                       -426.3165049671856650
  @DF-RHF Final Energy:  -426.31609050505881
    Total Energy =                       -426.3160905050592646
  @DF-RHF Final Energy:  -426.29247483510585
    Total Energy =                       -426.2924748351057360
  @DF-RHF Final Energy:  -426.31618829023932
    Total Energy =                       -426.3161882902393245
  @DF-RHF Final Energy:  -426.31688261358192
    Total Energy =                       -426.3168826135815834
  @DF-RHF Final Energy:  -426.31687177336153
    Total Energy =                       -426.3168717733614130
  @DF-RHF Final Energy:  -426.31708048224539
    Total Energy =                       -426.3170804822450464
  @DF-RHF Final Energy:  -426.31709677941228
    Total Energy =                       -426.3170967794128501
  @DF-RHF Final Energy:  -426.31710840590961
    Total Energy =                       -426.3171084059096074
  @DF-RHF Final Energy:  -426.31712119358713
    Total Energy =                       -426.3171211935879228
  @DF-RHF Final Energy:  -426.31693394836361
    Total Energy =                       -426.3169339483636122
  @DF-RHF Final Energy:  -426.31833250831710
    Total Energy =                       -426.3183325083178943
  @DF-RHF Final Energy:  -426.20132296348834
    Total Energy =                       -426.2013229634887921
  @DF-RHF Final Energy:  -426.30358282188547
    Total Energy =                       -426.3035828218854704
  @DF-RHF Final Energy:  -426.31705746950536
    Total Energy =                       -426.3170574695056985
  @DF-RHF Final Energy:  -426.31326743884222
    Total Energy =                       -426.3132674388418764
  @DF-RHF Final Energy:  -426.31806131732901
    Total Energy =                       -426.3180613173290112
  @DF-RHF Final Energy:  -426.21681272089040
    Total Energy =                       -426.2168127208910846
  @DF-RHF Final Energy:  -426.01767073780917
    Total Energy =                       -426.0176707378094534
  @DF-RHF Final Energy:  -426.23118546626893
    Total Energy =                       -426.2311854662683572
  @DF-RHF Final Energy:  -426.31189699457104
    Total Energy =                       -426.3118969945712706
  @DF-RHF Final Energy:  -426.31785437198164
    Total Energy =                       -426.3178543719817526
  @DF-RHF Final Energy:  -426.31835617632817
    Total Energy =                       -426.3183561763282796
  @DF-RHF Final Energy:  -426.31847961315339
    Total Energy =                       -426.3184796131536132
  @DF-RHF Final Energy:  -426.31856203406880
    Total Energy =                       -426.3185620340683499
  @DF-RHF Final Energy:  -426.31864790459838
    Total Energy =                       -426.3186479045975830
  Basis Set: CC-PVTZ
  Basis Set:
  @DF-RHF Final Energy:  -426.31873658384495
    Total Energy =                       -426.3187365838448386
  Basis Set: CC-PVTZ
  Basis Set:
  Basis Set: CC-PVTZ
  Basis Set:
  @DF-RHF Final Energy:  -426.31875636118286
    Total Energy =                       -426.3187563611830910
  Basis Set: CC-PVTZ
  Basis Set:
  Basis Set: CC-PVTZ
  Basis Set:
  @DF-RHF Final Energy:  -426.31875779307279
    Total Energy =                       -426.3187577930727912
  Basis Set: CC-PVTZ
  Basis Set:
  Charge       = 0
  Multiplicity = 1
  Basis Set: CC-PVTZ
  Basis Set:

    Orbital Energies (a.u.)
    -----------------------

    Doubly Occupied:

       1A    -20.538451     2A    -11.318040     3A    -11.229366
       4A    -11.229272     5A    -11.217386     6A    -11.214923
       7A    -11.214660     8A    -11.211386     9A    -11.208015
      10A    -11.200675    11A     -1.398783    12A     -1.089448
      13A     -1.077413    14A     -1.022680    15A     -0.991005
      16A     -0.911108    17A     -0.865479    18A     -0.806542
      19A     -0.791654    20A     -0.725207    21A     -0.668477
      22A     -0.657846    23A     -0.625693    24A     -0.622755
      25A     -0.609321    26A     -0.582101    27A     -0.581673
      28A     -0.571614    29A     -0.533914    30A     -0.527589
      31A     -0.526192    32A     -0.509260    33A     -0.491755
      34A     -0.480473    35A     -0.474340    36A     -0.469686
      37A     -0.468053    38A     -0.463736    39A     -0.457513
      40A     -0.397089

  @DF-RHF Final Energy:  -426.31875798202236

   => Energetics <=

    Nuclear Repulsion Energy =            533.4015151548987888
    One-Electron Energy =               -1635.4794015283755471
    Two-Electron Energy =                 675.7591283914540554
    DFT Exchange-Correlation Energy =       0.0000000000000000
    Empirical Dispersion Energy =           0.0000000000000000
    PCM Polarization Energy =               0.0000000000000000
    EFP Energy =                            0.0000000000000000
    Total Energy =                       -426.3187579820227029
    Molecular point group: c1
  Basis Set: CC-PVTZ
  Basis Set:

  -Total Gradient:
     Atom            X                  Y                   Z
    ------   -----------------  -----------------  -----------------
       1       -0.000011711338     0.000008262186     0.000012229264
       2       -0.001833018262     0.000935826419    -0.001688336028
       3        0.003277405215    -0.001330675739     0.002880404351
       4       -0.000002263424     0.000003130510    -0.000006351572
       5        0.000002599502    -0.000004409122    -0.000000269178
       6       -0.004396156723     0.000475041134    -0.003342433546
       7       -0.000010188138     0.000009738295    -0.000006396122
       8       -0.000000153571    -0.000004992555     0.000001285777
       9        0.000034158626     0.000022945719    -0.000002607854
      10        0.002964402530    -0.000105865788     0.002165517418
      11        0.000008845716     0.000003443079     0.000001572472
      12       -0.000022418453    -0.000061688167    -0.000038684665
      13       -0.000010215305    -0.000004653428     0.000004789010
      14       -0.000007106852    -0.000007580385    -0.000005225159
      15        0.000054026398     0.000019080558    -0.000027640120
      16       -0.000019430190     0.000066027488     0.000008251659
      17       -0.000005047071    -0.000002970168     0.000015308628
      18       -0.000014479022     0.000001354193     0.000017820269
      19       -0.000008416831    -0.000028246489     0.000002803760
      20       -0.000011933723     0.000001809906     0.000004949081
      21       -0.000003290345     0.000006693609     0.000005180040
      22        0.000011331221     0.000009692667    -0.000005763030
      23        0.000014186298    -0.000007341293     0.000000156891
      24       -0.000016837744    -0.000006506025     0.000005410694
      25        0.000001430356    -0.000001458479    -0.000001117645
      26       -0.000004421427     0.000002951716     0.000009324879
      27        0.000007301549     0.000008182676    -0.000007315916
      28        0.000001401007    -0.000007792514    -0.000002863357

  **** Optimization is complete! (in 50 steps) ****
    Final optimized geometry and variables:
    Molecular point group: c1

    Geometry (in Angstrom), charge = 0, multiplicity = 1:

    H            1.081463449382     2.248335760985     4.280775728821
    C            1.679682161797     1.961037193569     3.423353770787
    C            1.358346847039     0.538567981644     2.977896430862
    H            1.478880667599     2.661672387558     2.621897127541
    H            2.724273489770     2.061702429044     3.701742852855
    C            2.213637465405     0.071534293310     1.787971296715
    H            0.308009355925     0.501389631272     2.708957937335
    H            1.483093977179    -0.148974461530     3.808656897156
    C            1.476041677989    -0.821184663836     0.799121091724
    H            2.624683145485     0.928927792416     1.270863140004
    H            3.070490763118    -0.479558084307     2.163638663362
    C            0.435524968838    -0.105606448945    -0.043287767995
    H            2.176736785705    -1.269707234511     0.098221121863
    H            0.999083746472    -1.654738572375     1.307537939971
    C           -0.507402110440    -0.996162174273    -0.827733704100
    O            0.372069202896     1.079784960419    -0.093641443759
    C           -1.383640441697    -0.258687711816    -1.830441941608
    H           -1.121177858925    -1.522995859204    -0.099653904518
    H            0.082217537644    -1.765899194244    -1.319090092129
    C           -2.327610444843    -1.191284314780    -2.584209284880
    H           -1.954479533440     0.502671430505    -1.312130051355
    H           -0.751372482101     0.270212669008    -2.535839591925
    C           -3.205548487412    -0.457516900780    -3.592212156892
    H           -2.959707299336    -1.717764575707    -1.873692203415
    H           -1.749662814953    -1.954030733114    -3.099714988894
    H           -3.822222771359     0.288475943358    -3.102541801834
    H           -2.603254988683     0.051249728695    -4.337272395776
    H           -3.864757829447    -1.143637903911    -4.111400035507

  Mulliken Charges: (a.u.)
   Center  Symbol    Alpha    Beta     Spin     Total
       1     H     0.45137  0.45137  0.00000  0.09726
       2     C     3.15048  3.15048  0.00000 -0.30096
       3     C     3.08158  3.08158  0.00000 -0.16315
       4     H     0.44608  0.44608  0.00000  0.10783
       5     H     0.45735  0.45735  0.00000  0.08530
       6     C     3.09067  3.09067  0.00000 -0.18134
       7     H     0.45652  0.45652  0.00000  0.08696
       8     H     0.45182  0.45182  0.00000  0.09636
       9     C     3.11882  3.11882  0.00000 -0.23765
      10     H     0.44624  0.44624  0.00000  0.10751
      11     H     0.44643  0.44643  0.00000  0.10715
      12     C     2.87336  2.87336  0.00000  0.25327
      13     H     0.43576  0.43576  0.00000  0.12849
      14     H     0.44227  0.44227  0.00000  0.11547
      15     C     3.10799  3.10799  0.00000 -0.21598
      16     O     4.17754  4.17754  0.00000 -0.35508
      17     C     3.07854  3.07854  0.00000 -0.15708
      18     H     0.44532  0.44532  0.00000  0.10936
      19     H     0.44475  0.44475  0.00000  0.11051
      20     C     3.08581  3.08581  0.00000 -0.17162
      21     H     0.44457  0.44457  0.00000  0.11086
      22     H     0.44881  0.44881  0.00000  0.10238
      23     C     3.14971  3.14971  0.00000 -0.29942
      24     H     0.45564  0.45564  0.00000  0.08872
      25     H     0.45609  0.45609  0.00000  0.08782
      26     H     0.45368  0.45368  0.00000  0.09264
      27     H     0.45409  0.45409  0.00000  0.09181
      28     H     0.44871  0.44871  0.00000  0.10257

   Total alpha = 40.00000, Total beta = 40.00000, Total charge = -0.00000

*** Psi4 exiting successfully. Buy a developer a beer!
