  ==> Input File <==

--------------------------------------------------------------------------
set {
	reference rhf
	basis 6-31G*
}

set_num_threads( 4 )
memory 2 gb

molecule MOL {
0 1

O	 -0.213603	 -2.239440	 0.336385
C	 -1.286428	 -1.750911	 0.178259
C	 -2.572242	 -2.536750	 0.158102
O	 -1.481751	 -0.454642	 0.000584
H	 -2.671441	 -3.065800	 1.098383
H	 -3.430943	 -1.900519	 0.002280
H	 -2.514820	 -3.277684	 -0.630315
C	 -0.334255	 0.388708	 0.000906
C	 0.891947	 -0.504646	 0.000751
H	 -0.365390	 1.025305	 -0.873475
H	 -0.365484	 1.024911	 0.875569
C	 2.191998	 0.301789	 0.000897
H	 0.855148	 -1.151283	 -0.871571
H	 0.855132	 -1.151660	 0.872805
C	 3.441114	 -0.581407	 0.000108
H	 2.215074	 0.954890	 -0.869742
H	 2.215465	 0.953923	 0.872248
C	 4.739576	 0.224112	 -0.001102
H	 3.419457	 -1.233487	 -0.870178
H	 3.420834	 -1.233096	 0.870717
H	 4.804918	 0.861552	 -0.878265
H	 5.606527	 -0.429058	 -0.001824
H	 4.806469	 0.861674	 0.875853

	symmetry c1
}
set optking {
	frozen_dihedral = ("
		2 4 8 10
	")
}

ee = optimize('scf')
oeprop('DIPOLE', 'QUADRUPOLE', 'MULLIKEN_CHARGES')
f=open( 'psi4out.xyz', 'w' )
f.write( "23  " )
f.write( str(ee) + "\n" )
f.write( MOL.save_string_xyz() )
f.close()
--------------------------------------------------------------------------

    Molecular point group: c1
  Charge       = 0
  Multiplicity = 1
  Basis Set: 6-31G*
  Basis Set:
  @DF-RHF Final Energy:  -422.89541714325054
    Total Energy =                       -422.8954171432498015
    Molecular point group: c1
  Basis Set: 6-31G*
  Basis Set:
  Basis Set: 6-31G*
  Basis Set:
  @DF-RHF Final Energy:  -422.93620282377719
    Total Energy =                       -422.9362028237770801
  Basis Set: 6-31G*
  Basis Set:
  Basis Set: 6-31G*
  Basis Set:
  @DF-RHF Final Energy:  -422.95588964061585
    Total Energy =                       -422.9558896406153963
  Basis Set: 6-31G*
  Basis Set:
  Basis Set: 6-31G*
  Basis Set:
  @DF-RHF Final Energy:  -422.96130670055328
    Total Energy =                       -422.9613067005525409
  Basis Set: 6-31G*
  Basis Set:
  @DF-RHF Final Energy:  -422.96445475609153
    Total Energy =                       -422.9644547560908450
  @DF-RHF Final Energy:  -422.96672489455869
    Total Energy =                       -422.9667248945586380
  @DF-RHF Final Energy:  -422.96689247579218
    Total Energy =                       -422.9668924757921786
  @DF-RHF Final Energy:  -422.96699562400590
    Total Energy =                       -422.9669956240053352
  @DF-RHF Final Energy:  -422.96701182872249
    Total Energy =                       -422.9670118287228888
  @DF-RHF Final Energy:  -422.96701448798598
    Total Energy =                       -422.9670144879859208
  @DF-RHF Final Energy:  -422.96701841487288
    Total Energy =                       -422.9670184148732233
  @DF-RHF Final Energy:  -422.96701994380192
    Total Energy =                       -422.9670199438019154
  @DF-RHF Final Energy:  -422.96702386867042
    Total Energy =                       -422.9670238686708217
  @DF-RHF Final Energy:  -422.96702666840241
    Total Energy =                       -422.9670266684020135
  @DF-RHF Final Energy:  -422.96702662707861
    Total Energy =                       -422.9670266270784396
  @DF-RHF Final Energy:  -422.96702748773896
    Total Energy =                       -422.9670274877400971
  @DF-RHF Final Energy:  -422.96702566493553
    Total Energy =                       -422.9670256649349085
  @DF-RHF Final Energy:  -422.96702644832453
    Total Energy =                       -422.9670264483243045
  @DF-RHF Final Energy:  -422.96702622662815
    Total Energy =                       -422.9670262266286045
  @DF-RHF Final Energy:  -422.96702772811119
    Total Energy =                       -422.9670277281113613
  @DF-RHF Final Energy:  -422.96702467681638
    Total Energy =                       -422.9670246768168909
  @DF-RHF Final Energy:  -422.96702492124484
    Total Energy =                       -422.9670249212450699
  @DF-RHF Final Energy:  -422.96702432931630
    Total Energy =                       -422.9670243293156773
  @DF-RHF Final Energy:  -422.96702361772628
    Total Energy =                       -422.9670236177266816
  @DF-RHF Final Energy:  -422.96702423428934
    Total Energy =                       -422.9670242342895108
  @DF-RHF Final Energy:  -422.96702771072171
    Total Energy =                       -422.9670277107209131
  @DF-RHF Final Energy:  -422.96702582974632
    Total Energy =                       -422.9670258297464898
  @DF-RHF Final Energy:  -422.96702791707344
    Total Energy =                       -422.9670279170734375
  @DF-RHF Final Energy:  -422.96702790901827
    Total Energy =                       -422.9670279090182703
  @DF-RHF Final Energy:  -422.96702788789327
    Total Energy =                       -422.9670278878929821
  @DF-RHF Final Energy:  -422.96702787154743
    Total Energy =                       -422.9670278715468612
  @DF-RHF Final Energy:  -422.96702692002771
    Total Energy =                       -422.9670269200281609
  @DF-RHF Final Energy:  -422.96702785677513
    Total Energy =                       -422.9670278567755304
  @DF-RHF Final Energy:  -422.96702735153849
    Total Energy =                       -422.9670273515384906
  @DF-RHF Final Energy:  -422.96702762999377
    Total Energy =                       -422.9670276299935949
  @DF-RHF Final Energy:  -422.96702779158045
    Total Energy =                       -422.9670277915806764
  Basis Set: 6-31G*
  Basis Set:
  @DF-RHF Final Energy:  -422.96702744496048
    Total Energy =                       -422.9670274449606495
  Basis Set: 6-31G*
  Basis Set:
  Basis Set: 6-31G*
  Basis Set:
  @DF-RHF Final Energy:  -422.96702774944208
    Total Energy =                       -422.9670277494419679
  Basis Set: 6-31G*
  Basis Set:
  Basis Set: 6-31G*
  Basis Set:
  @DF-RHF Final Energy:  -422.96702777930659
    Total Energy =                       -422.9670277793061359
  Basis Set: 6-31G*
  Basis Set:
  Charge       = 0
  Multiplicity = 1
  Basis Set: 6-31G*
  Basis Set:

    Orbital Energies (a.u.)
    -----------------------

    Doubly Occupied:

       1A    -20.600046     2A    -20.535928     3A    -11.375706
       4A    -11.288737     5A    -11.229193     6A    -11.220863
       7A    -11.217945     8A    -11.217221     9A    -11.210426
      10A     -1.459808    11A     -1.360185    12A     -1.091164
      13A     -1.039703    14A     -0.999515    15A     -0.933670
      16A     -0.857930    17A     -0.798135    18A     -0.747848
      19A     -0.689255    20A     -0.677022    21A     -0.670692
      22A     -0.642442    23A     -0.604951    24A     -0.588698
      25A     -0.579627    26A     -0.564252    27A     -0.557215
      28A     -0.531249    29A     -0.523853    30A     -0.514029
      31A     -0.496704    32A     -0.475880    33A     -0.468569
      34A     -0.452868    35A     -0.438491    36A     -0.425715

  @DF-RHF Final Energy:  -422.96702776126773

   => Energetics <=

    Nuclear Repulsion Energy =            457.2651578523210105
    One-Electron Energy =               -1482.2933022499605613
    Two-Electron Energy =                 602.0611166363721622
    DFT Exchange-Correlation Energy =       0.0000000000000000
    Empirical Dispersion Energy =           0.0000000000000000
    PCM Polarization Energy =               0.0000000000000000
    EFP Energy =                            0.0000000000000000
    Total Energy =                       -422.9670277612674454
    Molecular point group: c1
  Basis Set: 6-31G*
  Basis Set:

  -Total Gradient:
     Atom            X                  Y                   Z
    ------   -----------------  -----------------  -----------------
       1        0.000099694760     0.000572247837    -0.000467745498
       2        0.000077578969    -0.000053702891    -0.001150777228
       3       -0.000112318183    -0.000181598876    -0.000417020227
       4        0.000304272572    -0.000604427011     0.002252263016
       5       -0.000082094889     0.000022631844     0.000037487611
       6        0.000077545067    -0.000141781808    -0.000023174896
       7       -0.000096248687    -0.000043023424     0.000237591175
       8       -0.000952045764     0.001042290087     0.000235570490
       9        0.000254149993    -0.000160336429    -0.000464638935
      10        0.000805635840    -0.000844708465    -0.000853392418
      11        0.000431781399     0.000476896290    -0.000162356219
      12       -0.000623336444    -0.000160149445     0.000367148370
      13       -0.000467416474    -0.000071515172    -0.000024878533
      14       -0.000030855313    -0.000152788951     0.000420993825
      15       -0.000400989197     0.000021463109     0.000305430768
      16       -0.000172981287     0.000237296746     0.000047767314
      17        0.000145570498     0.000411293736    -0.000128210439
      18        0.000279658858    -0.000123386759    -0.000138157855
      19        0.000208640769    -0.000172672057    -0.000034049119
      20        0.000273181123    -0.000200397318    -0.000068899800
      21        0.000016258042    -0.000001383630     0.000060219695
      22       -0.000047100572     0.000156274105    -0.000051296330
      23        0.000011418926    -0.000028521517     0.000020125232

    Molecular point group: c1

    Geometry (in Angstrom), charge = 0, multiplicity = 1:

    O           -1.270411428581    -1.861176873659     0.342898685797
    C           -2.128232024787    -1.069422347583     0.120117748282
    C           -3.579566240111    -1.458456729441    -0.032815595977
    O           -1.961560772998     0.232211408800    -0.028647560375
    H           -3.874898743250    -2.045029761788     0.828301491627
    H           -4.223278941757    -0.597864459657    -0.135399548755
    H           -3.676000648552    -2.091306313087    -0.907526848765
    C           -0.722951877581     0.951649517926    -0.016203919469
    C            0.591881313133     0.179261340406    -0.001436663991
    H           -0.764145695826     1.562130409309    -0.909066176134
    H           -0.776545841415     1.612178578040     0.840025574107
    C            1.760722458786     1.164866653822    -0.100193937891
    H            0.623028516318    -0.516142129971    -0.831303532391
    H            0.678312317886    -0.408853008448     0.902044690237
    C            3.122583624361     0.466631068542    -0.091299094657
    H            1.669362107591     1.755736021481    -1.010787175922
    H            1.718515710903     1.874293827792     0.725527224672
    C            4.293665358664     1.443809041593    -0.191914911225
    H            3.169856685501    -0.239159274711    -0.917571468746
    H            3.220809051604    -0.123022910661     0.817150048427
    H            4.239377111871     2.029217357102    -1.105440973092
    H            5.244031812891     0.919625079346    -0.191936436573
    H            4.299104844522     2.137371091959     0.644314060824

  Mulliken Charges: (a.u.)
   Center  Symbol    Alpha    Beta     Spin     Total
       1     O     4.28265  4.28265  0.00000 -0.56530
       2     C     2.61567  2.61567  0.00000  0.76866
       3     C     3.28637  3.28637  0.00000 -0.57273
       4     O     4.32377  4.32377  0.00000 -0.64754
       5     H     0.39857  0.39857  0.00000  0.20286
       6     H     0.40053  0.40053  0.00000  0.19894
       7     H     0.39901  0.39901  0.00000  0.20197
       8     C     2.98150  2.98150  0.00000  0.03699
       9     C     3.17126  3.17126  0.00000 -0.34253
      10     H     0.41381  0.41381  0.00000  0.17238
      11     H     0.41422  0.41422  0.00000  0.17156
      12     C     3.16210  3.16210  0.00000 -0.32419
      13     H     0.40922  0.40922  0.00000  0.18157
      14     H     0.40200  0.40200  0.00000  0.19599
      15     C     3.15051  3.15051  0.00000 -0.30103
      16     H     0.42389  0.42389  0.00000  0.15222
      17     H     0.42344  0.42344  0.00000  0.15313
      18     C     3.23980  3.23980  0.00000 -0.47959
      19     H     0.42035  0.42035  0.00000  0.15931
      20     H     0.41968  0.41968  0.00000  0.16063
      21     H     0.42191  0.42191  0.00000  0.15618
      22     H     0.41797  0.41797  0.00000  0.16407
      23     H     0.42178  0.42178  0.00000  0.15644

   Total alpha = 36.00000, Total beta = 36.00000, Total charge =  0.00000
