                              Psi4 1.0.54 Driver

  ==> Input File <==

--------------------------------------------------------------------------
set {
	reference rhf
	basis cc-pvtz
}

set_num_threads( 4 )
memory 2 gb

molecule MOL {
0 1

H	 0.670983	 4.607627	 1.101300
N	 -0.135801	 4.026594	 1.016938
C	 0.221857	 2.699275	 0.541792
H	 -0.758152	 4.477611	 0.379277
C	 -0.998932	 1.792575	 0.493880
H	 0.948390	 2.284707	 1.232581
H	 0.696693	 2.713870	 -0.440182
C	 -0.678115	 0.376691	 0.025731
H	 -1.448249	 1.766151	 1.481210
H	 -1.741015	 2.231731	 -0.170151
C	 -1.900706	 -0.535531	 -0.022488
H	 0.066564	 -0.060519	 0.686984
H	 -0.222616	 0.414477	 -0.961166
C	 -3.220513	 0.226854	 0.028039
H	 -1.865036	 -1.134397	 -0.928236
H	 -1.857948	 -1.236381	 0.806820
H	 -3.309098	 0.911849	 -0.808725
H	 -4.066838	 -0.449485	 -0.008086
H	 -3.301685	 0.809374	 0.939860

	symmetry c1
}
set optking {
	frozen_dihedral = ("
		12 8 11 15
	")
}

ee,wfn = optimize('scf', return_wfn=True)
oeprop( wfn, 'DIPOLE', 'QUADRUPOLE', 'MULLIKEN_CHARGES')
f=open( 'psi4out.xyz', 'w' )
f.write( "19  " )
f.write( str(ee) + "\n" )
f.write( MOL.save_string_xyz() )
f.close()
--------------------------------------------------------------------------

    Molecular point group: c1
  Charge       = 0
  Multiplicity = 1
  Basis Set: CC-PVTZ
  Basis Set:
  @DF-RHF Final Energy:  -251.43585816319992
    Total Energy =                       -251.4358581631999527
    Molecular point group: c1
  Basis Set: CC-PVTZ
  Basis Set:
  Basis Set: CC-PVTZ
  Basis Set:
  @DF-RHF Final Energy:  -251.30444512821722
    Total Energy =                       -251.3044451282171963
  Basis Set: CC-PVTZ
  Basis Set:
  Basis Set: CC-PVTZ
  Basis Set:
  @DF-RHF Final Energy:  -251.40402825444113
    Total Energy =                       -251.4040282544409592
  Basis Set: CC-PVTZ
  Basis Set:
  Basis Set: CC-PVTZ
  Basis Set:
  @DF-RHF Final Energy:  -251.43734554478203
    Total Energy =                       -251.4373455447820902
  Basis Set: CC-PVTZ
  Basis Set:
  @DF-RHF Final Energy:  -251.43920007612536
    Total Energy =                       -251.4392000761256440
  Basis Set: CC-PVTZ
  Basis Set:
  @DF-RHF Final Energy:  -251.43940507968779
    Total Energy =                       -251.4394050796875604
  Basis Set: CC-PVTZ
  Basis Set:
  Basis Set: CC-PVTZ
  Basis Set:
  @DF-RHF Final Energy:  -251.43942655905946
    Total Energy =                       -251.4394265590595978
  Basis Set: CC-PVTZ
  Basis Set:
  Basis Set: CC-PVTZ
  Basis Set:
  @DF-RHF Final Energy:  -251.43942804677249
    Total Energy =                       -251.4394280467724911
  Basis Set: CC-PVTZ
  Basis Set:
  Charge       = 0
  Multiplicity = 1
  Basis Set: CC-PVTZ
  Basis Set:

    Orbital Energies (a.u.)
    -----------------------

    Doubly Occupied:

       1A    -15.526141     2A    -11.237475     3A    -11.212641
       4A    -11.211017     5A    -11.206829     6A    -11.204105
       7A     -1.177879     8A     -1.070083     9A     -0.995297
      10A     -0.904686    11A     -0.826686    12A     -0.770329
      13A     -0.666225    14A     -0.638218    15A     -0.615556
      16A     -0.601050    17A     -0.570783    18A     -0.540677
      19A     -0.524251    20A     -0.506776    21A     -0.488929
      22A     -0.456211    23A     -0.451853    24A     -0.449087
      25A     -0.383589

  @DF-RHF Final Energy:  -251.43942858312613

   => Energetics <=

    Nuclear Repulsion Energy =            249.8632491779123939
    One-Electron Energy =                -834.1326109441696417
    Two-Electron Energy =                 332.8299331831311179
    DFT Exchange-Correlation Energy =       0.0000000000000000
    Empirical Dispersion Energy =           0.0000000000000000
    PCM Polarization Energy =               0.0000000000000000
    EFP Energy =                            0.0000000000000000
    Total Energy =                       -251.4394285831261300
    Molecular point group: c1
  Basis Set: CC-PVTZ
  Basis Set:

  -Total Gradient:
     Atom            X                  Y                   Z
    ------   -----------------  -----------------  -----------------
       1       -0.000026570759    -0.000002711567    -0.000011033208
       2        0.000036912313     0.000016294891    -0.000014505463
       3       -0.000029114464    -0.000034632151     0.000017093582
       4       -0.000007377176     0.000022341482     0.000005170415
       5        0.000026773912     0.000006001092     0.000015609918
       6        0.000008439482    -0.000010407652    -0.000010946749
       7       -0.000019594537    -0.000000716902     0.000017402344
       8        0.003580500336    -0.001288922869    -0.005072322113
       9        0.000049134683     0.000005045009    -0.000021603254
      10       -0.000018830146     0.000004263174    -0.000004050354
      11        0.001811441818    -0.004636744309     0.003927763080
      12       -0.003324997488     0.001779249605     0.003679889117
      13       -0.000023758584     0.000000766038     0.000034612430
      14       -0.000004603865    -0.000017614204    -0.000012062979
      15       -0.002083955092     0.004146567354    -0.002537207016
      16        0.000003448737     0.000011415530    -0.000010477355
      17       -0.000000650709    -0.000010571478     0.000006618015
      18        0.000013933583     0.000022318308     0.000010398437
      19        0.000008867956    -0.000011941352    -0.000020348851

  **** Optimization is complete! (in 9 steps) ****
    Final optimized geometry and variables:
    Molecular point group: c1

    Geometry (in Angstrom), charge = 0, multiplicity = 1:

    H            1.514344508367     2.832992065821     1.904645820962
    N            0.757294218949     2.338779866926     1.482432329417
    C            1.222733514981     1.124236666133     0.831226902710
    H            0.333942649355     2.957360421980     0.822514809596
    C            0.054544453651     0.333127156974     0.260467373529
    H            1.733244153738     0.523580512403     1.576544124569
    H            1.945985667935     1.318995207652     0.038085697921
    C            0.508442477636    -0.966533371503    -0.406823980033
    H           -0.640451282398     0.124752134440     1.066401273042
    H           -0.475251598445     0.959485445492    -0.451240456805
    C           -0.608550411749    -1.875213993786    -0.975225338775
    H            1.048101269952    -1.526585925675     0.350608422127
    H            1.217645913439    -0.726811012252    -1.191924564586
    C           -1.954110877137    -1.205389574966    -1.260473611636
    H           -0.265791687478    -2.285937332198    -1.918851952762
    H           -0.774151437939    -2.710790665029    -0.305087583993
    H           -1.854338507044    -0.395504738221    -1.974780259179
    H           -2.642716717821    -1.928154607308    -1.683445631715
    H           -2.411772555488    -0.803223343189    -0.365452629827

  Mulliken Charges: (a.u.)
   Center  Symbol    Alpha    Beta     Spin     Total
       1     H     0.43024  0.43024  0.00000  0.13951
       2     N     3.68865  3.68865  0.00000 -0.37730
       3     C     3.02933  3.02933  0.00000 -0.05865
       4     H     0.43114  0.43114  0.00000  0.13772
       5     C     3.08345  3.08345  0.00000 -0.16690
       6     H     0.45686  0.45686  0.00000  0.08629
       7     H     0.46867  0.46867  0.00000  0.06266
       8     C     3.10295  3.10295  0.00000 -0.20589
       9     H     0.44752  0.44752  0.00000  0.10496
      10     H     0.45753  0.45753  0.00000  0.08494
      11     C     3.08569  3.08569  0.00000 -0.17137
      12     H     0.45233  0.45233  0.00000  0.09534
      13     H     0.45329  0.45329  0.00000  0.09341
      14     C     3.15841  3.15841  0.00000 -0.31682
      15     H     0.45204  0.45204  0.00000  0.09593
      16     H     0.45136  0.45136  0.00000  0.09728
      17     H     0.45437  0.45437  0.00000  0.09126
      18     H     0.44537  0.44537  0.00000  0.10927
      19     H     0.45081  0.45081  0.00000  0.09837

   Total alpha = 25.00000, Total beta = 25.00000, Total charge = -0.00000

*** Psi4 exiting successfully. Buy a developer a beer!
