  ==> Input File <==

--------------------------------------------------------------------------
set {
	reference rhf
	basis cc-pvtz
}

set_num_threads( 4 )
memory 2 gb

molecule MOL {
0 1

H	 -3.941973	 0.934228	 -0.390224
C	 -3.240162	 0.342701	 0.161016
C	 -2.105997	 -0.000418	 -0.398703
H	 -3.485368	 0.047206	 1.162193
O	 -1.189946	 -0.765863	 0.237511
H	 -1.846458	 0.297311	 -1.398265
C	 0.026572	 -0.995256	 -0.379403
C	 1.057223	 0.049888	 -0.004615
H	 -0.054361	 -1.010670	 -1.459674
H	 0.397526	 -1.952058	 -0.044198
F	 2.205511	 -0.540892	 0.259003
F	 1.264213	 0.907601	 -0.980827
F	 0.703083	 0.732955	 1.056734

	symmetry c1
}
set optking {
	frozen_dihedral = ("
		11 8 7 9
	")
}

ee = optimize('scf')
oeprop('DIPOLE', 'QUADRUPOLE', 'MULLIKEN_CHARGES')
f=open( 'psi4out.xyz', 'w' )
f.write( "13  " )
f.write( str(ee) + "\n" )
f.write( MOL.save_string_xyz() )
f.close()
--------------------------------------------------------------------------

    Molecular point group: c1
  Charge       = 0
  Multiplicity = 1
  Basis Set: CC-PVTZ
  Basis Set:
  @DF-RHF Final Energy:  -527.73605530851910
    Total Energy =                       -527.7360553085194397
    Molecular point group: c1
  Basis Set: CC-PVTZ
  Basis Set:
  Basis Set: CC-PVTZ
  Basis Set:
  @DF-RHF Final Energy:  -527.73653914974386
    Total Energy =                       -527.7365391497439759
  Basis Set: CC-PVTZ
  Basis Set:
  Basis Set: CC-PVTZ
  Basis Set:
  @DF-RHF Final Energy:  -527.73672761841385
    Total Energy =                       -527.7367276184143066
  Basis Set: CC-PVTZ
  Basis Set:
  Basis Set: CC-PVTZ
  Basis Set:
  @DF-RHF Final Energy:  -527.73676224063388
    Total Energy =                       -527.7367622406341070
  Basis Set: CC-PVTZ
  Basis Set:
  Basis Set: CC-PVTZ
  Basis Set:
  @DF-RHF Final Energy:  -527.73679088666040
    Total Energy =                       -527.7367908866602875
  Basis Set: CC-PVTZ
  Basis Set:
  Basis Set: CC-PVTZ
  Basis Set:
  @DF-RHF Final Energy:  -527.73679528111938
    Total Energy =                       -527.7367952811196119
  Basis Set: CC-PVTZ
  Basis Set:
  Basis Set: CC-PVTZ
  Basis Set:
  @DF-RHF Final Energy:  -527.73679736639588
    Total Energy =                       -527.7367973663958765
  Basis Set: CC-PVTZ
  Basis Set:
  Charge       = 0
  Multiplicity = 1
  Basis Set: CC-PVTZ
  Basis Set:

    Orbital Energies (a.u.)
    -----------------------

    Doubly Occupied:

       1A    -26.340429     2A    -26.339679     3A    -26.337541
       4A    -20.602435     5A    -11.499010     6A    -11.319816
       7A    -11.297898     8A    -11.215056     9A     -1.750196
      10A     -1.645603    11A     -1.644872    12A     -1.443412
      13A     -1.083992    14A     -1.019526    15A     -0.932046
      16A     -0.843144    17A     -0.837363    18A     -0.827542
      19A     -0.798311    20A     -0.727133    21A     -0.722339
      22A     -0.700703    23A     -0.681015    24A     -0.668135
      25A     -0.662443    26A     -0.649733    27A     -0.636111
      28A     -0.587426    29A     -0.565992    30A     -0.527144
      31A     -0.516171    32A     -0.357735

  @DF-RHF Final Energy:  -527.73679825942736

   => Energetics <=

    Nuclear Repulsion Energy =            414.0292829926877971
    One-Electron Energy =               -1551.9722580917093637
    Two-Electron Energy =                 610.2061768395946046
    DFT Exchange-Correlation Energy =       0.0000000000000000
    Empirical Dispersion Energy =           0.0000000000000000
    PCM Polarization Energy =               0.0000000000000000
    EFP Energy =                            0.0000000000000000
    Total Energy =                       -527.7367982594270188
    Molecular point group: c1
  Basis Set: CC-PVTZ
  Basis Set:

  -Total Gradient:
     Atom            X                  Y                   Z
    ------   -----------------  -----------------  -----------------
       1       -0.000005017586    -0.000006710444    -0.000002132849
       2       -0.000010394514    -0.000015274911    -0.000007339836
       3        0.000085720467     0.000038799709     0.000027885055
       4       -0.000004438777    -0.000007141305    -0.000004290463
       5        0.000017869189     0.000015561383    -0.000019034947
       6       -0.000008053560    -0.000000967215     0.000003660528
       7        0.003456543818    -0.003287236329     0.000915398982
       8        0.000477219043     0.000932173107    -0.004360168379
       9       -0.003121134159     0.002666202444     0.000137163605
      10        0.000001809309    -0.000053774592    -0.000060011925
      11       -0.000817500571    -0.000323614643     0.003345374327
      12        0.000001379109     0.000016645043    -0.000034698873
      13       -0.000074001769     0.000025337755     0.000058194771

  **** Optimization is complete! (in 8 steps) ****
    Final optimized geometry and variables:
    Molecular point group: c1

    Geometry (in Angstrom), charge = 0, multiplicity = 1:

    H           -3.831062168967     1.030261728589    -0.350566982411
    C           -3.171607522849     0.368430387488     0.172438476260
    C           -2.054802035531    -0.013497638655    -0.396881080863
    H           -3.445794347711     0.032261603222     1.153071908535
    O           -1.197369241855    -0.875120907543     0.195860505670
    H           -1.767450548237     0.324101293551    -1.377074864519
    C            0.050802497060    -1.046450325829    -0.377083569177
    C            1.039966805299     0.065724439548    -0.003967466970
    H           -0.024470324177    -1.069653288054    -1.457325094655
    H            0.446117503610    -1.981093842096    -0.015954907800
    F            2.222937631776    -0.447248503421     0.268503522226
    F            1.201193121872     0.926068157477    -0.990428361280
    F            0.653561114770     0.741501121892     1.048111518151

  Mulliken Charges: (a.u.)
   Center  Symbol    Alpha    Beta     Spin     Total
       1     H     0.42520  0.42520  0.00000  0.14960
       2     C     3.19385  3.19385  0.00000 -0.38770
       3     C     2.96268  2.96268  0.00000  0.07464
       4     H     0.42455  0.42455  0.00000  0.15090
       5     O     4.13983  4.13983  0.00000 -0.27966
       6     H     0.43376  0.43376  0.00000  0.13248
       7     C     3.02894  3.02894  0.00000 -0.05788
       8     C     2.67462  2.67462  0.00000  0.65077
       9     H     0.45570  0.45570  0.00000  0.08860
      10     H     0.43346  0.43346  0.00000  0.13308
      11     F     4.61083  4.61083  0.00000 -0.22166
      12     F     4.61305  4.61305  0.00000 -0.22610
      13     F     4.60353  4.60353  0.00000 -0.20707

   Total alpha = 32.00000, Total beta = 32.00000, Total charge = -0.00000
