  ==> Input File <==

--------------------------------------------------------------------------
set {
	reference rhf
	basis 6-31G*
}

set_num_threads( 1 )
memory 2 gb

molecule MOL {
0 1

H	 -2.646374	 -0.642757	 1.268656
C	 -2.083525	 -0.384536	 0.393091
O	 -0.807605	 -0.127164	 0.768327
F	 -2.118945	 -1.383102	 -0.486752
F	 -2.621877	 0.670592	 -0.209486
C	 0.091243	 0.244859	 -0.214708
C	 1.353689	 -0.579400	 0.002058
Cl	 0.452248	 1.976172	 -0.117523
H	 -0.278324	 0.043563	 -1.204998
F	 2.255778	 -0.286967	 -0.910552
F	 1.051696	 -1.857043	 -0.115699
F	 1.874699	 -0.383607	 1.188729

	symmetry c1
}
set optking {
	frozen_dihedral = ("
		10 7 6 9,
		9 6 3 2
	")
}

ee = energy('scf')
oeprop('DIPOLE', 'QUADRUPOLE', 'MULLIKEN_CHARGES')
f=open( 'psi4out.xyz', 'w' )
f.write( "12  " )
f.write( str(ee) + "\n" )
f.write( MOL.save_string_xyz() )
f.close()
--------------------------------------------------------------------------

    Molecular point group: c1

    Geometry (in Angstrom), charge = 0, multiplicity = 1:

       Center              X                  Y                   Z               Mass
    ------------   -----------------  -----------------  -----------------  -----------------
           H         -2.650022854930    -0.622538884257     1.267196312987     1.007825032070
           C         -2.087173854930    -0.364317884257     0.391631312987    12.000000000000
           O         -0.811253854930    -0.106945884257     0.766867312987    15.994914619560
           F         -2.122593854930    -1.362883884257    -0.488211687013    18.998403224000
           F         -2.625525854930     0.690810115743    -0.210945687013    18.998403224000
           C          0.087594145070     0.265077115743    -0.216167687013    12.000000000000
           C          1.350040145070    -0.559181884257     0.000598312987    12.000000000000
          CL          0.448599145070     1.996390115743    -0.118982687013    34.968852682000
           H         -0.281972854930     0.063781115743    -1.206457687013     1.007825032070
           F          2.252129145070    -0.266748884257    -0.912011687013    18.998403224000
           F          1.048047145070    -1.836824884257    -0.117158687013    18.998403224000
           F          1.871050145070    -0.363388884257     1.187269312987    18.998403224000

  Charge       = 0
  Multiplicity = 1
  Basis Set: 6-31G*
  Basis Set:

    Orbital Energies (a.u.)
    -----------------------

    Doubly Occupied:

       1A   -104.843664     2A    -26.359898     3A    -26.358461
       4A    -26.357620     5A    -26.346473     6A    -26.346141
       7A    -20.649730     8A    -11.527383     9A    -11.489628
      10A    -11.400601    11A    -10.578388    12A     -8.047750
      13A     -8.044206    14A     -8.044115    15A     -1.760929
      16A     -1.717857    17A     -1.657484    18A     -1.656033
      19A     -1.638499    20A     -1.486086    21A     -1.179838
      22A     -1.051815    23A     -0.986605    24A     -0.919532
      25A     -0.859890    26A     -0.852297    27A     -0.845289
      28A     -0.823664    29A     -0.811169    30A     -0.789694
      31A     -0.727401    32A     -0.726085    33A     -0.706164
      34A     -0.701585    35A     -0.678279    36A     -0.674920
      37A     -0.658182    38A     -0.657279    39A     -0.645357
      40A     -0.634101    41A     -0.597322    42A     -0.580884
      43A     -0.524212    44A     -0.476642    45A     -0.468739

  @DF-RHF Final Energy: -1146.31437990609447

   => Energetics <=

    Nuclear Repulsion Energy =            738.1245451019492521
    One-Electron Energy =               -3059.1020023356522870
    Two-Electron Energy =                1174.6630773276110631
    DFT Exchange-Correlation Energy =       0.0000000000000000
    Empirical Dispersion Energy =           0.0000000000000000
    PCM Polarization Energy =               0.0000000000000000
    EFP Energy =                            0.0000000000000000
    Total Energy =                      -1146.3143799060917445

  Mulliken Charges: (a.u.)
   Center  Symbol    Alpha    Beta     Spin     Total
       1     H     0.40116  0.40116  0.00000  0.19767
       2     C     2.56540  2.56540  0.00000  0.86919
       3     O     4.29833  4.29833  0.00000 -0.59666
       4     F     4.68636  4.68636  0.00000 -0.37271
       5     F     4.68423  4.68423  0.00000 -0.36845
       6     C     3.04699  3.04699  0.00000 -0.09399
       7     C     2.43343  2.43343  0.00000  1.13315
       8    CL     8.49921  8.49921  0.00000  0.00159
       9     H     0.36661  0.36661  0.00000  0.26679
      10     F     4.67395  4.67395  0.00000 -0.34790
      11     F     4.67593  4.67593  0.00000 -0.35186
      12     F     4.66840  4.66840  0.00000 -0.33680

   Total alpha = 45.00000, Total beta = 45.00000, Total charge =  0.00000
