  ==> Input File <==

--------------------------------------------------------------------------
set {
	reference rhf
	basis cc-pvtz
}

set_num_threads( 4 )
memory 2 gb

molecule MOL {
0 1

H	 -1.147714	 -0.780341	 -0.976863
N	 -1.173824	 -0.310545	 -0.096857
C	 -0.022588	 0.563366	 0.065815
H	 -2.024513	 0.211964	 -0.066465
C	 1.270420	 -0.230572	 -0.014245
H	 -0.045354	 1.293678	 -0.735129
H	 -0.043155	 1.123061	 1.001180
H	 1.336273	 -0.754933	 -0.959364
H	 2.130728	 0.422015	 0.082222
H	 1.323344	 -0.967006	 0.781773

	symmetry c1
}
set optking {
	frozen_dihedral = ("
		1 2 3 6
	")
}

ee = optimize('scf')
oeprop('DIPOLE', 'QUADRUPOLE', 'MULLIKEN_CHARGES')
f=open( 'psi4out.xyz', 'w' )
f.write( "10  " )
f.write( str(ee) + "\n" )
f.write( MOL.save_string_xyz() )
f.close()
--------------------------------------------------------------------------

    Molecular point group: c1
  Charge       = 0
  Multiplicity = 1
  Basis Set: CC-PVTZ
  Basis Set:
  @DF-RHF Final Energy:  -134.30281498682047
    Total Energy =                       -134.3028149868204650
    Molecular point group: c1
  Basis Set: CC-PVTZ
  Basis Set:
  Basis Set: CC-PVTZ
  Basis Set:
  @DF-RHF Final Energy:  -134.30455310042231
    Total Energy =                       -134.3045531004222539
  Basis Set: CC-PVTZ
  Basis Set:
  Basis Set: CC-PVTZ
  Basis Set:
  @DF-RHF Final Energy:  -134.30478943210863
    Total Energy =                       -134.3047894321086346
  Basis Set: CC-PVTZ
  Basis Set:
  Basis Set: CC-PVTZ
  Basis Set:
  @DF-RHF Final Energy:  -134.30479178069842
    Total Energy =                       -134.3047917806985083
  Basis Set: CC-PVTZ
  Basis Set:
  Charge       = 0
  Multiplicity = 1
  Basis Set: CC-PVTZ
  Basis Set:

    Orbital Energies (a.u.)
    -----------------------

    Doubly Occupied:

       1A    -15.527005     2A    -11.240933     3A    -11.205228
       4A     -1.178062     5A     -0.988669     6A     -0.824479
       7A     -0.663378     8A     -0.631961     9A     -0.583209
      10A     -0.516640    11A     -0.508862    12A     -0.488556
      13A     -0.385011

  @DF-RHF Final Energy:  -134.30479209303789

   => Energetics <=

    Nuclear Repulsion Energy =             83.4732882485027403
    One-Electron Energy =                -346.0721740110696487
    Two-Electron Energy =                 128.2940936695289906
    DFT Exchange-Correlation Energy =       0.0000000000000000
    Empirical Dispersion Energy =           0.0000000000000000
    PCM Polarization Energy =               0.0000000000000000
    EFP Energy =                            0.0000000000000000
    Total Energy =                       -134.3047920930379178
    Molecular point group: c1
  Basis Set: CC-PVTZ
  Basis Set:

  -Total Gradient:
     Atom            X                  Y                   Z
    ------   -----------------  -----------------  -----------------
       1        0.000053610511    -0.000056645805     0.000034070307
       2       -0.000095299346     0.000073465280    -0.000019559931
       3        0.000121608854    -0.000081091797    -0.000065594422
       4       -0.000017049112     0.000007298668    -0.000005999073
       5       -0.000007508338     0.000014737144     0.000005001499
       6       -0.000047473794     0.000032925610     0.000049593405
       7        0.000002657580    -0.000010760271     0.000003711034
       8       -0.000009677355     0.000008264317     0.000003187901
       9        0.000009052040     0.000001797167    -0.000000786402
      10       -0.000009921039     0.000010009687    -0.000003624317

  **** Optimization is complete! (in 5 steps) ****
    Final optimized geometry and variables:
    Molecular point group: c1

    Geometry (in Angstrom), charge = 0, multiplicity = 1:

    H           -1.177991851730    -0.791734675765    -0.920084728753
    N           -1.175189128320    -0.317799560983    -0.040908455643
    C           -0.023088559733     0.563009609809     0.069320375797
    H           -2.028638429707     0.195717103627     0.020189188100
    C            1.269372239868    -0.234429817589     0.024966748861
    H            0.000757639403     1.329897870200    -0.705218812851
    H           -0.092062999488     1.081410959582     1.019022244231
    H            1.369072292104    -0.758958481433    -0.920379103644
    H            2.129020115421     0.417187237770     0.133058908154
    H            1.289046343757    -0.970244893439     0.819148076017

  Mulliken Charges: (a.u.)
   Center  Symbol    Alpha    Beta     Spin     Total
       1     H     0.43040  0.43040  0.00000  0.13920
       2     N     3.68984  3.68984  0.00000 -0.37967
       3     C     3.01855  3.01855  0.00000 -0.03709
       4     H     0.42958  0.42958  0.00000  0.14084
       5     C     3.13924  3.13924  0.00000 -0.27847
       6     H     0.46967  0.46967  0.00000  0.06067
       7     H     0.45779  0.45779  0.00000  0.08442
       8     H     0.46001  0.46001  0.00000  0.07998
       9     H     0.45543  0.45543  0.00000  0.08914
      10     H     0.44950  0.44950  0.00000  0.10100

   Total alpha = 13.00000, Total beta = 13.00000, Total charge = -0.00000
