  ==> Input File <==

--------------------------------------------------------------------------
set {
	reference rhf
	basis 6-31G*
}

set_num_threads( 4 )
memory 2 gb

molecule MOL {
0 1

H	 -2.365627	 -1.312883	 -0.379134
C	 -1.358347	 -1.274295	 0.019669
C	 -0.681945	 0.000119	 -0.470601
H	 -0.826096	 -2.155117	 -0.321105
H	 -1.409554	 -1.292283	 1.100109
C	 -1.357790	 1.274691	 0.020220
N	 0.739525	 -0.000142	 0.006128
H	 -0.594190	 0.000341	 -1.545128
H	 -2.364980	 1.313977	 -0.378631
H	 -0.825080	 2.155361	 -0.320114
H	 -1.409060	 1.292170	 1.100671
O	 1.592188	 0.183544	 -0.806156
O	 0.926907	 -0.184488	 1.170733

	symmetry c1
}
set optking {
	frozen_dihedral = ("
		12 7 3 8
	")
}

ee = optimize('scf')
oeprop('DIPOLE', 'QUADRUPOLE', 'MULLIKEN_CHARGES')
f=open( 'psi4out.xyz', 'w' )
f.write( "13  " )
f.write( str(ee) + "\n" )
f.write( MOL.save_string_xyz() )
f.close()
--------------------------------------------------------------------------

    Molecular point group: c1
  Charge       = 0
  Multiplicity = 1
  Basis Set: 6-31G*
  Basis Set:
  @DF-RHF Final Energy:  -321.73908828159165
    Total Energy =                       -321.7390882815916484
    Molecular point group: c1
  Basis Set: 6-31G*
  Basis Set:
  Basis Set: 6-31G*
  Basis Set:
  @DF-RHF Final Energy:  -321.73328819097742
    Total Energy =                       -321.7332881909776461
  Basis Set: 6-31G*
  Basis Set:
  Basis Set: 6-31G*
  Basis Set:
  @DF-RHF Final Energy:  -321.73899499865252
    Total Energy =                       -321.7389949986525153
  Basis Set: 6-31G*
  Basis Set:
  Basis Set: 6-31G*
  Basis Set:
  @DF-RHF Final Energy:  -321.73917137340959
    Total Energy =                       -321.7391713734095333
  Basis Set: 6-31G*
  Basis Set:
  Basis Set: 6-31G*
  Basis Set:
  @DF-RHF Final Energy:  -321.73917327541795
    Total Energy =                       -321.7391732754180680
  Basis Set: 6-31G*
  Basis Set:
  Charge       = 0
  Multiplicity = 1
  Basis Set: 6-31G*
  Basis Set:

    Orbital Energies (a.u.)
    -----------------------

    Doubly Occupied:

       1A    -20.601141     2A    -20.597996     3A    -15.842821
       4A    -11.305837     5A    -11.247480     6A    -11.244665
       7A     -1.628571     8A     -1.414043     9A     -1.143969
      10A     -0.974630    11A     -0.957887    12A     -0.814037
      13A     -0.749817    14A     -0.728081    15A     -0.722070
      16A     -0.650329    17A     -0.594793    18A     -0.588676
      19A     -0.571527    20A     -0.530115    21A     -0.523082
      22A     -0.482479    23A     -0.468775    24A     -0.447169

  @DF-RHF Final Energy:  -321.73917365970539

   => Energetics <=

    Nuclear Repulsion Energy =            256.7901728433436688
    One-Electron Energy =                -947.3987120468564171
    Two-Electron Energy =                 368.8693655438073620
    DFT Exchange-Correlation Energy =       0.0000000000000000
    Empirical Dispersion Energy =           0.0000000000000000
    PCM Polarization Energy =               0.0000000000000000
    EFP Energy =                            0.0000000000000000
    Total Energy =                       -321.7391736597053296
    Molecular point group: c1
  Basis Set: 6-31G*
  Basis Set:

  -Total Gradient:
     Atom            X                  Y                   Z
    ------   -----------------  -----------------  -----------------
       1        0.000002771290     0.000004710565    -0.000002765887
       2        0.000000123132    -0.000021791375     0.000000213754
       3       -0.000021229261     0.000486267002     0.000029881551
       4        0.000002775498    -0.000000238456    -0.000000642045
       5        0.000004942449     0.000010497063    -0.000004064205
       6        0.000004870978    -0.000019231846    -0.000003934645
       7        0.000057458839    -0.000450921729    -0.000083293706
       8        0.000011721844    -0.000314077496     0.000002854303
       9       -0.000003931780     0.000008857101     0.000003877989
      10       -0.000003264683     0.000005119251     0.000003268861
      11       -0.000005470816     0.000007798162     0.000003092084
      12       -0.000029970262     0.000288676119     0.000039718434
      13       -0.000020797228    -0.000005664362     0.000011793507

  **** Optimization is complete! (in 6 steps) ****
    Final optimized geometry and variables:
    Molecular point group: c1

    Geometry (in Angstrom), charge = 0, multiplicity = 1:

    H           -2.368621588473    -1.319370508020    -0.391827548709
    C           -1.364992048490    -1.284457519979     0.016799281771
    C           -0.681856565190    -0.014074567122    -0.470167326900
    H           -0.833732885561    -2.168231476925    -0.317571147124
    H           -1.426162457138    -1.302626645925     1.096256525225
    C           -1.351161180263     1.264875578418     0.022327954022
    N            0.739811695307    -0.001028301144     0.006024748796
    H           -0.594016154605    -0.010259649616    -1.544732701813
    H           -2.361340886253     1.307658016507    -0.368177263411
    H           -0.816356738160     2.141929838041    -0.323551156278
    H           -1.394676040087     1.283044927311     1.103739562895
    O            1.588466964855     0.193605714785    -0.808131327501
    O            0.930335590601    -0.163179547289     1.173235885152

  Mulliken Charges: (a.u.)
   Center  Symbol    Alpha    Beta     Spin     Total
       1     H     0.40929  0.40929  0.00000  0.18141
       2     C     3.24900  3.24900  0.00000 -0.49800
       3     C     3.02374  3.02374  0.00000 -0.04749
       4     H     0.40392  0.40392  0.00000  0.19216
       5     H     0.39628  0.39628  0.00000  0.20745
       6     C     3.25044  3.25044  0.00000 -0.50088
       7     N     3.21582  3.21582  0.00000  0.56836
       8     H     0.38540  0.38540  0.00000  0.22921
       9     H     0.40705  0.40705  0.00000  0.18589
      10     H     0.40123  0.40123  0.00000  0.19755
      11     H     0.39777  0.39777  0.00000  0.20446
      12     O     4.22840  4.22840  0.00000 -0.45681
      13     O     4.23166  4.23166  0.00000 -0.46331

   Total alpha = 24.00000, Total beta = 24.00000, Total charge =  0.00000
