  ==> Input File <==

--------------------------------------------------------------------------
set {
	reference rhf
	basis 6-31G*
}

set_num_threads( 4 )
memory 2 gb

molecule MOL {
0 1

H	 -2.098997	 -0.674324	 -0.616650
O	 -2.035884	 -0.060112	 0.102722
C	 -0.955155	 0.788182	 -0.092531
C	 0.353668	 0.040312	 -0.004810
H	 -0.985057	 1.290372	 -1.054184
H	 -0.974469	 1.533190	 0.688632
F	 0.757231	 -0.338877	 -1.212256
F	 1.295775	 0.814887	 0.508676
F	 0.267405	 -1.041909	 0.741451

	symmetry c1
}
set optking {
	frozen_dihedral = ("
		7 4 3 5
	")
}

ee = optimize('scf')
oeprop('DIPOLE', 'QUADRUPOLE', 'MULLIKEN_CHARGES')
f=open( 'psi4out.xyz', 'w' )
f.write( "9  " )
f.write( str(ee) + "\n" )
f.write( MOL.save_string_xyz() )
f.close()
--------------------------------------------------------------------------

    Molecular point group: c1
  Charge       = 0
  Multiplicity = 1
  Basis Set: 6-31G*
  Basis Set:
  @DF-RHF Final Energy:  -450.65748248028973
    Total Energy =                       -450.6574824802897865
    Molecular point group: c1
  Basis Set: 6-31G*
  Basis Set:
  Basis Set: 6-31G*
  Basis Set:
  @DF-RHF Final Energy:  -450.65782871563903
    Total Energy =                       -450.6578287156387432
  Basis Set: 6-31G*
  Basis Set:
  Basis Set: 6-31G*
  Basis Set:
  @DF-RHF Final Energy:  -450.65803147678423
    Total Energy =                       -450.6580314767841173
  Basis Set: 6-31G*
  Basis Set:
  Basis Set: 6-31G*
  Basis Set:
  @DF-RHF Final Energy:  -450.65804033588813
    Total Energy =                       -450.6580403358880176
  Basis Set: 6-31G*
  Basis Set:
  Basis Set: 6-31G*
  Basis Set:
  @DF-RHF Final Energy:  -450.65804206670106
    Total Energy =                       -450.6580420667010571
  Basis Set: 6-31G*
  Basis Set:
  Charge       = 0
  Multiplicity = 1
  Basis Set: 6-31G*
  Basis Set:

    Orbital Energies (a.u.)
    -----------------------

    Doubly Occupied:

       1A    -26.340656     2A    -26.339869     3A    -26.338478
       4A    -20.589669     5A    -11.499429     6A    -11.310036
       7A     -1.738557     8A     -1.637383     9A     -1.633665
      10A     -1.400869    11A     -1.044528    12A     -0.922807
      13A     -0.828679    14A     -0.825799    15A     -0.802552
      16A     -0.728843    17A     -0.710339    18A     -0.696551
      19A     -0.661396    20A     -0.657372    21A     -0.640194
      22A     -0.627173    23A     -0.610004    24A     -0.529572
      25A     -0.479993

  @DF-RHF Final Energy:  -450.65804194219646

   => Energetics <=

    Nuclear Repulsion Energy =            276.1376688852582788
    One-Electron Energy =               -1174.4025926750471172
    Two-Electron Energy =                 447.6068818475922058
    DFT Exchange-Correlation Energy =       0.0000000000000000
    Empirical Dispersion Energy =           0.0000000000000000
    PCM Polarization Energy =               0.0000000000000000
    EFP Energy =                            0.0000000000000000
    Total Energy =                       -450.6580419421965757
    Molecular point group: c1
  Basis Set: 6-31G*
  Basis Set:

  -Total Gradient:
     Atom            X                  Y                   Z
    ------   -----------------  -----------------  -----------------
       1        0.000018756080     0.000017938684    -0.000001969007
       2       -0.000064939411    -0.000016208777     0.000077636967
       3        0.003738682681     0.006797193558     0.002386852716
       4       -0.003692698024    -0.006509333253     0.000295939983
       5       -0.002438504806    -0.004540614936    -0.002220002584
       6        0.000027588685    -0.000026576568    -0.000000556688
       7        0.002396669660     0.004253993595    -0.000549614802
       8        0.000022926600    -0.000031108630    -0.000081224059
       9       -0.000008481454     0.000054716327     0.000092937471

  **** Optimization is complete! (in 6 steps) ****
    Final optimized geometry and variables:
    Molecular point group: c1

    Geometry (in Angstrom), charge = 0, multiplicity = 1:

    H           -2.166348572978    -0.633211946330    -0.666628166512
    O           -2.065154479033    -0.066818849677     0.086500360964
    C           -0.972071545515     0.775560071529    -0.083470650118
    C            0.352420488387     0.028905507465    -0.002066396861
    H           -1.007502581755     1.267198745919    -1.049135973969
    H           -1.001725781117     1.507575714290     0.707693945085
    F            0.757810776742    -0.363220608002    -1.205276167479
    F            1.297689558872     0.830221607809     0.469406517618
    F            0.296067461237    -1.032477231410     0.770548198620

  Mulliken Charges: (a.u.)
   Center  Symbol    Alpha    Beta     Spin     Total
       1     H     0.27434  0.27434  0.00000  0.45131
       2     O     4.35985  4.35985  0.00000 -0.71971
       3     C     3.06190  3.06190  0.00000 -0.12381
       4     C     2.46265  2.46265  0.00000  1.07471
       5     H     0.40660  0.40660  0.00000  0.18680
       6     H     0.39304  0.39304  0.00000  0.21393
       7     F     4.68529  4.68529  0.00000 -0.37057
       8     F     4.68406  4.68406  0.00000 -0.36812
       9     F     4.67227  4.67227  0.00000 -0.34454

   Total alpha = 25.00000, Total beta = 25.00000, Total charge = -0.00000
