                              Psi4 1.0.54 Driver

  ==> Input File <==

--------------------------------------------------------------------------
set {
	reference rhf
	basis cc-pvtz
}

set_num_threads( 4 )
memory 2 gb

molecule MOL {
0 1

H	 2.867672	 -0.456275	 0.875795
C	 2.403497	 -0.020426	 0.000000
N	 0.989899	 -0.304564	 0.000000
H	 2.867672	 -0.456275	 -0.875795
H	 2.620366	 1.051270	 0.000000
C	 0.675785	 -1.549982	 -0.669205
C	 0.206962	 0.782434	 -0.550465
H	 0.980050	 -1.526806	 -1.720218
H	 1.215103	 -2.358477	 -0.189413
C	 -0.814086	 -1.822267	 -0.589283
H	 0.402288	 1.685308	 0.016449
H	 0.475964	 0.981042	 -1.592548
C	 -1.270863	 0.450219	 -0.473595
H	 -1.070432	 -2.701160	 -1.164140
H	 -1.097356	 -1.993304	 0.447348
O	 -1.550483	 -0.758395	 -1.115630
H	 -1.857386	 1.213966	 -0.964828
H	 -1.577770	 0.396777	 0.569023

	symmetry c1
}
set optking {
	frozen_dihedral = ("
		6 3 2 5
	")
}

ee,wfn = optimize('scf', return_wfn=True)
oeprop( wfn, 'DIPOLE', 'QUADRUPOLE', 'MULLIKEN_CHARGES')
f=open( 'psi4out.xyz', 'w' )
f.write( "18  " )
f.write( str(ee) + "\n" )
f.write( MOL.save_string_xyz() )
f.close()
--------------------------------------------------------------------------

    Molecular point group: c1
  Charge       = 0
  Multiplicity = 1
  Basis Set: CC-PVTZ
  Basis Set:
  @DF-RHF Final Energy:  -325.14156334742506
    Total Energy =                       -325.1415633474253468
    Molecular point group: c1
  Basis Set: CC-PVTZ
  Basis Set:
  Basis Set: CC-PVTZ
  Basis Set:
  @DF-RHF Final Energy:  -325.14224491249968
    Total Energy =                       -325.1422449124996774
  Basis Set: CC-PVTZ
  Basis Set:
  Basis Set: CC-PVTZ
  Basis Set:
  @DF-RHF Final Energy:  -325.14234005899544
    Total Energy =                       -325.1423400589954440
  Basis Set: CC-PVTZ
  Basis Set:
  Charge       = 0
  Multiplicity = 1
  Basis Set: CC-PVTZ
  Basis Set:

    Orbital Energies (a.u.)
    -----------------------

    Doubly Occupied:

       1A    -20.547264     2A    -15.543936     3A    -11.263974
       4A    -11.263952     5A    -11.242619     6A    -11.242388
       7A    -11.239027     8A     -1.386278     9A     -1.231976
      10A     -1.038661    11A     -0.981451    12A     -0.883368
      13A     -0.870133    14A     -0.775197    15A     -0.684816
      16A     -0.645777    17A     -0.644454    18A     -0.633364
      19A     -0.629959    20A     -0.573602    21A     -0.557866
      22A     -0.544656    23A     -0.526597    24A     -0.500661
      25A     -0.483502    26A     -0.453542    27A     -0.410229
      28A     -0.355077

  @DF-RHF Final Energy:  -325.14234257222483

   => Energetics <=

    Nuclear Repulsion Energy =            341.7364520180644831
    One-Electron Energy =               -1119.4489315855362292
    Two-Electron Energy =                 452.5701369952471396
    DFT Exchange-Correlation Energy =       0.0000000000000000
    Empirical Dispersion Energy =           0.0000000000000000
    PCM Polarization Energy =               0.0000000000000000
    EFP Energy =                            0.0000000000000000
    Total Energy =                       -325.1423425722246066
    Molecular point group: c1
  Basis Set: CC-PVTZ
  Basis Set:

  -Total Gradient:
     Atom            X                  Y                   Z
    ------   -----------------  -----------------  -----------------
       1        0.000017963756    -0.000012628071     0.000023793476
       2       -0.000230072816     0.000669916363     0.004925182658
       3        0.000541045960    -0.002481108399     0.002996425581
       4       -0.000001659109    -0.000009627655    -0.000029387822
       5        0.000057644457    -0.000073666089    -0.004824920609
       6       -0.000230658496     0.001842400211    -0.003184630512
       7       -0.000028971448    -0.000136293443     0.000140343081
       8        0.000030440606     0.000005939835    -0.000017777863
       9        0.000015076809     0.000006422493     0.000002272047
      10       -0.000015657441     0.000096033738     0.000117030583
      11       -0.000019787280    -0.000012237304    -0.000019584271
      12       -0.000040113887     0.000001547801     0.000009812698
      13       -0.000064720447     0.000154743785    -0.000109382071
      14        0.000028847556     0.000027236358    -0.000003470866
      15       -0.000027563949    -0.000032562496     0.000024061057
      16        0.000008411212    -0.000020643439    -0.000004381577
      17       -0.000081996233     0.000001551558    -0.000008761947
      18        0.000041770749    -0.000027025246    -0.000036623641

  **** Optimization is complete! (in 4 steps) ****
    Final optimized geometry and variables:
    Molecular point group: c1

    Geometry (in Angstrom), charge = 0, multiplicity = 1:

    H            2.785777307131     0.022966560471     1.394328703685
    C            2.311940208798     0.456897863670     0.522253978716
    N            0.890970917944     0.171043693597     0.504681429142
    H            2.817378177818     0.069594697240    -0.363808216392
    H            2.481022563253     1.525515637728     0.520563374710
    C            0.592638029947    -1.078406698497    -0.165580358753
    C            0.102848283492     1.242194647858    -0.074670114459
    H            0.902252854437    -1.048083661902    -1.214315593435
    H            1.140365870627    -1.882322363012     0.313950746555
    C           -0.893392910655    -1.371216226136    -0.092770872851
    H            0.279241325550     2.156032859253     0.479846128635
    H            0.376711680061     1.427691438382    -1.117853124473
    C           -1.372733222442     0.897146375983    -0.004332171853
    H           -1.132822876033    -2.257546996080    -0.663708268265
    H           -1.181459862927    -1.539834013529     0.942981006660
    O           -1.639973811134    -0.321414101566    -0.632318727194
    H           -1.962619484770     1.650456386729    -0.507894297067
    H           -1.684271822237     0.854332348738     1.037467941641

  Mulliken Charges: (a.u.)
   Center  Symbol    Alpha    Beta     Spin     Total
       1     H     0.44826  0.44826  0.00000  0.10348
       2     C     3.09295  3.09295  0.00000 -0.18591
       3     N     3.61906  3.61906  0.00000 -0.23812
       4     H     0.46674  0.46674  0.00000  0.06651
       5     H     0.45503  0.45503  0.00000  0.08993
       6     C     3.04227  3.04227  0.00000 -0.08455
       7     C     3.04001  3.04001  0.00000 -0.08002
       8     H     0.46806  0.46806  0.00000  0.06388
       9     H     0.45385  0.45385  0.00000  0.09231
      10     C     2.98399  2.98399  0.00000  0.03201
      11     H     0.45392  0.45392  0.00000  0.09215
      12     H     0.46935  0.46935  0.00000  0.06131
      13     C     2.98453  2.98453  0.00000  0.03093
      14     H     0.45005  0.45005  0.00000  0.09991
      15     H     0.46769  0.46769  0.00000  0.06462
      16     O     4.18647  4.18647  0.00000 -0.37294
      17     H     0.44987  0.44987  0.00000  0.10026
      18     H     0.46789  0.46789  0.00000  0.06423

   Total alpha = 28.00000, Total beta = 28.00000, Total charge =  0.00000

*** Psi4 exiting successfully. Buy a developer a beer!
