  ==> Input File <==

--------------------------------------------------------------------------
set {
	reference rhf
	basis 6-31G*
}

set_num_threads( 4 )
memory 2 gb

molecule MOL {
0 1

O	 -0.682937	 1.318834	 -0.186099
C	 -0.860635	 0.152188	 -0.042321
C	 -2.173363	 -0.477127	 0.338347
O	 0.083258	 -0.765189	 -0.202595
H	 -2.477673	 -1.180929	 -0.427595
H	 -2.923125	 0.290956	 0.455536
H	 -2.058825	 -1.029004	 1.264191
C	 1.391937	 -0.334737	 -0.569838
C	 2.252354	 -1.497907	 -1.027402
H	 1.842361	 0.182404	 0.263722
H	 1.230226	 0.367566	 -1.374897
H	 3.214229	 -1.130122	 -1.371293
H	 2.424766	 -2.193157	 -0.215447
H	 1.776366	 -2.025199	 -1.847044

	symmetry c1
}
set optking {
	frozen_dihedral = ("
		10 8 4 2
	")
}

ee = optimize('scf')
oeprop('DIPOLE', 'QUADRUPOLE', 'MULLIKEN_CHARGES')
f=open( 'psi4out.xyz', 'w' )
f.write( "14  " )
f.write( str(ee) + "\n" )
f.write( MOL.save_string_xyz() )
f.close()
--------------------------------------------------------------------------

    Molecular point group: c1
  Charge       = 0
  Multiplicity = 1
  Basis Set: 6-31G*
  Basis Set:
  @DF-RHF Final Energy:  -305.87425330123898
    Total Energy =                       -305.8742533012388094
    Molecular point group: c1
  Basis Set: 6-31G*
  Basis Set:
  Basis Set: 6-31G*
  Basis Set:
  @DF-RHF Final Energy:  -305.87567554770135
    Total Energy =                       -305.8756755477011779
  Basis Set: 6-31G*
  Basis Set:
  Basis Set: 6-31G*
  Basis Set:
  @DF-RHF Final Energy:  -305.87589277050085
    Total Energy =                       -305.8758927705009114
  Basis Set: 6-31G*
  Basis Set:
  Basis Set: 6-31G*
  Basis Set:
  @DF-RHF Final Energy:  -305.87538373592605
    Total Energy =                       -305.8753837359261638
  Basis Set: 6-31G*
  Basis Set:
  Basis Set: 6-31G*
  Basis Set:
  @DF-RHF Final Energy:  -305.87602832189395
    Total Energy =                       -305.8760283218942391
  Basis Set: 6-31G*
  Basis Set:
  Basis Set: 6-31G*
  Basis Set:
  @DF-RHF Final Energy:  -305.87603138848351
    Total Energy =                       -305.8760313884834545
  Basis Set: 6-31G*
  Basis Set:
  Charge       = 0
  Multiplicity = 1
  Basis Set: 6-31G*
  Basis Set:

    Orbital Energies (a.u.)
    -----------------------

    Doubly Occupied:

       1A    -20.602135     2A    -20.544360     3A    -11.374888
       4A    -11.285335     5A    -11.233439     6A    -11.222745
       7A     -1.468253     8A     -1.362656     9A     -1.058014
      10A     -1.000380    11A     -0.871115    12A     -0.780273
      13A     -0.691005    14A     -0.687002    15A     -0.666306
      16A     -0.611219    17A     -0.580288    18A     -0.563794
      19A     -0.553379    20A     -0.540024    21A     -0.508643
      22A     -0.503107    23A     -0.453260    24A     -0.438931

  @DF-RHF Final Energy:  -305.87603151064195

   => Energetics <=

    Nuclear Repulsion Energy =            245.6035867323342075
    One-Electron Energy =                -903.7581350194071774
    Two-Electron Energy =                 352.2785167764311609
    DFT Exchange-Correlation Energy =       0.0000000000000000
    Empirical Dispersion Energy =           0.0000000000000000
    PCM Polarization Energy =               0.0000000000000000
    EFP Energy =                            0.0000000000000000
    Total Energy =                       -305.8760315106418375
    Molecular point group: c1
  Basis Set: 6-31G*
  Basis Set:

  -Total Gradient:
     Atom            X                  Y                   Z
    ------   -----------------  -----------------  -----------------
       1        0.000016381861    -0.000004221242    -0.000001545359
       2       -0.000252839247    -0.000094684332    -0.000862115915
       3       -0.000011067225     0.000001576635    -0.000003498984
       4        0.000423498122    -0.000086827312     0.001319857613
       5        0.000001281515    -0.000001071525     0.000003877667
       6       -0.000000009876    -0.000000549867     0.000001685866
       7       -0.000002003830     0.000000195124     0.000003333828
       8       -0.000636508061     0.001049743364    -0.000784235038
       9        0.000016568449     0.000021177808     0.000006799754
      10        0.000431525037    -0.000892987134     0.000316181487
      11        0.000014037540     0.000006243389    -0.000002712363
      12        0.000004511471    -0.000007695186    -0.000003497599
      13        0.000000006627     0.000001825492     0.000003669122
      14       -0.000005382384     0.000007274788     0.000002199923

  **** Optimization is complete! (in 7 steps) ****
    Final optimized geometry and variables:
    Molecular point group: c1

    Geometry (in Angstrom), charge = 0, multiplicity = 1:

    O           -0.691825292068     1.584023978277     0.126879616564
    C           -0.861073206831     0.413926009585     0.247623937152
    C           -2.164464492563    -0.234605989831     0.628382536951
    O            0.091983895580    -0.488734365389     0.062079249137
    H           -2.471261983577    -0.924883239568    -0.148861760225
    H           -2.919337815839     0.524462939255     0.769166909073
    H           -2.036069529493    -0.804411093405     1.541472594784
    C            1.380431971163    -0.021132536628    -0.325004297751
    C            2.200639496510    -1.230130194165    -0.723881289613
    H            1.828467647553     0.497887994151     0.512362368050
    H            1.275195106982     0.679747715086    -1.140126210770
    H            3.198695962547    -0.919447187811    -1.015548585246
    H            2.286247392223    -1.927281463095     0.101837546882
    H            1.743336069151    -1.745678434162    -1.560775200705

  Mulliken Charges: (a.u.)
   Center  Symbol    Alpha    Beta     Spin     Total
       1     O     4.28314  4.28314  0.00000 -0.56628
       2     C     2.62011  2.62011  0.00000  0.75977
       3     C     3.28161  3.28161  0.00000 -0.56321
       4     O     4.30661  4.30661  0.00000 -0.61322
       5     H     0.40064  0.40064  0.00000  0.19872
       6     H     0.39691  0.39691  0.00000  0.20618
       7     H     0.40037  0.40037  0.00000  0.19926
       8     C     3.00293  3.00293  0.00000 -0.00585
       9     C     3.24843  3.24843  0.00000 -0.49687
      10     H     0.41247  0.41247  0.00000  0.17506
      11     H     0.40661  0.40661  0.00000  0.18678
      12     H     0.41628  0.41628  0.00000  0.16744
      13     H     0.41165  0.41165  0.00000  0.17671
      14     H     0.41224  0.41224  0.00000  0.17552

   Total alpha = 24.00000, Total beta = 24.00000, Total charge = -0.00000
