  ==> Input File <==

--------------------------------------------------------------------------
set {
	reference rhf
	basis 6-31G*
}

set_num_threads( 4 )
memory 2 gb

molecule MOL {
0 1

H	 3.176824	 0.623597	 -1.371008
O	 2.245605	 0.471933	 -1.242228
C	 2.077727	 -0.067559	 -0.035091
C	 0.624473	 -0.343591	 0.253101
O	 2.991758	 -0.286478	 0.691296
C	 -0.265902	 0.883932	 0.072916
H	 0.324016	 -1.163849	 -0.390541
H	 0.565024	 -0.726111	 1.268924
C	 -1.728698	 0.646073	 0.462102
H	 -0.209144	 1.219470	 -0.958188
H	 0.135059	 1.692851	 0.673903
C	 -2.482460	 -0.343073	 -0.431425
H	 -2.245265	 1.602650	 0.432430
H	 -1.779332	 0.308348	 1.496285
C	 -3.960546	 -0.461025	 -0.060175
H	 -2.395034	 -0.026811	 -1.468912
H	 -2.024850	 -1.327147	 -0.371646
H	 -4.472726	 -1.168004	 -0.705284
H	 -4.465146	 0.496508	 -0.151489
H	 -4.081218	 -0.800940	 0.964585

	symmetry c1
}
set optking {
	frozen_dihedral = ("
		5 3 4 7
	")
}

ee = optimize('scf')
oeprop('DIPOLE', 'QUADRUPOLE', 'MULLIKEN_CHARGES')
f=open( 'psi4out.xyz', 'w' )
f.write( "20  " )
f.write( str(ee) + "\n" )
f.write( MOL.save_string_xyz() )
f.close()
--------------------------------------------------------------------------

    Molecular point group: c1
  Charge       = 0
  Multiplicity = 1
  Basis Set: 6-31G*
  Basis Set:
  @DF-RHF Final Energy:  -383.94696230980810
    Total Energy =                       -383.9469623098081001
    Molecular point group: c1
  Basis Set: 6-31G*
  Basis Set:
  Basis Set: 6-31G*
  Basis Set:
  @DF-RHF Final Energy:  -383.94647704440729
    Total Energy =                       -383.9464770444074020
  Basis Set: 6-31G*
  Basis Set:
  Basis Set: 6-31G*
  Basis Set:
  @DF-RHF Final Energy:  -383.94712495694483
    Total Energy =                       -383.9471249569446627
  Basis Set: 6-31G*
  Basis Set:
  Basis Set: 6-31G*
  Basis Set:
  @DF-RHF Final Energy:  -383.94724874391329
    Total Energy =                       -383.9472487439131214
  Basis Set: 6-31G*
  Basis Set:
  Basis Set: 6-31G*
  Basis Set:
  @DF-RHF Final Energy:  -383.94723233280740
    Total Energy =                       -383.9472323328075163
  Basis Set: 6-31G*
  Basis Set:
  Basis Set: 6-31G*
  Basis Set:
  @DF-RHF Final Energy:  -383.94725115896546
    Total Energy =                       -383.9472511589655710
  Basis Set: 6-31G*
  Basis Set:
  Charge       = 0
  Multiplicity = 1
  Basis Set: 6-31G*
  Basis Set:

    Orbital Energies (a.u.)
    -----------------------

    Doubly Occupied:

       1A    -20.612863     2A    -20.549373     3A    -11.379857
       4A    -11.239089     5A    -11.230968     6A    -11.223783
       7A    -11.222293     8A    -11.213896     9A     -1.473921
      10A     -1.363914    11A     -1.099194    12A     -1.042197
      13A     -0.960735    14A     -0.863670    15A     -0.823165
      16A     -0.791361    17A     -0.699359    18A     -0.684229
      19A     -0.655970    20A     -0.629713    21A     -0.613054
      22A     -0.592388    23A     -0.575576    24A     -0.551838
      25A     -0.550276    26A     -0.517027    27A     -0.501270
      28A     -0.480834    29A     -0.477142    30A     -0.469282
      31A     -0.459952    32A     -0.434548

  @DF-RHF Final Energy:  -383.94725121784609

   => Energetics <=

    Nuclear Repulsion Energy =            376.6917204747921915
    One-Electron Energy =               -1269.3124636644286056
    Two-Electron Energy =                 508.6734919717906678
    DFT Exchange-Correlation Energy =       0.0000000000000000
    Empirical Dispersion Energy =           0.0000000000000000
    PCM Polarization Energy =               0.0000000000000000
    EFP Energy =                            0.0000000000000000
    Total Energy =                       -383.9472512178457464
    Molecular point group: c1
  Basis Set: 6-31G*
  Basis Set:

  -Total Gradient:
     Atom            X                  Y                   Z
    ------   -----------------  -----------------  -----------------
       1        0.000022882915     0.000015569457    -0.000029334870
       2        0.000041855996    -0.000023891244     0.000052322644
       3       -0.000114062766     0.000714929684     0.000504219681
       4       -0.000128946337     0.000211010274    -0.000600077152
       5        0.000074553151    -0.000534309050    -0.000319662282
       6       -0.000018692429     0.000000904980    -0.000040129633
       7        0.000150846429    -0.000386327819     0.000422588740
       8       -0.000001406149    -0.000014789705    -0.000010103498
       9       -0.000020894041     0.000024623113    -0.000001241844
      10        0.000006487336     0.000020825280    -0.000006150487
      11       -0.000027209565    -0.000021275016    -0.000008775367
      12        0.000022077355    -0.000029408032     0.000019001637
      13       -0.000028573062    -0.000002104622     0.000014161340
      14        0.000011688190    -0.000010400388    -0.000004182288
      15        0.000005675696     0.000037130742    -0.000002808395
      16        0.000015464869    -0.000007358475     0.000006226822
      17       -0.000016314214    -0.000002402294     0.000006557395
      18        0.000009597151     0.000011029854    -0.000009355006
      19       -0.000005868679     0.000004581248     0.000010397459
      20        0.000000838139    -0.000008337984    -0.000003654894

  **** Optimization is complete! (in 7 steps) ****
    Final optimized geometry and variables:
    Molecular point group: c1

    Geometry (in Angstrom), charge = 0, multiplicity = 1:

    H            3.247035051321     0.565135066824    -1.273031089763
    O            2.309514352174     0.433230546029    -1.170280358053
    C            2.101201154480    -0.131195892898     0.019275052234
    C            0.643336310378    -0.405146184687     0.282406492535
    O            2.996127893260    -0.394075847369     0.755312962032
    C           -0.252030837713     0.829445934035     0.105546750814
    H            0.342349077219    -1.196232383824    -0.397531009480
    H            0.574802731010    -0.793538238650     1.290502698120
    C           -1.710482825393     0.588741495693     0.509335717156
    H           -0.205841027316     1.164442201543    -0.925128445715
    H            0.146093755272     1.638375797108     0.712748052356
    C           -2.465409963753    -0.409969619143    -0.372076528324
    H           -2.230673285010     1.543353935665     0.476887646799
    H           -1.749486006307     0.258130012897     1.545759719162
    C           -3.941859144637    -0.525579080236     0.006411127605
    H           -2.382061089584    -0.104237907082    -1.412996953407
    H           -2.006316918229    -1.392580928284    -0.303402570552
    H           -4.455491171210    -1.239045028643    -0.630210496612
    H           -4.447957692308     0.430484862783    -0.091851642528
    H           -4.058013899721    -0.856264316651     1.034632405480

  Mulliken Charges: (a.u.)
   Center  Symbol    Alpha    Beta     Spin     Total
       1     H     0.26750  0.26750  0.00000  0.46500
       2     O     4.34729  4.34729  0.00000 -0.69458
       3     C     2.62858  2.62858  0.00000  0.74283
       4     C     3.20523  3.20523  0.00000 -0.41047
       5     O     4.28006  4.28006  0.00000 -0.56012
       6     C     3.16384  3.16384  0.00000 -0.32767
       7     H     0.39970  0.39970  0.00000  0.20060
       8     H     0.39714  0.39714  0.00000  0.20571
       9     C     3.15430  3.15430  0.00000 -0.30859
      10     H     0.40675  0.40675  0.00000  0.18649
      11     H     0.41370  0.41370  0.00000  0.17259
      12     C     3.15528  3.15528  0.00000 -0.31056
      13     H     0.41796  0.41796  0.00000  0.16407
      14     H     0.42108  0.42108  0.00000  0.15785
      15     C     3.23947  3.23947  0.00000 -0.47895
      16     H     0.42114  0.42114  0.00000  0.15772
      17     H     0.42165  0.42165  0.00000  0.15671
      18     H     0.41790  0.41790  0.00000  0.16421
      19     H     0.42074  0.42074  0.00000  0.15852
      20     H     0.42068  0.42068  0.00000  0.15864

   Total alpha = 32.00000, Total beta = 32.00000, Total charge = -0.00000
