  ==> Input File <==

--------------------------------------------------------------------------
set {
	reference rhf
	basis cc-pvtz
}

set_num_threads( 4 )
memory 2 gb

molecule MOL {
0 1

H	 -1.994659	 0.067648	 0.726380
C	 -1.134928	 -0.484965	 0.413308
C	 -1.127789	 -1.865065	 0.410679
C	 0.000000	 0.179985	 0.000046
H	 -2.000437	 -2.400815	 0.728438
C	 -0.000001	 -2.552036	 -0.000013
N	 0.000000	 1.644631	 0.000076
C	 1.134928	 -0.484948	 -0.413243
H	 -0.000000	 -3.625035	 -0.000032
C	 1.127788	 -1.865048	 -0.410673
O	 1.050559	 2.194174	 -0.000073
O	 -1.050559	 2.194174	 -0.000074
H	 1.994657	 0.067677	 -0.726299
H	 2.000438	 -2.400786	 -0.728450

	symmetry c1
}
set optking {
	frozen_dihedral = ("
		2 4 7 11
	")
}

ee = optimize('scf')
oeprop('DIPOLE', 'QUADRUPOLE', 'MULLIKEN_CHARGES')
f=open( 'psi4out.xyz', 'w' )
f.write( "14  " )
f.write( str(ee) + "\n" )
f.write( MOL.save_string_xyz() )
f.close()
--------------------------------------------------------------------------

    Molecular point group: c1
  Charge       = 0
  Multiplicity = 1
  Basis Set: CC-PVTZ
  Basis Set:
  @DF-RHF Final Energy:  -434.32935940544587
    Total Energy =                       -434.3293594054459845
    Molecular point group: c1
  Basis Set: CC-PVTZ
  Basis Set:
  Basis Set: CC-PVTZ
  Basis Set:
  @DF-RHF Final Energy:  -434.32330621239981
    Total Energy =                       -434.3233062123998707
  Basis Set: CC-PVTZ
  Basis Set:
  Basis Set: CC-PVTZ
  Basis Set:
  @DF-RHF Final Energy:  -434.32930493357821
    Total Energy =                       -434.3293049335781006
  Basis Set: CC-PVTZ
  Basis Set:
  Basis Set: CC-PVTZ
  Basis Set:
  @DF-RHF Final Energy:  -434.32943447775023
    Total Energy =                       -434.3294344777505103
  Basis Set: CC-PVTZ
  Basis Set:
  Basis Set: CC-PVTZ
  Basis Set:
  @DF-RHF Final Energy:  -434.32943519623495
    Total Energy =                       -434.3294351962346127
  Basis Set: CC-PVTZ
  Basis Set:
  Charge       = 0
  Multiplicity = 1
  Basis Set: CC-PVTZ
  Basis Set:

    Orbital Energies (a.u.)
    -----------------------

    Doubly Occupied:

       1A    -20.592337     2A    -20.592232     3A    -15.847620
       4A    -11.302824     5A    -11.267456     6A    -11.267385
       7A    -11.264378     8A    -11.258527     9A    -11.258377
      10A     -1.641352    11A     -1.423886    12A     -1.204904
      13A     -1.096007    14A     -1.055368    15A     -0.959513
      16A     -0.868109    17A     -0.829134    18A     -0.788887
      19A     -0.740617    20A     -0.735373    21A     -0.712450
      22A     -0.658976    23A     -0.651885    24A     -0.626435
      25A     -0.556165    26A     -0.542166    27A     -0.531664
      28A     -0.493270    29A     -0.491341    30A     -0.457263
      31A     -0.377023    32A     -0.369554

  @DF-RHF Final Energy:  -434.32943660434262

   => Energetics <=

    Nuclear Repulsion Energy =            418.2165812424855176
    One-Electron Energy =               -1420.1670791244068823
    Two-Electron Energy =                 567.6210612775782920
    DFT Exchange-Correlation Energy =       0.0000000000000000
    Empirical Dispersion Energy =           0.0000000000000000
    PCM Polarization Energy =               0.0000000000000000
    EFP Energy =                            0.0000000000000000
    Total Energy =                       -434.3294366043430728
    Molecular point group: c1
  Basis Set: CC-PVTZ
  Basis Set:

  -Total Gradient:
     Atom            X                  Y                   Z
    ------   -----------------  -----------------  -----------------
       1       -0.000000266032    -0.000001749485    -0.000002315838
       2        0.000615024855    -0.000026976054     0.001666624508
       3       -0.000010677904     0.000009701305    -0.000010065892
       4       -0.000873819168     0.000018885473    -0.001639758759
       5        0.000000418457     0.000000081418     0.000002279660
       6        0.000011167922    -0.000001459373    -0.000006605938
       7        0.000249130504     0.000025835848    -0.002040707398
       8       -0.000013706571     0.000012468939    -0.000015571185
       9       -0.000000758822     0.000000593126     0.000000215840
      10       -0.000000360539    -0.000011759013     0.000018767366
      11        0.000032555091    -0.000025424922     0.002027709983
      12       -0.000011479818    -0.000001142493     0.000000098475
      13        0.000002147405    -0.000000849012     0.000001590791
      14        0.000000624619     0.000001794243    -0.000002261612

  **** Optimization is complete! (in 6 steps) ****
    Final optimized geometry and variables:
    Molecular point group: c1

    Geometry (in Angstrom), charge = 0, multiplicity = 1:

    H           -2.000330815848     0.071015312256     0.707792261906
    C           -1.138198763423    -0.482765760670     0.402132603697
    C           -1.126757614018    -1.862948974535     0.412097332927
    C           -0.004440634795     0.180035073028    -0.015031871410
    H           -1.995968530802    -2.398682215343     0.739155692064
    C            0.000886451428    -2.549943749068     0.001320296111
    N            0.000063394257     1.643105330835    -0.001581066758
    C            1.135513451328    -0.483326653729    -0.414397711916
    H            0.002498319648    -3.622869451852     0.006394926233
    C            1.127500622428    -1.863414209767    -0.413549503634
    O            1.053338877130     2.187707638859    -0.005838301085
    O           -1.049581167076     2.193978849962     0.027497879278
    H            1.998852707435     0.070119484330    -0.717304115254
    H            1.999875641778    -2.399646891724    -0.731233425254

  Mulliken Charges: (a.u.)
   Center  Symbol    Alpha    Beta     Spin     Total
       1     H     0.40081  0.40081  0.00000  0.19837
       2     C     3.07957  3.07957  0.00000 -0.15915
       3     C     3.07198  3.07198  0.00000 -0.14395
       4     C     2.97015  2.97015  0.00000  0.05970
       5     H     0.41695  0.41695  0.00000  0.16610
       6     C     3.06528  3.06528  0.00000 -0.13056
       7     N     3.25848  3.25848  0.00000  0.48303
       8     C     3.07877  3.07877  0.00000 -0.15754
       9     H     0.41714  0.41714  0.00000  0.16573
      10     C     3.07187  3.07187  0.00000 -0.14373
      11     O     4.17518  4.17518  0.00000 -0.35035
      12     O     4.17562  4.17562  0.00000 -0.35125
      13     H     0.40122  0.40122  0.00000  0.19756
      14     H     0.41698  0.41698  0.00000  0.16604

   Total alpha = 32.00000, Total beta = 32.00000, Total charge = -0.00000
