  ==> Input File <==

--------------------------------------------------------------------------
set {
	reference rhf
	basis cc-pvtz
}

set_num_threads( 4 )
memory 2 gb

molecule MOL {
0 1

H	 0.685000	 1.158000	 0.892000
C	 0.570000	 0.568000	 -0.000000
Cl	 -1.065000	 -0.114000	 -0.000000
F	 1.478000	 -0.420000	 -0.000000
H	 0.685000	 1.158000	 -0.892000

	symmetry c1
}
ee = optimize('scf')
oeprop('DIPOLE', 'QUADRUPOLE', 'MULLIKEN_CHARGES')
f=open( 'psi4out.xyz', 'w' )
f.write( "5  " )
f.write( str(ee) + "\n" )
f.write( MOL.save_string_xyz() )
f.close()
--------------------------------------------------------------------------

    Molecular point group: c1
  Charge       = 0
  Multiplicity = 1
  Basis Set: CC-PVTZ
  Basis Set:
  @DF-RHF Final Energy:  -598.03362488830840
    Total Energy =                       -598.0336248883088501
    Molecular point group: c1
  Basis Set: CC-PVTZ
  Basis Set:
  Basis Set: CC-PVTZ
  Basis Set:
  @DF-RHF Final Energy:  -598.03366354146976
    Total Energy =                       -598.0336635414698776
  Basis Set: CC-PVTZ
  Basis Set:
  Basis Set: CC-PVTZ
  Basis Set:
  @DF-RHF Final Energy:  -598.03366908381940
    Total Energy =                       -598.0336690838191771
  Basis Set: CC-PVTZ
  Basis Set:
  Charge       = 0
  Multiplicity = 1
  Basis Set: CC-PVTZ
  Basis Set:

    Orbital Energies (a.u.)
    -----------------------

    Doubly Occupied:

       1A   -104.839724     2A    -26.315689     3A    -11.382499
       4A    -10.565463     5A     -8.032238     6A     -8.030445
       7A     -8.030313     8A     -1.644592     9A     -1.143175
      10A     -0.935240    11A     -0.756602    12A     -0.741185
      13A     -0.703636    14A     -0.585793    15A     -0.538325
      16A     -0.467355    17A     -0.451628

  @DF-RHF Final Energy:  -598.03366941057959

   => Energetics <=

    Nuclear Repulsion Energy =            102.2174502146146864
    One-Electron Energy =               -1030.1744362934655328
    Two-Electron Energy =                 329.9233166682712408
    DFT Exchange-Correlation Energy =       0.0000000000000000
    Empirical Dispersion Energy =           0.0000000000000000
    PCM Polarization Energy =               0.0000000000000000
    EFP Energy =                            0.0000000000000000
    Total Energy =                       -598.0336694105795914
    Molecular point group: c1
  Basis Set: CC-PVTZ
  Basis Set:

  -Total Gradient:
     Atom            X                  Y                   Z
    ------   -----------------  -----------------  -----------------
       1        0.000013332117    -0.000006975439     0.000003631474
       2       -0.000050940878     0.000034955785     0.000000000020
       3        0.000009011873    -0.000047052329    -0.000000000002
       4        0.000015264759     0.000026047450    -0.000000000002
       5        0.000013332123    -0.000006975441    -0.000003631490

  **** Optimization is complete! (in 4 steps) ****
    Final optimized geometry and variables:
    Molecular point group: c1

    Geometry (in Angstrom), charge = 0, multiplicity = 1:

    H            1.195392739218    -0.697201372276     0.892913334744
    C            0.606533570843    -0.587150718382     0.000000000001
    CL          -0.072477245378     1.051024705463     0.000000000000
    F           -0.376529021982    -1.489704431760    -0.000000000002
    H            1.195392739206    -0.697201372274    -0.892913334730

  Mulliken Charges: (a.u.)
   Center  Symbol    Alpha    Beta     Spin     Total
       1     H     0.45567  0.45567  0.00000  0.08866
       2     C     2.87486  2.87486  0.00000  0.25028
       3    CL     8.59376  8.59376  0.00000 -0.18753
       4     F     4.62003  4.62003  0.00000 -0.24006
       5     H     0.45567  0.45567  0.00000  0.08866

   Total alpha = 17.00000, Total beta = 17.00000, Total charge =  0.00000
