  ==> Input File <==

--------------------------------------------------------------------------
set {
	reference rhf
	basis 6-31G*
}

set_num_threads( 4 )
memory 2 gb

molecule MOL {
0 1

H	 -3.295993	 0.474140	 -0.256787
C	 -2.592269	 0.058694	 -0.975340
O	 -1.392607	 -0.295399	 -0.366433
H	 -3.017835	 -0.838330	 -1.403574
H	 -2.438612	 0.788454	 -1.769233
C	 -0.719715	 0.768384	 0.229244
C	 0.719720	 0.768376	 -0.229267
H	 -1.185038	 1.714362	 -0.050570
H	 -0.750528	 0.687237	 1.313896
O	 1.392611	 -0.295398	 0.366430
H	 0.750534	 0.687200	 -1.313918
H	 1.185043	 1.714359	 0.050526
C	 2.706965	 -0.449871	 -0.062409
H	 2.756559	 -0.644779	 -1.131878
H	 3.305899	 0.433456	 0.155466
H	 3.125548	 -1.294566	 0.467107

	symmetry c1
}
set optking {
	frozen_dihedral = ("
		2 3 6 7
	")
}

ee = optimize('scf')
oeprop('DIPOLE', 'QUADRUPOLE', 'MULLIKEN_CHARGES')
f=open( 'psi4out.xyz', 'w' )
f.write( "16  " )
f.write( str(ee) + "\n" )
f.write( MOL.save_string_xyz() )
f.close()
--------------------------------------------------------------------------

    Molecular point group: c1
  Charge       = 0
  Multiplicity = 1
  Basis Set: 6-31G*
  Basis Set:
  @DF-RHF Final Energy:  -306.97321197973287
    Total Energy =                       -306.9732119797329233
    Molecular point group: c1
  Basis Set: 6-31G*
  Basis Set:
  Basis Set: 6-31G*
  Basis Set:
  @DF-RHF Final Energy:  -306.97352544188772
    Total Energy =                       -306.9735254418878867
  Basis Set: 6-31G*
  Basis Set:
  Basis Set: 6-31G*
  Basis Set:
  @DF-RHF Final Energy:  -306.97362174218478
    Total Energy =                       -306.9736217421846050
  Basis Set: 6-31G*
  Basis Set:
  Charge       = 0
  Multiplicity = 1
  Basis Set: 6-31G*
  Basis Set:

    Orbital Energies (a.u.)
    -----------------------

    Doubly Occupied:

       1A    -20.553317     2A    -20.550850     3A    -11.268986
       4A    -11.268284     5A    -11.265644     6A    -11.263363
       7A     -1.386221     8A     -1.368508     9A     -1.029905
      10A     -0.937549    11A     -0.895130    12A     -0.821764
      13A     -0.685309    14A     -0.676670    15A     -0.656838
      16A     -0.637910    17A     -0.623312    18A     -0.601634
      19A     -0.559016    20A     -0.527970    21A     -0.509265
      22A     -0.475576    23A     -0.470067    24A     -0.415922
      25A     -0.407063

  @DF-RHF Final Energy:  -306.97362307219828

   => Energetics <=

    Nuclear Repulsion Energy =            258.6067561840168310
    One-Electron Energy =                -931.4486089804657922
    Two-Electron Energy =                 365.8682297242507957
    DFT Exchange-Correlation Energy =       0.0000000000000000
    Empirical Dispersion Energy =           0.0000000000000000
    PCM Polarization Energy =               0.0000000000000000
    EFP Energy =                            0.0000000000000000
    Total Energy =                       -306.9736230721981656
    Molecular point group: c1
  Basis Set: 6-31G*
  Basis Set:

  -Total Gradient:
     Atom            X                  Y                   Z
    ------   -----------------  -----------------  -----------------
       1        0.000042226167     0.000006791922     0.000005571990
       2        0.000520577715     0.000088870209    -0.001130526816
       3       -0.000996741662     0.000028701281     0.001174495198
       4       -0.000037358658     0.000001920769    -0.000020953700
       5        0.000041169023    -0.000001026233     0.000043287032
       6        0.000639294497    -0.000838688134     0.000762899722
       7       -0.000273515703     0.000801786891    -0.000828636457
       8        0.000013629345    -0.000011228001    -0.000011625796
       9        0.000063457403     0.000029074034    -0.000006811257
      10       -0.000012159721    -0.000080087636     0.000014766501
      11        0.000001239490    -0.000043617204     0.000033470079
      12        0.000012308628    -0.000004427898    -0.000012958248
      13       -0.000013557249     0.000024537589    -0.000033924835
      14        0.000008202851    -0.000003807538     0.000001045072
      15        0.000003648795    -0.000000611755     0.000002960475
      16       -0.000012420923     0.000001811703     0.000006941036

  **** Optimization is complete! (in 4 steps) ****
    Final optimized geometry and variables:
    Molecular point group: c1

    Geometry (in Angstrom), charge = 0, multiplicity = 1:

    H           -3.343439625396     0.372585185760    -0.090858505677
    C           -2.625847213360    -0.051239723285    -0.790708258826
    O           -1.423455621097    -0.373100916306    -0.167363834276
    H           -3.035597506421    -0.966703019823    -1.194963841235
    H           -2.479501148809     0.656123536756    -1.605062426057
    C           -0.730283155971     0.697411918518     0.406947656326
    C            0.716124525380     0.694551648735    -0.036824855674
    H           -1.175792278798     1.646065080796     0.114768907555
    H           -0.777753444198     0.623726297305     1.488764660207
    O            1.370630451328    -0.394596463145     0.531503832731
    H            0.759134761825     0.645644233872    -1.123679068695
    H            1.190930493784     1.626016014488     0.276404895318
    C            2.687751925345    -0.551727427138     0.112605781739
    H            2.747358193674    -0.714449892575    -0.961815884822
    H            3.294013543779     0.317557313118     0.363865235897
    H            3.090516377600    -1.417095400783     0.620471247508

  Mulliken Charges: (a.u.)
   Center  Symbol    Alpha    Beta     Spin     Total
       1     H     0.42965  0.42965  0.00000  0.14069
       2     C     3.07956  3.07956  0.00000 -0.15913
       3     O     4.30196  4.30196  0.00000 -0.60393
       4     H     0.41158  0.41158  0.00000  0.17683
       5     H     0.43197  0.43197  0.00000  0.13606
       6     C     2.99598  2.99598  0.00000  0.00805
       7     C     2.98971  2.98971  0.00000  0.02057
       8     H     0.43127  0.43127  0.00000  0.13745
       9     H     0.41521  0.41521  0.00000  0.16958
      10     O     4.29980  4.29980  0.00000 -0.59960
      11     H     0.42802  0.42802  0.00000  0.14396
      12     H     0.43435  0.43435  0.00000  0.13130
      13     C     3.07923  3.07923  0.00000 -0.15846
      14     H     0.42880  0.42880  0.00000  0.14239
      15     H     0.43200  0.43200  0.00000  0.13599
      16     H     0.41089  0.41089  0.00000  0.17823

   Total alpha = 25.00000, Total beta = 25.00000, Total charge =  0.00000
