  ==> Input File <==

--------------------------------------------------------------------------
set {
	reference rhf
	basis 6-31G*
}

set_num_threads( 1 )
memory 2 gb

molecule MOL {
0 1

O	 0.749854	 1.307668	 -0.000040
C	 0.576249	 0.131685	 -0.000108
C	 -0.766779	 -0.556801	 -0.000461
O	 1.568443	 -0.749345	 -0.000005
C	 -1.945214	 0.412366	 0.000161
H	 -0.796911	 -1.211249	 -0.867467
H	 -0.796854	 -1.212390	 0.865687
C	 -1.512928	 1.841255	 -0.325375
H	 -2.431207	 0.384417	 0.969507
H	 -2.685041	 0.076758	 -0.718586
H	 -0.794054	 2.212234	 0.399917
H	 -2.364274	 2.513992	 -0.319374
H	 -1.051752	 1.901375	 -1.307299
C	 2.886820	 -0.232538	 0.000322
H	 3.059106	 0.369571	 -0.880203
H	 3.540187	 -1.091012	 0.000050
H	 3.059019	 0.368956	 0.881266

	symmetry c1
}
set optking {
	frozen_dihedral = ("
		1 2 3 6,
		14 4 2 1
	")
}

ee = energy('scf')
oeprop('DIPOLE', 'QUADRUPOLE', 'MULLIKEN_CHARGES')
f=open( 'psi4out.xyz', 'w' )
f.write( "17  " )
f.write( str(ee) + "\n" )
f.write( MOL.save_string_xyz() )
f.close()
--------------------------------------------------------------------------

    Molecular point group: c1

    Geometry (in Angstrom), charge = 0, multiplicity = 1:

       Center              X                  Y                   Z               Mass
    ------------   -----------------  -----------------  -----------------  -----------------
           O          0.488586381211     0.989955239113     0.047873068921    15.994914619560
           C          0.314981381211    -0.186027760887     0.047805068921    12.000000000000
           C         -1.028046618789    -0.874513760887     0.047452068921    12.000000000000
           O          1.307175381211    -1.067057760887     0.047908068921    15.994914619560
           C         -2.206481618789     0.094653239113     0.048074068921    12.000000000000
           H         -1.058178618789    -1.528961760887    -0.819553931079     1.007825032070
           H         -1.058121618789    -1.530102760887     0.913600068921     1.007825032070
           C         -1.774195618789     1.523542239113    -0.277461931079    12.000000000000
           H         -2.692474618789     0.066704239113     1.017420068921     1.007825032070
           H         -2.946308618789    -0.240954760887    -0.670672931079     1.007825032070
           H         -1.055321618789     1.894521239113     0.447830068921     1.007825032070
           H         -2.625541618789     2.196279239113    -0.271460931079     1.007825032070
           H         -1.313019618789     1.583662239113    -1.259385931079     1.007825032070
           C          2.625552381211    -0.550250760887     0.048235068921    12.000000000000
           H          2.797838381211     0.051858239113    -0.832289931079     1.007825032070
           H          3.278919381211    -1.408724760887     0.047963068921     1.007825032070
           H          2.797751381211     0.051243239113     0.929179068921     1.007825032070

  Charge       = 0
  Multiplicity = 1
  Basis Set: 6-31G*
  Basis Set:

    Orbital Energies (a.u.)
    -----------------------

    Doubly Occupied:

       1A    -20.605796     2A    -20.541969     3A    -11.376157
       4A    -11.282525     5A    -11.235831     6A    -11.218307
       7A    -11.182988     8A     -1.473086     9A     -1.369376
      10A     -1.077331    11A     -0.998136    12A     -0.931070
      13A     -0.824949    14A     -0.774491    15A     -0.697879
      16A     -0.686160    17A     -0.669524    18A     -0.632439
      19A     -0.614117    20A     -0.557131    21A     -0.550262
      22A     -0.533966    23A     -0.521994    24A     -0.511871
      25A     -0.475626    26A     -0.468237    27A     -0.450253
      28A     -0.406183

  @DF-RHF Final Energy:  -344.87026582986107

   => Energetics <=

    Nuclear Repulsion Energy =            325.2355356800178470
    One-Electron Energy =               -1114.8761370772817827
    Two-Electron Energy =                 444.7703355674034356
    DFT Exchange-Correlation Energy =       0.0000000000000000
    Empirical Dispersion Energy =           0.0000000000000000
    PCM Polarization Energy =               0.0000000000000000
    EFP Energy =                            0.0000000000000000
    Total Energy =                       -344.8702658298605002

  Mulliken Charges: (a.u.)
   Center  Symbol    Alpha    Beta     Spin     Total
       1     O     4.28539  4.28539  0.00000 -0.57078
       2     C     2.60725  2.60725  0.00000  0.78550
       3     C     3.21073  3.21073  0.00000 -0.42147
       4     O     4.30624  4.30624  0.00000 -0.61247
       5     C     3.15716  3.15716  0.00000 -0.31431
       6     H     0.39732  0.39732  0.00000  0.20536
       7     H     0.39679  0.39679  0.00000  0.20642
       8     C     3.23949  3.23949  0.00000 -0.47898
       9     H     0.41771  0.41771  0.00000  0.16458
      10     H     0.41747  0.41747  0.00000  0.16505
      11     H     0.39119  0.39119  0.00000  0.21761
      12     H     0.43082  0.43082  0.00000  0.13836
      13     H     0.42369  0.42369  0.00000  0.15262
      14     C     3.09248  3.09248  0.00000 -0.18495
      15     H     0.40901  0.40901  0.00000  0.18198
      16     H     0.40804  0.40804  0.00000  0.18393
      17     H     0.40922  0.40922  0.00000  0.18156

   Total alpha = 28.00000, Total beta = 28.00000, Total charge = -0.00000
