  ==> Input File <==

--------------------------------------------------------------------------
set {
	reference rhf
	basis 6-31G*
}

set_num_threads( 1 )
memory 2 gb

molecule MOL {
0 1

H	 3.073703	 0.184159	 0.692180
O	 2.374502	 0.741745	 0.382493
C	 1.135793	 0.118896	 0.612333
C	 0.031547	 1.023609	 0.088541
H	 0.986135	 -0.049553	 1.677282
H	 1.100390	 -0.852087	 0.123414
C	 -1.134819	 0.293262	 -0.585751
H	 0.474374	 1.714721	 -0.623187
H	 -0.338529	 1.620940	 0.920081
C	 -1.917817	 -0.639439	 0.339494
H	 -0.758119	 -0.268455	 -1.433105
H	 -1.813832	 1.041889	 -0.986690
H	 -2.777680	 -1.057197	 -0.174994
H	 -1.310268	 -1.471279	 0.680599
H	 -2.283753	 -0.111424	 1.216626

	symmetry c1
}
set optking {
	frozen_dihedral = ("
		8 4 7 11,
		1 2 3 4
	")
}

ee = energy('scf')
oeprop('DIPOLE', 'QUADRUPOLE', 'MULLIKEN_CHARGES')
f=open( 'psi4out.xyz', 'w' )
f.write( "15  " )
f.write( str(ee) + "\n" )
f.write( MOL.save_string_xyz() )
f.close()
--------------------------------------------------------------------------

    Molecular point group: c1

    Geometry (in Angstrom), charge = 0, multiplicity = 1:

       Center              X                  Y                   Z               Mass
    ------------   -----------------  -----------------  -----------------  -----------------
           H          2.916017239701    -0.115243356421     0.507471752855     1.007825032070
           O          2.216816239701     0.442342643579     0.197784752855    15.994914619560
           C          0.978107239701    -0.180506356421     0.427624752855    12.000000000000
           C         -0.126138760299     0.724206643579    -0.096167247145    12.000000000000
           H          0.828449239701    -0.348955356421     1.492573752855     1.007825032070
           H          0.942704239701    -1.151489356421    -0.061294247145     1.007825032070
           C         -1.292504760299    -0.006140356421    -0.770459247145    12.000000000000
           H          0.316688239701     1.415318643579    -0.807895247145     1.007825032070
           H         -0.496214760299     1.321537643579     0.735372752855     1.007825032070
           C         -2.075502760299    -0.938841356421     0.154785752855    12.000000000000
           H         -0.915804760299    -0.567857356421    -1.617813247145     1.007825032070
           H         -1.971517760299     0.742486643579    -1.171398247145     1.007825032070
           H         -2.935365760299    -1.356599356421    -0.359702247145     1.007825032070
           H         -1.467953760299    -1.770681356421     0.495890752855     1.007825032070
           H         -2.441438760299    -0.410826356421     1.031917752855     1.007825032070

  Charge       = 0
  Multiplicity = 1
  Basis Set: 6-31G*
  Basis Set:

    Orbital Energies (a.u.)
    -----------------------

    Doubly Occupied:

       1A    -20.552082     2A    -11.266481     3A    -11.217478
       4A    -11.211508     5A    -11.210194     6A     -1.358525
       7A     -1.069586     8A     -0.970949     9A     -0.870235
      10A     -0.782835    11A     -0.699600    12A     -0.649346
      13A     -0.607988    14A     -0.590122    15A     -0.557279
      16A     -0.536091    17A     -0.508902    18A     -0.475670
      19A     -0.471166    20A     -0.456497    21A     -0.429755

  @DF-RHF Final Energy:  -232.13951867355695

   => Energetics <=

    Nuclear Repulsion Energy =            188.2059775009620353
    One-Electron Energy =                -687.7063058597968848
    Two-Electron Energy =                 267.3608096852767062
    DFT Exchange-Correlation Energy =       0.0000000000000000
    Empirical Dispersion Energy =           0.0000000000000000
    PCM Polarization Energy =               0.0000000000000000
    EFP Energy =                            0.0000000000000000
    Total Energy =                       -232.1395186735581433

  Mulliken Charges: (a.u.)
   Center  Symbol    Alpha    Beta     Spin     Total
       1     H     0.28169  0.28169  0.00000  0.43663
       2     O     4.37182  4.37182  0.00000 -0.74363
       3     C     2.99223  2.99223  0.00000  0.01553
       4     C     3.16496  3.16496  0.00000 -0.32992
       5     H     0.43079  0.43079  0.00000  0.13842
       6     H     0.43149  0.43149  0.00000  0.13703
       7     C     3.15901  3.15901  0.00000 -0.31803
       8     H     0.40467  0.40467  0.00000  0.19067
       9     H     0.42016  0.42016  0.00000  0.15968
      10     C     3.24248  3.24248  0.00000 -0.48496
      11     H     0.42032  0.42032  0.00000  0.15935
      12     H     0.41924  0.41924  0.00000  0.16152
      13     H     0.41798  0.41798  0.00000  0.16404
      14     H     0.42216  0.42216  0.00000  0.15569
      15     H     0.42100  0.42100  0.00000  0.15799

   Total alpha = 21.00000, Total beta = 21.00000, Total charge =  0.00000
