  ==> Input File <==

--------------------------------------------------------------------------
set {
	reference rhf
	basis cc-pvtz
}

set_num_threads( 4 )
memory 2 gb

molecule MOL {
0 1

H	 -1.835082	 1.385983	 0.000069
C	 -1.300516	 0.441153	 -0.000028
O	 -0.006604	 0.654344	 -0.000106
O	 -1.828920	 -0.612308	 0.000113
C	 0.682590	 0.545785	 -1.242301
C	 2.143095	 0.831878	 -0.985833
H	 0.254789	 1.249866	 -1.941739
H	 0.534239	 -0.448781	 -1.638273
H	 2.276183	 1.829124	 -0.586133
H	 2.697302	 0.757258	 -1.913810
H	 2.557036	 0.121950	 -0.281117

	symmetry c1
}
set optking {
	frozen_dihedral = ("
		5 3 2 4
	")
}

ee = optimize('scf')
oeprop('DIPOLE', 'QUADRUPOLE', 'MULLIKEN_CHARGES')
f=open( 'psi4out.xyz', 'w' )
f.write( "11  " )
f.write( str(ee) + "\n" )
f.write( MOL.save_string_xyz() )
f.close()
--------------------------------------------------------------------------

    Molecular point group: c1
  Charge       = 0
  Multiplicity = 1
  Basis Set: CC-PVTZ
  Basis Set:
  @DF-RHF Final Energy:  -266.91260864396509
    Total Energy =                       -266.9126086439649725
    Molecular point group: c1
  Basis Set: CC-PVTZ
  Basis Set:
  Basis Set: CC-PVTZ
  Basis Set:
  @DF-RHF Final Energy:  -266.91087753503081
    Total Energy =                       -266.9108775350306928
  Basis Set: CC-PVTZ
  Basis Set:
  Basis Set: CC-PVTZ
  Basis Set:
  @DF-RHF Final Energy:  -266.91330584615741
    Total Energy =                       -266.9133058461573000
  Basis Set: CC-PVTZ
  Basis Set:
  Basis Set: CC-PVTZ
  Basis Set:
  @DF-RHF Final Energy:  -266.91382686440807
    Total Energy =                       -266.9138268644080085
  Basis Set: CC-PVTZ
  Basis Set:
  Basis Set: CC-PVTZ
  Basis Set:
  @DF-RHF Final Energy:  -266.91383619518047
    Total Energy =                       -266.9138361951804086
  Basis Set: CC-PVTZ
  Basis Set:
  Basis Set: CC-PVTZ
  Basis Set:
  @DF-RHF Final Energy:  -266.91384114685809
    Total Energy =                       -266.9138411468583172
  Basis Set: CC-PVTZ
  Basis Set:
  Charge       = 0
  Multiplicity = 1
  Basis Set: CC-PVTZ
  Basis Set:

    Orbital Energies (a.u.)
    -----------------------

    Doubly Occupied:

       1A    -20.585538     2A    -20.559886     3A    -11.373590
       4A    -11.298371     5A    -11.226311     6A     -1.469933
       7A     -1.381031     8A     -1.049774     9A     -0.890435
      10A     -0.824104    11A     -0.743279    12A     -0.692524
      13A     -0.652249    14A     -0.638476    15A     -0.563858
      16A     -0.542590    17A     -0.535396    18A     -0.508037
      19A     -0.467238    20A     -0.455520

  @DF-RHF Final Energy:  -266.91384143134206

   => Energetics <=

    Nuclear Repulsion Energy =            177.6081808110197358
    One-Electron Energy =                -716.1277709102570270
    Two-Electron Energy =                 271.6057486678952273
    DFT Exchange-Correlation Energy =       0.0000000000000000
    Empirical Dispersion Energy =           0.0000000000000000
    PCM Polarization Energy =               0.0000000000000000
    EFP Energy =                            0.0000000000000000
    Total Energy =                       -266.9138414313421208
    Molecular point group: c1
  Basis Set: CC-PVTZ
  Basis Set:

  -Total Gradient:
     Atom            X                  Y                   Z
    ------   -----------------  -----------------  -----------------
       1        0.000004762375    -0.000013784398     0.000015895251
       2       -0.000215971887     0.001114755076    -0.005894771683
       3        0.000800721806    -0.003993870801     0.002647051162
       4       -0.000055509992     0.000146298548     0.003740421564
       5       -0.000506907730     0.002741986565    -0.000589694527
       6        0.000006550113    -0.000002117350     0.000036493507
       7       -0.000019438751     0.000008931000     0.000012081411
       8       -0.000009213099    -0.000006526890     0.000024803274
       9        0.000006098881     0.000004424199     0.000001511921
      10       -0.000022121545     0.000000300986     0.000002932314
      11        0.000011029822    -0.000000396937     0.000003275807

  **** Optimization is complete! (in 7 steps) ****
    Final optimized geometry and variables:
    Molecular point group: c1

    Geometry (in Angstrom), charge = 0, multiplicity = 1:

    H           -1.854685031997     0.983903410148     0.468157788203
    C           -1.262348421324     0.071020609638     0.438069535961
    O            0.052076300518     0.309417187415     0.447196846625
    O           -1.743345333936    -0.997363828009     0.456749375870
    C            0.741122081198     0.180277211347    -0.790894958832
    C            2.206225238512     0.447489995369    -0.543971272512
    H            0.333407193441     0.893347874900    -1.500356351124
    H            0.584624423958    -0.818121480974    -1.178432269992
    H            2.351851541501     1.444495817883    -0.148643376124
    H            2.756701603013     0.360124920253    -1.473209974230
    H            2.606773938818    -0.265884940997     0.164206270691

  Mulliken Charges: (a.u.)
   Center  Symbol    Alpha    Beta     Spin     Total
       1     H     0.46265  0.46265  0.00000  0.07470
       2     C     2.83786  2.83786  0.00000  0.32427
       3     O     4.16108  4.16108  0.00000 -0.32216
       4     O     4.16613  4.16613  0.00000 -0.33226
       5     C     2.96764  2.96764  0.00000  0.06472
       6     C     3.13433  3.13433  0.00000 -0.26866
       7     H     0.46523  0.46523  0.00000  0.06955
       8     H     0.45299  0.45299  0.00000  0.09403
       9     H     0.44977  0.44977  0.00000  0.10046
      10     H     0.45593  0.45593  0.00000  0.08815
      11     H     0.44640  0.44640  0.00000  0.10721

   Total alpha = 20.00000, Total beta = 20.00000, Total charge = -0.00000
