  ==> Input File <==

--------------------------------------------------------------------------
set {
	reference rhf
	basis 6-31G*
}

set_num_threads( 1 )
memory 2 gb

molecule MOL {
0 1

O	 -1.276010	 1.052711	 -0.768302
C	 -1.204840	 0.067374	 -0.106123
C	 -2.388195	 -0.672128	 0.458071
O	 -0.067104	 -0.527208	 0.221609
H	 -2.388023	 -1.694060	 0.097175
H	 -3.300579	 -0.174919	 0.164318
H	 -2.315377	 -0.706351	 1.539059
C	 0.575016	 -1.379285	 -0.737336
C	 1.411055	 -2.357846	 0.068298
C	 1.402145	 -0.539511	 -1.698213
H	 -0.195179	 -1.905377	 -1.281885
H	 0.786777	 -2.923803	 0.750366
H	 1.913475	 -3.054447	 -0.594765
H	 2.162765	 -1.833179	 0.648222
H	 1.909136	 -1.180447	 -2.412479
H	 0.771537	 0.146906	 -2.248796
H	 2.151685	 0.028621	 -1.156527

	symmetry c1
}
set optking {
	frozen_dihedral = ("
		11 8 4 2
	")
}

ee = energy('scf')
oeprop('DIPOLE', 'QUADRUPOLE', 'MULLIKEN_CHARGES')
f=open( 'psi4out.xyz', 'w' )
f.write( "17  " )
f.write( str(ee) + "\n" )
f.write( MOL.save_string_xyz() )
f.close()
--------------------------------------------------------------------------

    Molecular point group: c1

    Geometry (in Angstrom), charge = 0, multiplicity = 1:

       Center              X                  Y                   Z               Mass
    ------------   -----------------  -----------------  -----------------  -----------------
           O         -1.056226333010     1.675554915027    -0.401307421673    15.994914619560
           C         -0.985056333010     0.690217915027     0.260871578327    12.000000000000
           C         -2.168411333010    -0.049284084973     0.825065578327    12.000000000000
           O          0.152679666990     0.095635915027     0.588603578327    15.994914619560
           H         -2.168239333010    -1.071216084973     0.464169578327     1.007825032070
           H         -3.080795333010     0.447924915027     0.531312578327     1.007825032070
           H         -2.095593333010    -0.083507084973     1.906053578327     1.007825032070
           C          0.794799666990    -0.756441084973    -0.370341421673    12.000000000000
           C          1.630838666990    -1.735002084973     0.435292578327    12.000000000000
           C          1.621928666990     0.083332915027    -1.331218421673    12.000000000000
           H          0.024604666990    -1.282533084973    -0.914890421673     1.007825032070
           H          1.006560666990    -2.300959084973     1.117360578327     1.007825032070
           H          2.133258666990    -2.431603084973    -0.227770421673     1.007825032070
           H          2.382548666990    -1.210335084973     1.015216578327     1.007825032070
           H          2.128919666990    -0.557603084973    -2.045484421673     1.007825032070
           H          0.991320666990     0.769749915027    -1.881801421673     1.007825032070
           H          2.371468666990     0.651464915027    -0.789532421673     1.007825032070

  Charge       = 0
  Multiplicity = 1
  Basis Set: 6-31G*
  Basis Set:

    Orbital Energies (a.u.)
    -----------------------

    Doubly Occupied:

       1A    -20.581260     2A    -20.552801     3A    -11.375418
       4A    -11.303685     5A    -11.233040     6A    -11.224321
       7A    -11.215202     8A     -1.460313     9A     -1.364990
      10A     -1.077974    11A     -1.007766    12A     -0.950503
      13A     -0.850929    14A     -0.772873    15A     -0.690339
      16A     -0.676395    17A     -0.654091    18A     -0.614927
      19A     -0.591108    20A     -0.584863    21A     -0.555926
      22A     -0.551353    23A     -0.548443    24A     -0.517037
      25A     -0.505863    26A     -0.480291    27A     -0.446421
      28A     -0.434422

  @DF-RHF Final Energy:  -344.89509463132305

   => Energetics <=

    Nuclear Repulsion Energy =            323.3513608396647783
    One-Electron Energy =               -1110.8477143691636684
    Two-Electron Energy =                 442.6012588981762974
    DFT Exchange-Correlation Energy =       0.0000000000000000
    Empirical Dispersion Energy =           0.0000000000000000
    PCM Polarization Energy =               0.0000000000000000
    EFP Energy =                            0.0000000000000000
    Total Energy =                       -344.8950946313226495

  Mulliken Charges: (a.u.)
   Center  Symbol    Alpha    Beta     Spin     Total
       1     O     4.26144  4.26144  0.00000 -0.52289
       2     C     2.62651  2.62651  0.00000  0.74699
       3     C     3.28232  3.28232  0.00000 -0.56464
       4     O     4.31750  4.31750  0.00000 -0.63500
       5     H     0.40776  0.40776  0.00000  0.18449
       6     H     0.39953  0.39953  0.00000  0.20094
       7     H     0.39930  0.39930  0.00000  0.20141
       8     C     2.92911  2.92911  0.00000  0.14179
       9     C     3.24002  3.24002  0.00000 -0.48003
      10     C     3.24406  3.24406  0.00000 -0.48812
      11     H     0.41970  0.41970  0.00000  0.16059
      12     H     0.41270  0.41270  0.00000  0.17460
      13     H     0.41779  0.41779  0.00000  0.16442
      14     H     0.40920  0.40920  0.00000  0.18160
      15     H     0.42250  0.42250  0.00000  0.15501
      16     H     0.39913  0.39913  0.00000  0.20174
      17     H     0.41144  0.41144  0.00000  0.17712

   Total alpha = 28.00000, Total beta = 28.00000, Total charge =  0.00000
