  ==> Input File <==

--------------------------------------------------------------------------
set {
	reference rhf
	basis cc-pvtz
}

set_num_threads( 4 )
memory 2 gb

molecule MOL {
0 1

H	 1.346914	 0.577523	 -0.967475
C	 0.848385	 0.440008	 0.000011
C	 -0.623497	 0.751021	 0.000090
O	 1.465358	 0.073809	 0.939419
C	 -1.523725	 -0.474323	 -0.000013
H	 -0.813143	 1.382932	 -0.864897
H	 -0.813071	 1.382716	 0.865253
H	 -1.342980	 -1.087348	 -0.873016
H	 -2.565269	 -0.177464	 0.000070
H	 -1.342898	 -1.087564	 0.872820

	symmetry c1
}
set optking {
	frozen_dihedral = ("
		4 2 3 6
	")
}

ee = optimize('scf')
oeprop('DIPOLE', 'QUADRUPOLE', 'MULLIKEN_CHARGES')
f=open( 'psi4out.xyz', 'w' )
f.write( "10  " )
f.write( str(ee) + "\n" )
f.write( MOL.save_string_xyz() )
f.close()
--------------------------------------------------------------------------

    Molecular point group: c1
  Charge       = 0
  Multiplicity = 1
  Basis Set: CC-PVTZ
  Basis Set:
  @DF-RHF Final Energy:  -192.02069954956227
    Total Energy =                       -192.0206995495621527
    Molecular point group: c1
  Basis Set: CC-PVTZ
  Basis Set:
  Basis Set: CC-PVTZ
  Basis Set:
  @DF-RHF Final Energy:  -192.02166764013452
    Total Energy =                       -192.0216676401345239
  Basis Set: CC-PVTZ
  Basis Set:
  Basis Set: CC-PVTZ
  Basis Set:
  @DF-RHF Final Energy:  -192.02133586082647
    Total Energy =                       -192.0213358608263547
  Basis Set: CC-PVTZ
  Basis Set:
  Basis Set: CC-PVTZ
  Basis Set:
  @DF-RHF Final Energy:  -192.02174499605997
    Total Energy =                       -192.0217449960598515
  Basis Set: CC-PVTZ
  Basis Set:
  Basis Set: CC-PVTZ
  Basis Set:
  @DF-RHF Final Energy:  -192.02181756546514
    Total Energy =                       -192.0218175654651418
  Basis Set: CC-PVTZ
  Basis Set:
  Charge       = 0
  Multiplicity = 1
  Basis Set: CC-PVTZ
  Basis Set:

    Orbital Energies (a.u.)
    -----------------------

    Doubly Occupied:

       1A    -20.553366     2A    -11.323027     3A    -11.237531
       4A    -11.229577     5A     -1.408670     6A     -1.064104
       7A     -0.905108     8A     -0.788176     9A     -0.685049
      10A     -0.643040    11A     -0.606745    12A     -0.577032
      13A     -0.541108    14A     -0.510724    15A     -0.498252
      16A     -0.414345

  @DF-RHF Final Energy:  -192.02181797872879

   => Energetics <=

    Nuclear Repulsion Energy =            118.5434474376883713
    One-Electron Energy =                -495.1588234212389352
    Two-Electron Energy =                 184.5935580048218299
    DFT Exchange-Correlation Energy =       0.0000000000000000
    Empirical Dispersion Energy =           0.0000000000000000
    PCM Polarization Energy =               0.0000000000000000
    EFP Energy =                            0.0000000000000000
    Total Energy =                       -192.0218179787287340
    Molecular point group: c1
  Basis Set: CC-PVTZ
  Basis Set:

  -Total Gradient:
     Atom            X                  Y                   Z
    ------   -----------------  -----------------  -----------------
       1        0.000006876520    -0.000009428508     0.000008572694
       2        0.000441033409     0.001691270534     0.000117718410
       3        0.000149595736     0.000736524425     0.000773440622
       4       -0.000354191041    -0.001344919406    -0.000220005023
       5        0.000020074227     0.000026503242     0.000002921494
       6       -0.000266608358    -0.001115868603    -0.000692531218
       7        0.000005586458     0.000017037875     0.000012604713
       8       -0.000004571050    -0.000000723738    -0.000006106566
       9        0.000004758380     0.000000157377     0.000000004853
      10       -0.000002554281    -0.000000553197     0.000003380023

  **** Optimization is complete! (in 6 steps) ****
    Final optimized geometry and variables:
    Molecular point group: c1

    Geometry (in Angstrom), charge = 0, multiplicity = 1:

    H            1.303609395917     0.272209333119    -1.225562605853
    C            0.802347774427     0.235705632704    -0.250578855265
    C           -0.660830513350     0.602608585082    -0.237642462401
    O            1.398618747530    -0.116633333208     0.707760674521
    C           -1.528273612404    -0.660751506373    -0.250534198268
    H           -0.888647420388     1.210828205056    -1.105635277757
    H           -0.858678164962     1.180159787404     0.656271462828
    H           -1.337530098810    -1.261096980250    -1.133327905628
    H           -2.577961889180    -0.396671549096    -0.249485794970
    H           -1.326015997221    -1.268581944895     0.621299974821

  Mulliken Charges: (a.u.)
   Center  Symbol    Alpha    Beta     Spin     Total
       1     H     0.46037  0.46037  0.00000  0.07926
       2     C     2.90463  2.90463  0.00000  0.19073
       3     C     3.08230  3.08230  0.00000 -0.16459
       4     O     4.16796  4.16796  0.00000 -0.33592
       5     C     3.14547  3.14547  0.00000 -0.29093
       6     H     0.45174  0.45174  0.00000  0.09652
       7     H     0.44295  0.44295  0.00000  0.11410
       8     H     0.45419  0.45419  0.00000  0.09162
       9     H     0.44707  0.44707  0.00000  0.10586
      10     H     0.44332  0.44332  0.00000  0.11336

   Total alpha = 16.00000, Total beta = 16.00000, Total charge = -0.00000
