  ==> Input File <==

--------------------------------------------------------------------------
set {
	reference rhf
	basis 6-31G*
}

set_num_threads( 1 )
memory 2 gb

molecule MOL {
0 1

H	 -3.161837	 0.500524	 -0.000234
C	 -2.367097	 -0.232926	 -0.000000
O	 -1.158440	 0.455814	 -0.000122
H	 -2.468853	 -0.861886	 -0.882833
H	 -2.468942	 -0.861421	 0.883154
C	 -0.029776	 -0.365156	 0.000148
C	 1.212217	 0.508981	 0.000007
H	 -0.036772	 -1.013236	 -0.877259
H	 -0.036869	 -1.012778	 0.877897
C	 1.874339	 0.583385	 -1.375107
H	 0.933605	 1.502958	 0.336232
H	 1.910636	 0.114977	 0.731902
H	 1.199159	 0.998425	 -2.118275
H	 2.757501	 1.212692	 -1.346071
H	 2.182554	 -0.399633	 -1.720193

	symmetry c1
}
set optking {
	frozen_dihedral = ("
		6 3 2 4,
		8 6 3 2
	")
}

ee = energy('scf')
oeprop('DIPOLE', 'QUADRUPOLE', 'MULLIKEN_CHARGES')
f=open( 'psi4out.xyz', 'w' )
f.write( "15  " )
f.write( str(ee) + "\n" )
f.write( MOL.save_string_xyz() )
f.close()
--------------------------------------------------------------------------

    Molecular point group: c1

    Geometry (in Angstrom), charge = 0, multiplicity = 1:

       Center              X                  Y                   Z               Mass
    ------------   -----------------  -----------------  -----------------  -----------------
           H         -3.034443615373     0.319565762342     0.278534440963     1.007825032070
           C         -2.239703615373    -0.413884237658     0.278768440963    12.000000000000
           O         -1.031046615373     0.274855762342     0.278646440963    15.994914619560
           H         -2.341459615373    -1.042844237658    -0.604064559037     1.007825032070
           H         -2.341548615373    -1.042379237658     1.161922440963     1.007825032070
           C          0.097617384627    -0.546114237658     0.278916440963    12.000000000000
           C          1.339610384627     0.328022762342     0.278775440963    12.000000000000
           H          0.090621384627    -1.194194237658    -0.598490559037     1.007825032070
           H          0.090524384627    -1.193736237658     1.156665440963     1.007825032070
           C          2.001732384627     0.402426762342    -1.096338559037    12.000000000000
           H          1.060998384627     1.321999762342     0.615000440963     1.007825032070
           H          2.038029384627    -0.065981237658     1.010670440963     1.007825032070
           H          1.326552384627     0.817466762342    -1.839506559037     1.007825032070
           H          2.884894384627     1.031733762342    -1.067302559037     1.007825032070
           H          2.309947384627    -0.580591237658    -1.441424559037     1.007825032070

  Charge       = 0
  Multiplicity = 1
  Basis Set: 6-31G*
  Basis Set:

    Orbital Energies (a.u.)
    -----------------------

    Doubly Occupied:

       1A    -20.553367     2A    -11.265019     3A    -11.263518
       4A    -11.212716     5A    -11.208554     6A     -1.378392
       7A     -1.055636     8A     -0.952642     9A     -0.880933
      10A     -0.806069    11A     -0.668374    12A     -0.661633
      13A     -0.631804    14A     -0.585285    15A     -0.578247
      16A     -0.546083    17A     -0.490665    18A     -0.489098
      19A     -0.481469    20A     -0.460966    21A     -0.410919

  @DF-RHF Final Energy:  -232.13429168625828

   => Energetics <=

    Nuclear Repulsion Energy =            191.2789362564269595
    One-Electron Energy =                -693.6636749274844078
    Two-Electron Energy =                 270.2504469847992254
    DFT Exchange-Correlation Energy =       0.0000000000000000
    Empirical Dispersion Energy =           0.0000000000000000
    PCM Polarization Energy =               0.0000000000000000
    EFP Energy =                            0.0000000000000000
    Total Energy =                       -232.1342916862582229

  Mulliken Charges: (a.u.)
   Center  Symbol    Alpha    Beta     Spin     Total
       1     H     0.41241  0.41241  0.00000  0.17517
       2     C     3.07956  3.07956  0.00000 -0.15912
       3     O     4.30432  4.30432  0.00000 -0.60864
       4     H     0.43052  0.43052  0.00000  0.13895
       5     H     0.43043  0.43043  0.00000  0.13915
       6     C     2.98848  2.98848  0.00000  0.02303
       7     C     3.16385  3.16385  0.00000 -0.32770
       8     H     0.43081  0.43081  0.00000  0.13838
       9     H     0.43123  0.43123  0.00000  0.13755
      10     C     3.24463  3.24463  0.00000 -0.48927
      11     H     0.40445  0.40445  0.00000  0.19110
      12     H     0.42127  0.42127  0.00000  0.15746
      13     H     0.41551  0.41551  0.00000  0.16897
      14     H     0.41932  0.41932  0.00000  0.16137
      15     H     0.42320  0.42320  0.00000  0.15360

   Total alpha = 21.00000, Total beta = 21.00000, Total charge =  0.00000
