                              Psi4 1.0.54 Driver

  ==> Input File <==

--------------------------------------------------------------------------
set {
	reference rhf
	basis cc-pvtz
}

set_num_threads( 4 )
memory 2 gb

molecule MOL {
0 1

H	 -3.443064	 -0.651503	 0.670102
O	 -3.109186	 -0.183451	 -0.074081
C	 -1.773801	 -0.070712	 -0.020832
C	 -1.029736	 -0.599045	 1.026864
C	 -1.146141	 0.599053	 -1.057963
H	 -1.523866	 -1.117340	 1.827884
C	 0.337345	 -0.454974	 1.032028
H	 -1.738501	 0.998880	 -1.856253
C	 0.223611	 0.734704	 -1.037804
H	 0.922692	 -0.858012	 1.834549
C	 0.981121	 0.213562	 0.000000
H	 0.711602	 1.254129	 -1.841906
C	 2.447402	 0.371303	 0.000000
O	 3.227427	 -0.521847	 0.000000
H	 2.796538	 1.409525	 0.000000

	symmetry c1
}
set optking {
	frozen_dihedral = ("
		7 11 13 14
	")
}

ee,wfn = optimize('scf', return_wfn=True)
oeprop( wfn, 'DIPOLE', 'QUADRUPOLE', 'MULLIKEN_CHARGES')
f=open( 'psi4out.xyz', 'w' )
f.write( "15  " )
f.write( str(ee) + "\n" )
f.write( MOL.save_string_xyz() )
f.close()
--------------------------------------------------------------------------

    Molecular point group: c1
  Charge       = 0
  Multiplicity = 1
  Basis Set: CC-PVTZ
  Basis Set:
  @DF-RHF Final Energy:  -418.43078309669335
    Total Energy =                       -418.4307830966932897
    Molecular point group: c1
  Basis Set: CC-PVTZ
  Basis Set:
  Basis Set: CC-PVTZ
  Basis Set:
  @DF-RHF Final Energy:  -418.43032298376073
    Total Energy =                       -418.4303229837609024
  Basis Set: CC-PVTZ
  Basis Set:
  Basis Set: CC-PVTZ
  Basis Set:
  @DF-RHF Final Energy:  -418.43129547933609
    Total Energy =                       -418.4312954793360859
  Basis Set: CC-PVTZ
  Basis Set:
  Basis Set: CC-PVTZ
  Basis Set:
  @DF-RHF Final Energy:  -418.43177715170458
    Total Energy =                       -418.4317771517046367
  Basis Set: CC-PVTZ
  Basis Set:
  @DF-RHF Final Energy:  -418.43178258378759
    Total Energy =                       -418.4317825837872533
  @DF-RHF Final Energy:  -418.43178420463175
    Total Energy =                       -418.4317842046320948
  @DF-RHF Final Energy:  -418.43176255576731
    Total Energy =                       -418.4317625557673637
  @DF-RHF Final Energy:  -418.43178010744299
    Total Energy =                       -418.4317801074427052
  Basis Set: CC-PVTZ
  Basis Set:
  @DF-RHF Final Energy:  -418.43178381433904
    Total Energy =                       -418.4317838143388144
  Basis Set: CC-PVTZ
  Basis Set:
  Basis Set: CC-PVTZ
  Basis Set:
  @DF-RHF Final Energy:  -418.43113972851057
    Total Energy =                       -418.4311397285107432
  Basis Set: CC-PVTZ
  Basis Set:
  Basis Set: CC-PVTZ
  Basis Set:
  @DF-RHF Final Energy:  -418.43167574483937
    Total Energy =                       -418.4316757448395947
  Basis Set: CC-PVTZ
  Basis Set:
  Charge       = 0
  Multiplicity = 1
  Basis Set: CC-PVTZ
  Basis Set:

    Orbital Energies (a.u.)
    -----------------------

    Doubly Occupied:

       1A    -20.599219     2A    -20.556631     3A    -11.328137
       4A    -11.315076     5A    -11.253804     6A    -11.253597
       7A    -11.240927     8A    -11.240611     9A    -11.236347
      10A     -1.431388    11A     -1.411120    12A     -1.173793
      13A     -1.042365    14A     -1.040664    15A     -0.890358
      16A     -0.867284    17A     -0.800576    18A     -0.758495
      19A     -0.715098    20A     -0.675091    21A     -0.656180
      22A     -0.631546    23A     -0.610301    24A     -0.608712
      25A     -0.593484    26A     -0.565752    27A     -0.539001
      28A     -0.506989    29A     -0.495857    30A     -0.424660
      31A     -0.359732    32A     -0.329436

  @DF-RHF Final Energy:  -418.43178429424808

   => Energetics <=

    Nuclear Repulsion Energy =            401.3295708223233191
    One-Electron Energy =               -1365.2182458553049855
    Two-Electron Energy =                 545.4568907387335912
    DFT Exchange-Correlation Energy =       0.0000000000000000
    Empirical Dispersion Energy =           0.0000000000000000
    PCM Polarization Energy =               0.0000000000000000
    EFP Energy =                            0.0000000000000000
    Total Energy =                       -418.4317842942480183
    Molecular point group: c1
  Basis Set: CC-PVTZ
  Basis Set:

  -Total Gradient:
     Atom            X                  Y                   Z
    ------   -----------------  -----------------  -----------------
       1        0.000000759909     0.000006645663    -0.000004927545
       2       -0.000032689713    -0.000035610638     0.000012715694
       3        0.000027726108     0.000095391219    -0.000073174550
       4        0.000064500435    -0.000007672795     0.000010644863
       5       -0.000118273427    -0.000045461911     0.000056946651
       6       -0.000013203346     0.000002549767    -0.000001873049
       7       -0.001001216581     0.005864867973     0.002900399009
       8        0.000003684687     0.000002906396     0.000001069299
       9        0.000081244182    -0.000094890153     0.000065978896
      10        0.000002681505    -0.000039480745    -0.000039172192
      11        0.001503785480    -0.008745238807    -0.007936056959
      12       -0.000016097675    -0.000018162162     0.000025671172
      13       -0.000738412410     0.003456127757     0.012977327560
      14        0.000211699761    -0.000475843837    -0.007991752455
      15        0.000023811080     0.000033872273    -0.000003796395

  **** Optimization is complete! (in 12 steps) ****
    Final optimized geometry and variables:
    Molecular point group: c1

    Geometry (in Angstrom), charge = 0, multiplicity = 1:

    H           -3.461104662945    -0.613843948481     0.682446286678
    O           -3.123274789951    -0.158521044032    -0.067714246303
    C           -1.782966254855    -0.062862420600    -0.015646769472
    C           -1.042941917344    -0.567129656554     1.038549804096
    C           -1.146398348815     0.580105528500    -1.065846187238
    H           -1.536565782116    -1.049937573672     1.861877990383
    C            0.332741738480    -0.447381113121     1.030131744840
    H           -1.734753310604     0.974300594410    -1.870287525459
    C            0.222518868792     0.715013241370    -1.048487034976
    H            0.905323657635    -0.849339539654     1.843735992276
    C            0.981086498343     0.170716475326    -0.022053852611
    H            0.706677745410     1.238236030000    -1.852568653905
    C            2.456283974815     0.379834895830     0.008206834317
    O            3.255282651927    -0.488317119841     0.089253436192
    H            2.783360740266     1.418395326143    -0.112302533101

  Mulliken Charges: (a.u.)
   Center  Symbol    Alpha    Beta     Spin     Total
       1     H     0.38613  0.38613  0.00000  0.22773
       2     O     4.16929  4.16929  0.00000 -0.33857
       3     C     2.85378  2.85378  0.00000  0.29245
       4     C     3.12504  3.12504  0.00000 -0.25007
       5     C     3.10026  3.10026  0.00000 -0.20052
       6     H     0.43197  0.43197  0.00000  0.13606
       7     C     3.08708  3.08708  0.00000 -0.17417
       8     H     0.41675  0.41675  0.00000  0.16650
       9     C     3.07686  3.07686  0.00000 -0.15373
      10     H     0.41466  0.41466  0.00000  0.17068
      11     C     2.96373  2.96373  0.00000  0.07254
      12     H     0.42246  0.42246  0.00000  0.15509
      13     C     2.92695  2.92695  0.00000  0.14610
      14     O     4.16399  4.16399  0.00000 -0.32797
      15     H     0.46106  0.46106  0.00000  0.07788

   Total alpha = 32.00000, Total beta = 32.00000, Total charge =  0.00000

*** Psi4 exiting successfully. Buy a developer a beer!
