  ==> Input File <==

--------------------------------------------------------------------------
set {
	reference rhf
	basis cc-pvtz
}

set_num_threads( 4 )
memory 2 gb

molecule MOL {
0 1

H	 -3.642953	 0.223825	 0.000000
C	 -2.571844	 0.155001	 0.000000
C	 -1.957580	 -1.086132	 0.000000
C	 -1.807160	 1.303787	 0.000000
H	 -2.551493	 -1.979629	 0.000000
C	 -0.582719	 -1.174294	 0.000000
H	 -2.279934	 2.266806	 0.000000
C	 -0.427220	 1.213406	 0.000000
H	 -0.094904	 -2.127556	 0.000000
C	 0.196908	 -0.024061	 0.000000
H	 0.151409	 2.115254	 0.000000
C	 1.690041	 -0.173233	 0.000000
C	 2.297411	 -1.481515	 0.451841
O	 2.386848	 0.725064	 -0.350546
H	 2.014634	 -1.703048	 1.474064
H	 3.370712	 -1.402685	 0.384457
H	 1.955095	 -2.299005	 -0.171465

	symmetry c1
}
set optking {
	frozen_dihedral = ("
		13 12 10 8
	")
}

ee = optimize('scf')
oeprop('DIPOLE', 'QUADRUPOLE', 'MULLIKEN_CHARGES')
f=open( 'psi4out.xyz', 'w' )
f.write( "17  " )
f.write( str(ee) + "\n" )
f.write( MOL.save_string_xyz() )
f.close()
--------------------------------------------------------------------------

    Molecular point group: c1
  Charge       = 0
  Multiplicity = 1
  Basis Set: CC-PVTZ
  Basis Set:
  @DF-RHF Final Energy:  -382.60306486340204
    Total Energy =                       -382.6030648634020963
    Molecular point group: c1
  Basis Set: CC-PVTZ
  Basis Set:
  Basis Set: CC-PVTZ
  Basis Set:
  @DF-RHF Final Energy:  -382.60367186554259
    Total Energy =                       -382.6036718655428785
  Basis Set: CC-PVTZ
  Basis Set:
  Basis Set: CC-PVTZ
  Basis Set:
  @DF-RHF Final Energy:  -382.60286860667560
    Total Energy =                       -382.6028686066757700
  Basis Set: CC-PVTZ
  Basis Set:
  Basis Set: CC-PVTZ
  Basis Set:
  @DF-RHF Final Energy:  -382.60501761665995
    Total Energy =                       -382.6050176166601204
  Basis Set: CC-PVTZ
  Basis Set:
  Basis Set: CC-PVTZ
  Basis Set:
  @DF-RHF Final Energy:  -382.60505597955108
    Total Energy =                       -382.6050559795511390
  Basis Set: CC-PVTZ
  Basis Set:
  Basis Set: CC-PVTZ
  Basis Set:
  @DF-RHF Final Energy:  -382.60506045305812
    Total Energy =                       -382.6050604530578312
  Basis Set: CC-PVTZ
  Basis Set:
  Charge       = 0
  Multiplicity = 1
  Basis Set: CC-PVTZ
  Basis Set:

    Orbital Energies (a.u.)
    -----------------------

    Doubly Occupied:

       1A    -20.540938     2A    -11.327917     3A    -11.246589
       4A    -11.243943     5A    -11.242897     6A    -11.239277
       7A    -11.239018     8A    -11.236828     9A    -11.229119
      10A     -1.402258    11A     -1.171248    12A     -1.053479
      13A     -1.030720    14A     -0.998985    15A     -0.864477
      16A     -0.839212    17A     -0.763736    18A     -0.712644
      19A     -0.659273    20A     -0.651961    21A     -0.628359
      22A     -0.613133    23A     -0.602719    24A     -0.598539
      25A     -0.556465    26A     -0.529933    27A     -0.520880
      28A     -0.504051    29A     -0.497493    30A     -0.414451
      31A     -0.350710    32A     -0.346904

  @DF-RHF Final Energy:  -382.60506130743761

   => Energetics <=

    Nuclear Repulsion Energy =            404.4529276417310939
    One-Electron Energy =               -1320.3996661203996155
    Two-Electron Energy =                 533.3416771712305717
    DFT Exchange-Correlation Energy =       0.0000000000000000
    Empirical Dispersion Energy =           0.0000000000000000
    PCM Polarization Energy =               0.0000000000000000
    EFP Energy =                            0.0000000000000000
    Total Energy =                       -382.6050613074379498
    Molecular point group: c1
  Basis Set: CC-PVTZ
  Basis Set:

  -Total Gradient:
     Atom            X                  Y                   Z
    ------   -----------------  -----------------  -----------------
       1       -0.000001941741    -0.000007555907     0.000010400197
       2        0.000035752670     0.000104826553    -0.000025668736
       3        0.000075852041    -0.000049089563     0.000008468499
       4       -0.000084758423    -0.000025868579     0.000001876812
       5       -0.000007789864     0.000010210363     0.000001763275
       6       -0.000060035911    -0.000053254781     0.000012594554
       7       -0.000004381980    -0.000001212974    -0.000004548170
       8       -0.000006937404    -0.000005290428     0.001939313683
       9       -0.000004333127     0.000020283588    -0.000001364122
      10        0.000019228716     0.000313851579    -0.001983046093
      11        0.000007943666    -0.000006887630    -0.000006714338
      12        0.000049601924    -0.000854073290    -0.001634765569
      13        0.000058588146     0.000610658320     0.001668167150
      14       -0.000061008255    -0.000024035567     0.000021964036
      15       -0.000000936466     0.000007531767    -0.000004095670
      16       -0.000008175017    -0.000027978715     0.000004335187
      17       -0.000006668971    -0.000012114734    -0.000008680696

  **** Optimization is complete! (in 7 steps) ****
    Final optimized geometry and variables:
    Molecular point group: c1

    Geometry (in Angstrom), charge = 0, multiplicity = 1:

    H           -3.632381311629     0.341455246416     0.005763254461
    C           -2.563599800916     0.243187510968    -0.003275715187
    C           -1.986218512843    -1.010734894836     0.000048767299
    C           -1.764412685061     1.373536403559    -0.014876315884
    H           -2.602934264437    -1.888606013477     0.008682472100
    C           -0.609272690766    -1.135973550522    -0.002176263806
    H           -2.212277919501     2.348513632058    -0.011724798552
    C           -0.392011502851     1.247039572987    -0.031693681784
    H           -0.175909036848    -2.116299535675     0.008703638612
    C            0.198277922244    -0.010077177546    -0.029142550583
    H            0.237356676859     2.113590572698    -0.049503189385
    C            1.696673972151    -0.094576253689    -0.025748254613
    C            2.352772263225    -1.377932850865     0.430036090310
    O            2.354846243865     0.844104490785    -0.341764500276
    H            1.975169879908    -1.677385114612     1.399923948073
    H            3.418569971926    -1.221125656578     0.481862777159
    H            2.146949532713    -2.181644625106    -0.267612012036

  Mulliken Charges: (a.u.)
   Center  Symbol    Alpha    Beta     Spin     Total
       1     H     0.42034  0.42034  0.00000  0.15932
       2     C     3.07396  3.07396  0.00000 -0.14792
       3     C     3.07481  3.07481  0.00000 -0.14961
       4     C     3.07307  3.07307  0.00000 -0.14614
       5     H     0.42219  0.42219  0.00000  0.15562
       6     C     3.08702  3.08702  0.00000 -0.17403
       7     H     0.42036  0.42036  0.00000  0.15927
       8     C     3.07793  3.07793  0.00000 -0.15586
       9     H     0.42185  0.42185  0.00000  0.15630
      10     C     3.00434  3.00434  0.00000 -0.00868
      11     H     0.40826  0.40826  0.00000  0.18348
      12     C     2.84180  2.84180  0.00000  0.31641
      13     C     3.16570  3.16570  0.00000 -0.33139
      14     O     4.18187  4.18187  0.00000 -0.36373
      15     H     0.44520  0.44520  0.00000  0.10959
      16     H     0.43227  0.43227  0.00000  0.13546
      17     H     0.44904  0.44904  0.00000  0.10192

   Total alpha = 32.00000, Total beta = 32.00000, Total charge = -0.00000
