  ==> Input File <==

--------------------------------------------------------------------------
set {
	reference rhf
	basis 6-31G*
}

set_num_threads( 1 )
memory 2 gb

molecule MOL {
0 1

O	 0.035913	 -0.220780	 -0.340723
C	 1.122059	 0.121804	 -0.000188
C	 1.496898	 1.502438	 0.480685
O	 2.172624	 -0.688929	 0.000216
C	 0.323525	 2.477212	 0.499499
H	 1.934605	 1.394138	 1.469339
H	 2.297878	 1.862775	 -0.159114
C	 0.730541	 3.867583	 0.989980
H	 -0.463015	 2.079079	 1.133021
H	 -0.099552	 2.548019	 -0.497745
C	 -0.438875	 4.850964	 1.010776
H	 1.154519	 3.790801	 1.989191
H	 1.520599	 4.260717	 0.353329
H	 -1.231725	 4.502549	 1.666254
H	 -0.123637	 5.828339	 1.362398
H	 -0.862619	 4.976290	 0.018619
C	 3.452279	 -0.082609	 0.000533
H	 3.583069	 0.529321	 -0.880332
H	 4.163299	 -0.894027	 0.001117
H	 3.582335	 0.529955	 0.881077

	symmetry c1
}
set optking {
	frozen_dihedral = ("
		9 5 8 12,
		1 2 3 6,
		9 5 3 6
	")
}

ee = energy('scf')
oeprop('DIPOLE', 'QUADRUPOLE', 'MULLIKEN_CHARGES')
f=open( 'psi4out.xyz', 'w' )
f.write( "20  " )
f.write( str(ee) + "\n" )
f.write( MOL.save_string_xyz() )
f.close()
--------------------------------------------------------------------------

    Molecular point group: c1

    Geometry (in Angstrom), charge = 0, multiplicity = 1:

       Center              X                  Y                   Z               Mass
    ------------   -----------------  -----------------  -----------------  -----------------
           O         -1.093781772560    -1.684824194909    -0.665691944358    15.994914619560
           C         -0.007635772560    -1.342240194909    -0.325156944358    12.000000000000
           C          0.367203227440     0.038393805091     0.155716055642    12.000000000000
           O          1.042929227440    -2.152973194909    -0.324752944358    15.994914619560
           C         -0.806169772560     1.013167805091     0.174530055642    12.000000000000
           H          0.804910227440    -0.069906194909     1.144370055642     1.007825032070
           H          1.168183227440     0.398730805091    -0.484082944358     1.007825032070
           C         -0.399153772560     2.403538805091     0.665011055642    12.000000000000
           H         -1.592709772560     0.615034805091     0.808052055642     1.007825032070
           H         -1.229246772560     1.083974805091    -0.822713944358     1.007825032070
           C         -1.568569772560     3.386919805091     0.685807055642    12.000000000000
           H          0.024824227440     2.326756805091     1.664222055642     1.007825032070
           H          0.390904227440     2.796672805091     0.028360055642     1.007825032070
           H         -2.361419772560     3.038504805091     1.341285055642     1.007825032070
           H         -1.253331772560     4.364294805091     1.037429055642     1.007825032070
           H         -1.992313772560     3.512245805091    -0.306349944358     1.007825032070
           C          2.322584227440    -1.546653194909    -0.324435944358    12.000000000000
           H          2.453374227440    -0.934723194909    -1.205300944358     1.007825032070
           H          3.033604227440    -2.358071194909    -0.323851944358     1.007825032070
           H          2.452640227440    -0.934089194909     0.556108055642     1.007825032070

  Charge       = 0
  Multiplicity = 1
  Basis Set: 6-31G*
  Basis Set:

    Orbital Energies (a.u.)
    -----------------------

    Doubly Occupied:

       1A    -20.606146     2A    -20.544826     3A    -11.374883
       4A    -11.297592     5A    -11.242363     6A    -11.224584
       7A    -11.223248     8A    -11.213783     9A     -1.468191
      10A     -1.369296    11A     -1.092818    12A     -1.019055
      13A     -0.988719    14A     -0.907532    15A     -0.813129
      16A     -0.764057    17A     -0.703290    18A     -0.697858
      19A     -0.677707    20A     -0.648470    21A     -0.607927
      22A     -0.591363    23A     -0.584780    24A     -0.559655
      25A     -0.546145    26A     -0.526222    27A     -0.510772
      28A     -0.481976    29A     -0.477082    30A     -0.474440
      31A     -0.451267    32A     -0.429224

  @DF-RHF Final Energy:  -383.91524538901695

   => Energetics <=

    Nuclear Repulsion Energy =            386.7952807535971260
    One-Electron Energy =               -1289.1843253567726606
    Two-Electron Energy =                 518.4737992141589302
    DFT Exchange-Correlation Energy =       0.0000000000000000
    Empirical Dispersion Energy =           0.0000000000000000
    PCM Polarization Energy =               0.0000000000000000
    EFP Energy =                            0.0000000000000000
    Total Energy =                       -383.9152453890166043

  Mulliken Charges: (a.u.)
   Center  Symbol    Alpha    Beta     Spin     Total
       1     O     4.27172  4.27172  0.00000 -0.54344
       2     C     2.58942  2.58942  0.00000  0.82116
       3     C     3.24726  3.24726  0.00000 -0.49453
       4     O     4.30075  4.30075  0.00000 -0.60149
       5     C     3.14612  3.14612  0.00000 -0.29224
       6     H     0.39921  0.39921  0.00000  0.20157
       7     H     0.40304  0.40304  0.00000  0.19391
       8     C     3.15419  3.15419  0.00000 -0.30838
       9     H     0.40971  0.40971  0.00000  0.18058
      10     H     0.41064  0.41064  0.00000  0.17871
      11     C     3.23955  3.23955  0.00000 -0.47911
      12     H     0.42383  0.42383  0.00000  0.15234
      13     H     0.42451  0.42451  0.00000  0.15098
      14     H     0.41902  0.41902  0.00000  0.16197
      15     H     0.41853  0.41853  0.00000  0.16293
      16     H     0.41935  0.41935  0.00000  0.16130
      17     C     3.10336  3.10336  0.00000 -0.20673
      18     H     0.41110  0.41110  0.00000  0.17781
      19     H     0.39566  0.39566  0.00000  0.20868
      20     H     0.41301  0.41301  0.00000  0.17399

   Total alpha = 32.00000, Total beta = 32.00000, Total charge = -0.00000
