  ==> Input File <==

--------------------------------------------------------------------------
set {
	reference rhf
	basis 6-31G*
}

set_num_threads( 1 )
memory 2 gb

molecule MOL {
0 1

O	 3.284863	 1.128202	 -0.220983
C	 2.735917	 0.149379	 0.170967
C	 1.245376	 -0.013843	 0.345420
O	 3.383114	 -0.957033	 0.515380
C	 0.455112	 1.231400	 -0.050772
H	 0.950671	 -0.883606	 -0.232380
H	 1.068554	 -0.274779	 1.385777
C	 -0.998893	 1.219485	 0.433193
H	 0.482531	 1.345121	 -1.130325
H	 0.957290	 2.103070	 0.354729
C	 -1.883438	 0.145884	 -0.207175
H	 -1.431207	 2.195402	 0.224832
H	 -1.019646	 1.105716	 1.516076
C	 -3.347647	 0.245583	 0.225435
H	 -1.822183	 0.231698	 -1.291012
H	 -1.510341	 -0.844814	 0.042401
C	 -4.239992	 -0.825570	 -0.404234
H	 -3.732888	 1.230466	 -0.033079
H	 -3.408585	 0.170602	 1.310038
C	 -5.701275	 -0.716658	 0.029921
H	 -4.179496	 -0.752714	 -1.488058
H	 -3.859041	 -1.810759	 -0.143352
H	 -6.308102	 -1.488908	 -0.432678
H	 -6.122175	 0.245478	 -0.248167
H	 -5.799072	 -0.820114	 1.106957
C	 4.794259	 -0.938117	 0.400506
H	 5.089896	 -0.759322	 -0.623279
H	 5.129635	 -1.911889	 0.721909
H	 5.216769	 -0.169464	 1.031532

	symmetry c1
}
set optking {
	frozen_dihedral = ("
		21 17 14 11,
		17 14 11 15,
		15 11 8 5,
		11 8 5 9,
		2 4 26 27,
		1 2 4 26,
		6 3 2 1
	")
}

ee = energy('scf')
oeprop('DIPOLE', 'QUADRUPOLE', 'MULLIKEN_CHARGES')
f=open( 'psi4out.xyz', 'w' )
f.write( "29  " )
f.write( str(ee) + "\n" )
f.write( MOL.save_string_xyz() )
f.close()
--------------------------------------------------------------------------

    Molecular point group: c1

    Geometry (in Angstrom), charge = 0, multiplicity = 1:

       Center              X                  Y                   Z               Mass
    ------------   -----------------  -----------------  -----------------  -----------------
           O          3.266457127870     1.080070837033    -0.335547237304    15.994914619560
           C          2.717511127870     0.101247837033     0.056402762696    12.000000000000
           C          1.226970127870    -0.061974162967     0.230855762696    12.000000000000
           O          3.364708127870    -1.005164162967     0.400815762696    15.994914619560
           C          0.436706127870     1.183268837033    -0.165336237304    12.000000000000
           H          0.932265127870    -0.931737162967    -0.346944237304     1.007825032070
           H          1.050148127870    -0.322910162967     1.271212762696     1.007825032070
           C         -1.017298872130     1.171353837033     0.318628762696    12.000000000000
           H          0.464125127870     1.296989837033    -1.244889237304     1.007825032070
           H          0.938884127870     2.054938837033     0.240164762696     1.007825032070
           C         -1.901843872130     0.097752837033    -0.321739237304    12.000000000000
           H         -1.449612872130     2.147270837033     0.110267762696     1.007825032070
           H         -1.038051872130     1.057584837033     1.401511762696     1.007825032070
           C         -3.366052872130     0.197451837033     0.110870762696    12.000000000000
           H         -1.840588872130     0.183566837033    -1.405576237304     1.007825032070
           H         -1.528746872130    -0.892945162967    -0.072163237304     1.007825032070
           C         -4.258397872130    -0.873701162967    -0.518798237304    12.000000000000
           H         -3.751293872130     1.182334837033    -0.147643237304     1.007825032070
           H         -3.426990872130     0.122470837033     1.195473762696     1.007825032070
           C         -5.719680872130    -0.764789162967    -0.084643237304    12.000000000000
           H         -4.197901872130    -0.800845162967    -1.602622237304     1.007825032070
           H         -3.877446872130    -1.858890162967    -0.257916237304     1.007825032070
           H         -6.326507872130    -1.537039162967    -0.547242237304     1.007825032070
           H         -6.140580872130     0.197346837033    -0.362731237304     1.007825032070
           H         -5.817477872130    -0.868245162967     0.992392762696     1.007825032070
           C          4.775853127870    -0.986248162967     0.285941762696    12.000000000000
           H          5.071490127870    -0.807453162967    -0.737843237304     1.007825032070
           H          5.111229127870    -1.960020162967     0.607344762696     1.007825032070
           H          5.198363127870    -0.217595162967     0.916967762696     1.007825032070

  Charge       = 0
  Multiplicity = 1
  Basis Set: 6-31G*
  Basis Set:

    Orbital Energies (a.u.)
    -----------------------

    Doubly Occupied:

       1A    -20.603490     2A    -20.545372     3A    -11.372147
       4A    -11.280739     5A    -11.234713     6A    -11.218591
       7A    -11.217454     8A    -11.215910     9A    -11.215799
      10A    -11.214368    11A    -11.209050    12A     -1.469206
      13A     -1.362699    14A     -1.097934    15A     -1.066781
      16A     -1.019489    17A     -0.977223    18A     -0.928485
      19A     -0.861400    20A     -0.799369    21A     -0.790509
      22A     -0.763785    23A     -0.700914    24A     -0.682366
      25A     -0.672327    26A     -0.651464    27A     -0.628153
      28A     -0.604330    29A     -0.594722    30A     -0.581105
      31A     -0.567013    32A     -0.549505    33A     -0.531938
      34A     -0.529497    35A     -0.514950    36A     -0.512784
      37A     -0.496911    38A     -0.477327    39A     -0.470337
      40A     -0.462417    41A     -0.458818    42A     -0.455801
      43A     -0.440555    44A     -0.435890

  @DF-RHF Final Energy:  -501.04378849963553

   => Energetics <=

    Nuclear Repulsion Energy =            609.7241749192615998
    One-Electron Energy =               -1890.5686545164671770
    Two-Electron Energy =                 779.8006910975716437
    DFT Exchange-Correlation Energy =       0.0000000000000000
    Empirical Dispersion Energy =           0.0000000000000000
    PCM Polarization Energy =               0.0000000000000000
    EFP Energy =                            0.0000000000000000
    Total Energy =                       -501.0437884996338198

  Mulliken Charges: (a.u.)
   Center  Symbol    Alpha    Beta     Spin     Total
       1     O     4.28574  4.28574  0.00000 -0.57147
       2     C     2.60580  2.60580  0.00000  0.78840
       3     C     3.20954  3.20954  0.00000 -0.41907
       4     O     4.30722  4.30722  0.00000 -0.61443
       5     C     3.15486  3.15486  0.00000 -0.30973
       6     H     0.39865  0.39865  0.00000  0.20269
       7     H     0.40118  0.40118  0.00000  0.19764
       8     C     3.15702  3.15702  0.00000 -0.31404
       9     H     0.41512  0.41512  0.00000  0.16976
      10     H     0.40514  0.40514  0.00000  0.18972
      11     C     3.15489  3.15489  0.00000 -0.30977
      12     H     0.41845  0.41845  0.00000  0.16309
      13     H     0.42359  0.42359  0.00000  0.15282
      14     C     3.15039  3.15039  0.00000 -0.30079
      15     H     0.42293  0.42293  0.00000  0.15414
      16     H     0.42337  0.42337  0.00000  0.15326
      17     C     3.15143  3.15143  0.00000 -0.30285
      18     H     0.42333  0.42333  0.00000  0.15335
      19     H     0.42400  0.42400  0.00000  0.15200
      20     C     3.23934  3.23934  0.00000 -0.47869
      21     H     0.42288  0.42288  0.00000  0.15424
      22     H     0.42343  0.42343  0.00000  0.15314
      23     H     0.41925  0.41925  0.00000  0.16150
      24     H     0.42155  0.42155  0.00000  0.15689
      25     H     0.42182  0.42182  0.00000  0.15637
      26     C     3.09239  3.09239  0.00000 -0.18478
      27     H     0.40906  0.40906  0.00000  0.18188
      28     H     0.40850  0.40850  0.00000  0.18300
      29     H     0.40913  0.40913  0.00000  0.18175

   Total alpha = 44.00000, Total beta = 44.00000, Total charge =  0.00000
